 Entering Gaussian System, Link 0=g09
 Initial command:
 /cluster/software/gaussian/gaussian-09-D.01/g09/l1.exe "/local/scratch/maxb2/Gau-5747.inp" -scrdir="/local/scratch/maxb2/"
 Entering Link 1 = /cluster/software/gaussian/gaussian-09-D.01/g09/l1.exe PID=      5748.
  
 Copyright (c) 1988,1990,1992,1993,1995,1998,2003,2009,2013,
            Gaussian, Inc.  All Rights Reserved.
  
 This is part of the Gaussian(R) 09 program.  It is based on
 the Gaussian(R) 03 system (copyright 2003, Gaussian, Inc.),
 the Gaussian(R) 98 system (copyright 1998, Gaussian, Inc.),
 the Gaussian(R) 94 system (copyright 1995, Gaussian, Inc.),
 the Gaussian 92(TM) system (copyright 1992, Gaussian, Inc.),
 the Gaussian 90(TM) system (copyright 1990, Gaussian, Inc.),
 the Gaussian 88(TM) system (copyright 1988, Gaussian, Inc.),
 the Gaussian 86(TM) system (copyright 1986, Carnegie Mellon
 University), and the Gaussian 82(TM) system (copyright 1983,
 Carnegie Mellon University). Gaussian is a federally registered
 trademark of Gaussian, Inc.
  
 This software contains proprietary and confidential information,
 including trade secrets, belonging to Gaussian, Inc.
  
 This software is provided under written license and may be
 used, copied, transmitted, or stored only in accord with that
 written license.
  
 The following legend is applicable only to US Government
 contracts under FAR:
  
                    RESTRICTED RIGHTS LEGEND
  
 Use, reproduction and disclosure by the US Government is
 subject to restrictions as set forth in subparagraphs (a)
 and (c) of the Commercial Computer Software - Restricted
 Rights clause in FAR 52.227-19.
  
 Gaussian, Inc.
 340 Quinnipiac St., Bldg. 40, Wallingford CT 06492
  
  
 ---------------------------------------------------------------
 Warning -- This program may not be used in any manner that
 competes with the business of Gaussian, Inc. or will provide
 assistance to any competitor of Gaussian, Inc.  The licensee
 of this program is prohibited from giving any competitor of
 Gaussian, Inc. access to this program.  By using this program,
 the user acknowledges that Gaussian, Inc. is engaged in the
 business of creating and licensing software in the field of
 computational chemistry and represents and warrants to the
 licensee that it is not a competitor of Gaussian, Inc. and that
 it will not use this program in any manner prohibited above.
 ---------------------------------------------------------------
  

 Cite this work as:
 Gaussian 09, Revision D.01,
 M. J. Frisch, G. W. Trucks, H. B. Schlegel, G. E. Scuseria, 
 M. A. Robb, J. R. Cheeseman, G. Scalmani, V. Barone, B. Mennucci, 
 G. A. Petersson, H. Nakatsuji, M. Caricato, X. Li, H. P. Hratchian, 
 A. F. Izmaylov, J. Bloino, G. Zheng, J. L. Sonnenberg, M. Hada, 
 M. Ehara, K. Toyota, R. Fukuda, J. Hasegawa, M. Ishida, T. Nakajima, 
 Y. Honda, O. Kitao, H. Nakai, T. Vreven, J. A. Montgomery, Jr., 
 J. E. Peralta, F. Ogliaro, M. Bearpark, J. J. Heyd, E. Brothers, 
 K. N. Kudin, V. N. Staroverov, T. Keith, R. Kobayashi, J. Normand, 
 K. Raghavachari, A. Rendell, J. C. Burant, S. S. Iyengar, J. Tomasi, 
 M. Cossi, N. Rega, J. M. Millam, M. Klene, J. E. Knox, J. B. Cross, 
 V. Bakken, C. Adamo, J. Jaramillo, R. Gomperts, R. E. Stratmann, 
 O. Yazyev, A. J. Austin, R. Cammi, C. Pomelli, J. W. Ochterski, 
 R. L. Martin, K. Morokuma, V. G. Zakrzewski, G. A. Voth, 
 P. Salvador, J. J. Dannenberg, S. Dapprich, A. D. Daniels, 
 O. Farkas, J. B. Foresman, J. V. Ortiz, J. Cioslowski, 
 and D. J. Fox, Gaussian, Inc., Wallingford CT, 2013.
 
 ******************************************
 Gaussian 09:  ES64L-G09RevD.01 24-Apr-2013
                27-Sep-2016 
 ******************************************
 %rwf=/home/maxb2/scratch/HNCts30/
 %int=/home/maxb2/scratch/HNCts30/
 %d2e=/home/maxb2/scratch/HNCts30/
 %nosave
 %mem=6GB
 %nprocshared=3
 Will use up to    3 processors via shared memory.
 %chk=HNCts6311ppGss
 ------------------------------------------
 # opt=(calcfc,ts,tight) RHF/6-311++g** gfp
 ------------------------------------------
 1/5=1,7=10,10=4,18=20,38=1/1,3;
 2/9=110,12=2,17=6,18=5,40=1/2;
 3/5=4,6=6,7=1111,11=1,16=1,24=100,25=1,30=1,71=2,116=1,140=1/1,2,3;
 4//1;
 5/5=2,38=5/2;
 8/6=4,10=90,11=11/1;
 11/6=1,8=1,9=11,15=111,16=1/1,2,10;
 10/6=1,13=1/2;
 6/7=2,8=2,9=2,10=2,28=1/1;
 7/10=1,18=20,25=1/1,2,3,16;
 1/5=1,7=10,10=4,18=20/3(2);
 2/9=110/2;
 99//99;
 2/9=110/2;
 3/5=4,6=6,7=1111,11=1,16=1,25=1,30=1,71=1,116=1/1,2,3;
 4/5=5,16=3,69=1/1;
 5/5=2,38=5/2;
 7//1,2,3,16;
 1/5=1,7=10,18=20/3(-5);
 2/9=110/2;
 6/7=2,8=2,9=2,10=2,19=2,28=1/1;
 99/9=1/99;
 -------
 HNC-HCN
 -------
 Symbolic Z-matrix:
 Charge =  0 Multiplicity = 1
 N
 C                    1    B1
 H                    2    B2       1    A1
       Variables:
  B1                    1.                       
  B2                    1.1                      
  A1                   80.                       
 

 GradGradGradGradGradGradGradGradGradGradGradGradGradGradGradGradGradGrad
 Berny optimization.
 Initialization pass.
                           ----------------------------
                           !    Initial Parameters    !
                           ! (Angstroms and Degrees)  !
 --------------------------                            --------------------------
 ! Name  Definition              Value          Derivative Info.                !
 --------------------------------------------------------------------------------
 ! R1    R(1,2)                  1.0            calculate D2E/DX2 analytically  !
 ! R2    R(2,3)                  1.1            calculate D2E/DX2 analytically  !
 ! A1    A(1,2,3)               80.0            calculate D2E/DX2 analytically  !
 --------------------------------------------------------------------------------
 Trust Radius=3.00D-01 FncErr=1.00D-07 GrdErr=1.00D-07
 Number of steps in this run=     20 maximum allowed number of steps=    100.
 Search for a saddle point of order  1.
 GradGradGradGradGradGradGradGradGradGradGradGradGradGradGradGradGradGrad

                          Input orientation:                          
 ---------------------------------------------------------------------
 Center     Atomic      Atomic             Coordinates (Angstroms)
 Number     Number       Type             X           Y           Z
 ---------------------------------------------------------------------
      1          7           0        0.000000    0.000000    0.000000
      2          6           0        0.000000    0.000000    1.000000
      3          1           0        1.083289    0.000000    0.808987
 ---------------------------------------------------------------------
                    Distance matrix (angstroms):
                    1          2          3
     1  N    0.000000
     2  C    1.000000   0.000000
     3  H    1.352026   1.100000   0.000000
 Stoichiometry    CHN
 Framework group  CS[SG(CHN)]
 Deg. of freedom     3
 Full point group                 CS      NOp   2
 Largest Abelian subgroup         CS      NOp   2
 Largest concise Abelian subgroup C1      NOp   1
                         Standard orientation:                         
 ---------------------------------------------------------------------
 Center     Atomic      Atomic             Coordinates (Angstroms)
 Number     Number       Type             X           Y           Z
 ---------------------------------------------------------------------
      1          7           0        0.077378   -0.486356    0.000000
      2          6           0        0.077378    0.513644    0.000000
      3          1           0       -1.005911    0.322631    0.000000
 ---------------------------------------------------------------------
 Rotational constants (GHZ):    453.5965319     76.5289306     65.4812115
 Standard basis: 6-311++G(d,p) (5D, 7F)
 AO basis set (Overlap normalization):
 Atom N1       Shell     1 S   6     bf    1 -     1          0.146222760101         -0.919080048643          0.000000000000
      0.6293480000D+04  0.1969788147D-02
      0.9490440000D+03  0.1496128592D-01
      0.2187760000D+03  0.7350053084D-01
      0.6369160000D+02  0.2489367658D+00
      0.1882820000D+02  0.6024594331D+00
      0.2720230000D+01  0.2562017589D+00
 Atom N1       Shell     2 SP   3    bf    2 -     5          0.146222760101         -0.919080048643          0.000000000000
      0.3063310000D+02  0.1119060795D+00  0.3831191864D-01
      0.7026140000D+01  0.9216666549D+00  0.2374031155D+00
      0.2112050000D+01 -0.2569191826D-02  0.8175923978D+00
 Atom N1       Shell     3 SP   1    bf    6 -     9          0.146222760101         -0.919080048643          0.000000000000
      0.6840090000D+00  0.1000000000D+01  0.1000000000D+01
 Atom N1       Shell     4 SP   1    bf   10 -    13          0.146222760101         -0.919080048643          0.000000000000
      0.2008780000D+00  0.1000000000D+01  0.1000000000D+01
 Atom N1       Shell     5 SP   1    bf   14 -    17          0.146222760101         -0.919080048643          0.000000000000
      0.6390000000D-01  0.1000000000D+01  0.1000000000D+01
 Atom N1       Shell     6 D   1     bf   18 -    22          0.146222760101         -0.919080048643          0.000000000000
      0.9130000000D+00  0.1000000000D+01
 Atom C2       Shell     7 S   6     bf   23 -    23          0.146222760101          0.970646084242          0.000000000000
      0.4563240000D+04  0.1966650249D-02
      0.6820240000D+03  0.1523060193D-01
      0.1549730000D+03  0.7612690966D-01
      0.4445530000D+02  0.2608010331D+00
      0.1302900000D+02  0.6164620782D+00
      0.1827730000D+01  0.2210060280D+00
 Atom C2       Shell     8 SP   3    bf   24 -    27          0.146222760101          0.970646084242          0.000000000000
      0.2096420000D+02  0.1146600807D+00  0.4024869267D-01
      0.4803310000D+01  0.9199996477D+00  0.2375939567D+00
      0.1459330000D+01 -0.3030682134D-02  0.8158538515D+00
 Atom C2       Shell     9 SP   1    bf   28 -    31          0.146222760101          0.970646084242          0.000000000000
      0.4834560000D+00  0.1000000000D+01  0.1000000000D+01
 Atom C2       Shell    10 SP   1    bf   32 -    35          0.146222760101          0.970646084242          0.000000000000
      0.1455850000D+00  0.1000000000D+01  0.1000000000D+01
 Atom C2       Shell    11 SP   1    bf   36 -    39          0.146222760101          0.970646084242          0.000000000000
      0.4380000000D-01  0.1000000000D+01  0.1000000000D+01
 Atom C2       Shell    12 D   1     bf   40 -    44          0.146222760101          0.970646084242          0.000000000000
      0.6260000000D+00  0.1000000000D+01
 Atom H3       Shell    13 S   3     bf   45 -    45         -1.900895881308          0.609683835051          0.000000000000
      0.3386500000D+02  0.2549381454D-01
      0.5094790000D+01  0.1903731086D+00
      0.1158790000D+01  0.8521614860D+00
 Atom H3       Shell    14 S   1     bf   46 -    46         -1.900895881308          0.609683835051          0.000000000000
      0.3258400000D+00  0.1000000000D+01
 Atom H3       Shell    15 S   1     bf   47 -    47         -1.900895881308          0.609683835051          0.000000000000
      0.1027410000D+00  0.1000000000D+01
 Atom H3       Shell    16 S   1     bf   48 -    48         -1.900895881308          0.609683835051          0.000000000000
      0.3600000000D-01  0.1000000000D+01
 Atom H3       Shell    17 P   1     bf   49 -    51         -1.900895881308          0.609683835051          0.000000000000
      0.7500000000D+00  0.1000000000D+01
 There are    40 symmetry adapted cartesian basis functions of A'  symmetry.
 There are    13 symmetry adapted cartesian basis functions of A"  symmetry.
 There are    38 symmetry adapted basis functions of A'  symmetry.
 There are    13 symmetry adapted basis functions of A"  symmetry.
    51 basis functions,    81 primitive gaussians,    53 cartesian basis functions
     7 alpha electrons        7 beta electrons
       nuclear repulsion energy        27.8516342577 Hartrees.
 NAtoms=    3 NActive=    3 NUniq=    3 SFac= 1.00D+00 NAtFMM=   60 NAOKFM=F Big=F
 Integral buffers will be    131072 words long.
 Raffenetti 1 integral format.
 Two-electron integral symmetry is turned on.
 One-electron integrals computed using PRISM.
 NBasis=    51 RedAO= T EigKep=  1.44D-03  NBF=    38    13
 NBsUse=    51 1.00D-06 EigRej= -1.00D+00 NBFU=    38    13
 ExpMin= 3.60D-02 ExpMax= 6.29D+03 ExpMxC= 9.49D+02 IAcc=3 IRadAn=         5 AccDes= 0.00D+00
 Harris functional with IExCor=  205 and IRadAn=       5 diagonalized for initial guess.
 HarFok:  IExCor=  205 AccDes= 0.00D+00 IRadAn=         5 IDoV= 1 UseB2=F ITyADJ=14
 ICtDFT=  3500011 ScaDFX=  1.000000  1.000000  1.000000  1.000000
 FoFCou: FMM=F IPFlag=           0 FMFlag=      100000 FMFlg1=           0
         NFxFlg=           0 DoJE=T BraDBF=F KetDBF=T FulRan=T
         wScrn=  0.000000 ICntrl=     500 IOpCl=  0 I1Cent=   200000004 NGrid=           0
         NMat0=    1 NMatS0=      1 NMatT0=    0 NMatD0=    1 NMtDS0=    0 NMtDT0=    0
 Petite list used in FoFCou.
 Initial guess orbital symmetries:
       Occupied  (A') (A') (A') (A') (A") (A') (A')
       Virtual   (A') (A") (A') (A') (A') (A") (A') (A') (A') (A')
                 (A") (A') (A') (A') (A") (A') (A') (A') (A') (A")
                 (A") (A') (A') (A') (A") (A') (A') (A") (A') (A")
                 (A') (A') (A') (A") (A') (A") (A') (A') (A') (A")
                 (A') (A') (A') (A')
 The electronic state of the initial guess is 1-A'.
 Keep R1 ints in memory in symmetry-blocked form, NReq=1745591.
 Requested convergence on RMS density matrix=1.00D-08 within 128 cycles.
 Requested convergence on MAX density matrix=1.00D-06.
 Requested convergence on             energy=1.00D-06.
 No special actions if energy rises.
 SCF Done:  E(RHF) =  -92.7363917912     A.U. after   12 cycles
            NFock= 12  Conv=0.10D-07     -V/T= 1.9867
 Range of M.O.s used for correlation:     1    51
 NBasis=    51 NAE=     7 NBE=     7 NFC=     0 NFV=     0
 NROrb=     51 NOA=     7 NOB=     7 NVA=    44 NVB=    44

 **** Warning!!: The largest alpha MO coefficient is  0.12700879D+02

 Symmetrizing basis deriv contribution to polar:
 IMax=3 JMax=2 DiffMx= 0.00D+00
 G2DrvN: will do     4 centers at a time, making    1 passes.
 Calling FoFCou, ICntrl=  3107 FMM=F I1Cent=   0 AccDes= 0.00D+00.
 End of G2Drv F.D. properties file   721 does not exist.
 End of G2Drv F.D. properties file   722 does not exist.
 End of G2Drv F.D. properties file   788 does not exist.
          IDoAtm=111
          Differentiating once with respect to nuclear coordinates.
 Keep R1 ints in memory in symmetry-blocked form, NReq=1725758.
          There are    12 degrees of freedom in the 1st order CPHF.  IDoFFX=6 NUNeed=     0.
      6 vectors produced by pass  0 Test12= 2.57D-15 8.33D-09 XBig12= 9.27D-02 1.14D-01.
 AX will form     6 AO Fock derivatives at one time.
      6 vectors produced by pass  1 Test12= 2.57D-15 8.33D-09 XBig12= 1.12D-02 3.53D-02.
      6 vectors produced by pass  2 Test12= 2.57D-15 8.33D-09 XBig12= 3.07D-04 5.06D-03.
      6 vectors produced by pass  3 Test12= 2.57D-15 8.33D-09 XBig12= 7.95D-06 9.57D-04.
      6 vectors produced by pass  4 Test12= 2.57D-15 8.33D-09 XBig12= 1.09D-07 9.06D-05.
      6 vectors produced by pass  5 Test12= 2.57D-15 8.33D-09 XBig12= 1.15D-09 9.82D-06.
      6 vectors produced by pass  6 Test12= 2.57D-15 8.33D-09 XBig12= 6.95D-12 7.70D-07.
      5 vectors produced by pass  7 Test12= 2.57D-15 8.33D-09 XBig12= 4.57D-14 6.19D-08.
 InvSVY:  IOpt=1 It=  1 EMax= 6.66D-16
 Solved reduced A of dimension    47 with     6 vectors.
 End of Minotr F.D. properties file   721 does not exist.
 End of Minotr F.D. properties file   722 does not exist.
 End of Minotr F.D. properties file   788 does not exist.

 **********************************************************************

            Population analysis using the SCF density.

 **********************************************************************

 Orbital symmetries:
       Occupied  (A') (A') (A') (A') (A') (A") (A')
       Virtual   (A') (A') (A") (A') (A') (A') (A") (A') (A') (A')
                 (A") (A') (A') (A') (A") (A') (A') (A') (A') (A")
                 (A") (A') (A') (A') (A') (A") (A') (A") (A") (A')
                 (A') (A') (A') (A") (A') (A") (A') (A') (A') (A")
                 (A') (A') (A') (A')
 The electronic state is 1-A'.
 Alpha  occ. eigenvalues --  -15.60002 -11.23527  -1.40072  -0.73617  -0.63764
 Alpha  occ. eigenvalues --   -0.59602  -0.50482
 Alpha virt. eigenvalues --    0.04436   0.09259   0.10077   0.10305   0.14080
 Alpha virt. eigenvalues --    0.16493   0.19902   0.20765   0.22732   0.29931
 Alpha virt. eigenvalues --    0.30054   0.34556   0.50727   0.57902   0.71669
 Alpha virt. eigenvalues --    0.79045   0.86854   0.92187   1.03345   1.03902
 Alpha virt. eigenvalues --    1.23473   1.31910   1.49057   1.59526   1.73980
 Alpha virt. eigenvalues --    1.77260   1.98831   2.06879   2.40570   2.42900
 Alpha virt. eigenvalues --    2.58172   2.72921   2.87246   3.05889   3.14632
 Alpha virt. eigenvalues --    3.20908   3.24011   3.68528   3.81568   4.40114
 Alpha virt. eigenvalues --    4.47445   5.19715  25.40494  37.50502
          Condensed to atoms (all electrons):
               1          2          3
     1  N    6.683253   0.332574   0.053475
     2  C    0.332574   5.581044   0.275519
     3  H    0.053475   0.275519   0.412566
 Mulliken charges:
               1
     1  N   -0.069302
     2  C   -0.189137
     3  H    0.258439
 Sum of Mulliken charges =   0.00000
 Mulliken charges with hydrogens summed into heavy atoms:
               1
     1  N   -0.069302
     2  C    0.069302
 APT charges:
               1
     1  N   -0.067929
     2  C   -0.266885
     3  H    0.334814
 Sum of APT charges =   0.00000
 APT charges with hydrogens summed into heavy atoms:
               1
     1  N   -0.067929
     2  C    0.067929
 Electronic spatial extent (au):  <R**2>=             41.8587
 Charge=              0.0000 electrons
 Dipole moment (field-independent basis, Debye):
    X=             -1.5332    Y=              0.1815    Z=              0.0000  Tot=              1.5439
 Quadrupole moment (field-independent basis, Debye-Ang):
   XX=             -9.2736   YY=            -14.0812   ZZ=            -11.6562
   XY=             -0.4867   XZ=              0.0000   YZ=              0.0000
 Traceless Quadrupole moment (field-independent basis, Debye-Ang):
   XX=              2.3967   YY=             -2.4109   ZZ=              0.0141
   XY=             -0.4867   XZ=              0.0000   YZ=              0.0000
 Octapole moment (field-independent basis, Debye-Ang**2):
  XXX=             -3.0098  YYY=             -2.6240  ZZZ=              0.0000  XYY=             -0.4011
  XXY=             -0.3900  XXZ=              0.0000  XZZ=             -0.3813  YZZ=             -0.5969
  YYZ=              0.0000  XYZ=              0.0000
 Hexadecapole moment (field-independent basis, Debye-Ang**3):
 XXXX=            -11.7099 YYYY=            -36.5951 ZZZZ=            -11.5534 XXXY=             -0.3120
 XXXZ=              0.0000 YYYX=              0.4239 YYYZ=              0.0000 ZZZX=              0.0000
 ZZZY=              0.0000 XXYY=             -7.8709 XXZZ=             -4.3156 YYZZ=             -7.5865
 XXYZ=              0.0000 YYXZ=              0.0000 ZZXY=              0.1390
 N-N= 2.785163425768D+01 E-N=-2.737399028412D+02  KE= 9.398518758700D+01
 Symmetry A'   KE= 9.096397864950D+01
 Symmetry A"   KE= 3.021208937503D+00
  Exact polarizability:   0.000   0.000   0.000   0.000   0.000   0.000
 Approx polarizability:  12.143   0.384  15.541   0.000   0.000   9.862
 Calling FoFJK, ICntrl=    100147 FMM=F ISym2X=1 I1Cent= 0 IOpClX= 0 NMat=1 NMatS=1 NMatT=0.
 ***** Axes restored to original set *****
 -------------------------------------------------------------------
 Center     Atomic                   Forces (Hartrees/Bohr)
 Number     Number              X              Y              Z
 -------------------------------------------------------------------
      1        7          -0.015835690    0.000000000   -0.658438038
      2        6          -0.011066646    0.000000000    0.648563496
      3        1           0.026902336    0.000000000    0.009874543
 -------------------------------------------------------------------
 Cartesian Forces:  Max     0.658438038 RMS     0.308287337
 FormGI is forming the generalized inverse of G from B-inverse, IUseBI=4.

 GradGradGradGradGradGradGradGradGradGradGradGradGradGradGradGradGradGrad
 Berny optimization.
 Internal  Forces:  Max     0.658438042 RMS     0.380810610
 Search for a saddle point.
 Step number   1 out of a maximum of   20
 All quantities printed in internal units (Hartrees-Bohrs-Radians)
 Swapping is turned off.
 Second derivative matrix not updated -- analytic derivatives used.
 The second derivative matrix:
                          R1        R2        A1
           R1           3.34536
           R2          -0.03048   0.37793
           A1           0.06200   0.11057  -0.17808
 ITU=  0
     Eigenvalues ---   -0.20052   0.39899   3.34673
 Eigenvectors required to have negative eigenvalues:
                          A1        R2        R1
   1                    0.98186  -0.18867  -0.01879
 RFO step:  Lambda0=7.560905830D-04 Lambda=-1.27064909D-01.
 Linear search not attempted -- option 19 set.
 Iteration  1 RMS(Cart)=  0.08193865 RMS(Int)=  0.00138745
 Iteration  2 RMS(Cart)=  0.00176003 RMS(Int)=  0.00000099
 Iteration  3 RMS(Cart)=  0.00000064 RMS(Int)=  0.00000000
 ClnCor:  largest displacement from symmetrization is 2.22D-16 for atom     2.
 Variable       Old X    -DE/DX   Delta X   Delta X   Delta X     New X
                                 (Linear)    (Quad)   (Total)
    R1        1.88973   0.65844   0.00000   0.19110   0.19110   2.08083
    R2        2.07870   0.02478   0.00000   0.07331   0.07331   2.15201
    A1        1.39626   0.02993   0.00000  -0.04468  -0.04468   1.35158
         Item               Value     Threshold  Converged?
 Maximum Force            0.658438     0.000015     NO 
 RMS     Force            0.380811     0.000010     NO 
 Maximum Displacement     0.096729     0.000060     NO 
 RMS     Displacement     0.081621     0.000040     NO 
 Predicted change in Energy=-6.570284D-02
 GradGradGradGradGradGradGradGradGradGradGradGradGradGradGradGradGradGrad

                          Input orientation:                          
 ---------------------------------------------------------------------
 Center     Atomic      Atomic             Coordinates (Angstroms)
 Number     Number       Type             X           Y           Z
 ---------------------------------------------------------------------
      1          7           0       -0.004728    0.000000   -0.051187
      2          6           0       -0.012639    0.000000    1.049912
      3          1           0        1.100655    0.000000    0.810262
 ---------------------------------------------------------------------
                    Distance matrix (angstroms):
                    1          2          3
     1  N    0.000000
     2  C    1.101127   0.000000
     3  H    1.401415   1.138796   0.000000
 Stoichiometry    CHN
 Framework group  CS[SG(CHN)]
 Deg. of freedom     3
 Full point group                 CS      NOp   2
 Largest Abelian subgroup         CS      NOp   2
 Largest concise Abelian subgroup C1      NOp   1
                         Standard orientation:                         
 ---------------------------------------------------------------------
 Center     Atomic      Atomic             Coordinates (Angstroms)
 Number     Number       Type             X           Y           Z
 ---------------------------------------------------------------------
      1          7           0        0.079396   -0.532875    0.000000
      2          6           0        0.079396    0.568252    0.000000
      3          1           0       -1.032147    0.320610    0.000000
 ---------------------------------------------------------------------
 Rotational constants (GHZ):    428.9207324     63.3984864     55.2343362
 Standard basis: 6-311++G(d,p) (5D, 7F)
 There are    40 symmetry adapted cartesian basis functions of A'  symmetry.
 There are    13 symmetry adapted cartesian basis functions of A"  symmetry.
 There are    38 symmetry adapted basis functions of A'  symmetry.
 There are    13 symmetry adapted basis functions of A"  symmetry.
    51 basis functions,    81 primitive gaussians,    53 cartesian basis functions
     7 alpha electrons        7 beta electrons
       nuclear repulsion energy        25.6155688429 Hartrees.
 NAtoms=    3 NActive=    3 NUniq=    3 SFac= 1.00D+00 NAtFMM=   60 NAOKFM=F Big=F
 Integral buffers will be    131072 words long.
 Raffenetti 1 integral format.
 Two-electron integral symmetry is turned on.
 One-electron integrals computed using PRISM.
 NBasis=    51 RedAO= T EigKep=  1.75D-03  NBF=    38    13
 NBsUse=    51 1.00D-06 EigRej= -1.00D+00 NBFU=    38    13
 Initial guess from the checkpoint file:  "HNCts6311ppGss.chk"
 B after Tr=     0.000000    0.000000    0.000000
         Rot=    0.999999    0.000000    0.000000   -0.001181 Ang=  -0.14 deg.
 Initial guess orbital symmetries:
       Occupied  (A') (A') (A') (A') (A') (A") (A')
       Virtual   (A') (A') (A') (A') (A') (A') (A') (A') (A') (A')
                 (A') (A') (A') (A') (A') (A') (A') (A') (A') (A')
                 (A') (A') (A') (A') (A') (A') (A') (A') (A') (A')
                 (A') (A') (A") (A") (A") (A") (A") (A") (A") (A")
                 (A") (A") (A") (A")
 ExpMin= 3.60D-02 ExpMax= 6.29D+03 ExpMxC= 9.49D+02 IAcc=3 IRadAn=         5 AccDes= 0.00D+00
 Harris functional with IExCor=  205 and IRadAn=       5 diagonalized for initial guess.
 HarFok:  IExCor=  205 AccDes= 0.00D+00 IRadAn=         5 IDoV= 1 UseB2=F ITyADJ=14
 ICtDFT=  3500011 ScaDFX=  1.000000  1.000000  1.000000  1.000000
 FoFCou: FMM=F IPFlag=           0 FMFlag=      100000 FMFlg1=           0
         NFxFlg=           0 DoJE=T BraDBF=F KetDBF=T FulRan=T
         wScrn=  0.000000 ICntrl=     500 IOpCl=  0 I1Cent=   200000004 NGrid=           0
         NMat0=    1 NMatS0=      1 NMatT0=    0 NMatD0=    1 NMtDS0=    0 NMtDT0=    0
 Petite list used in FoFCou.
 Keep R1 ints in memory in symmetry-blocked form, NReq=1745547.
 Requested convergence on RMS density matrix=1.00D-08 within 128 cycles.
 Requested convergence on MAX density matrix=1.00D-06.
 Requested convergence on             energy=1.00D-06.
 No special actions if energy rises.
 SCF Done:  E(RHF) =  -92.8125092188     A.U. after   13 cycles
            NFock= 13  Conv=0.80D-08     -V/T= 1.9960
 Calling FoFJK, ICntrl=      2127 FMM=F ISym2X=1 I1Cent= 0 IOpClX= 0 NMat=1 NMatS=1 NMatT=0.
 ***** Axes restored to original set *****
 -------------------------------------------------------------------
 Center     Atomic                   Forces (Hartrees/Bohr)
 Number     Number              X              Y              Z
 -------------------------------------------------------------------
      1        7          -0.000521925    0.000000000   -0.180332342
      2        6          -0.009508680    0.000000000    0.180693876
      3        1           0.010030605    0.000000000   -0.000361534
 -------------------------------------------------------------------
 Cartesian Forces:  Max     0.180693876 RMS     0.085219626

 GradGradGradGradGradGradGradGradGradGradGradGradGradGradGradGradGradGrad
 Berny optimization.
 FormGI is forming the generalized inverse of G from B-inverse, IUseBI=4.
 Internal  Forces:  Max     0.180323943 RMS     0.104289154
 Search for a saddle point.
 Step number   2 out of a maximum of   20
 All quantities printed in internal units (Hartrees-Bohrs-Radians)
 Swapping is turned off.
 Update second derivatives using D2CorX and points    1    2
 The second derivative matrix:
                          R1        R2        A1
           R1           2.53369
           R2          -0.04798   0.39040
           A1           0.05736   0.10197  -0.17249
 ITU=  0  0
     Eigenvalues ---   -0.19193   0.40765   2.53588
 Eigenvectors required to have negative eigenvalues:
                          A1        R2        R1
   1                    0.98440  -0.17433  -0.02378
 RFO step:  Lambda0=2.728359084D-05 Lambda=-1.31623337D-02.
 Linear search not attempted -- option 19 set.
 Iteration  1 RMS(Cart)=  0.04185100 RMS(Int)=  0.00034471
 Iteration  2 RMS(Cart)=  0.00042045 RMS(Int)=  0.00000007
 Iteration  3 RMS(Cart)=  0.00000006 RMS(Int)=  0.00000000
 ClnCor:  largest displacement from symmetrization is 9.93D-16 for atom     3.
 Variable       Old X    -DE/DX   Delta X   Delta X   Delta X     New X
                                 (Linear)    (Quad)   (Total)
    R1        2.08083   0.18032   0.00000   0.07091   0.07091   2.15174
    R2        2.15201   0.00988   0.00000   0.02810   0.02810   2.18011
    A1        1.35158   0.00378   0.00000   0.01880   0.01880   1.37038
         Item               Value     Threshold  Converged?
 Maximum Force            0.180324     0.000015     NO 
 RMS     Force            0.104289     0.000010     NO 
 Maximum Displacement     0.047816     0.000060     NO 
 RMS     Displacement     0.042097     0.000040     NO 
 Predicted change in Energy=-6.607197D-03
 GradGradGradGradGradGradGradGradGradGradGradGradGradGradGradGradGradGrad

                          Input orientation:                          
 ---------------------------------------------------------------------
 Center     Atomic      Atomic             Coordinates (Angstroms)
 Number     Number       Type             X           Y           Z
 ---------------------------------------------------------------------
      1          7           0       -0.021252    0.000000   -0.076490
      2          6           0       -0.012073    0.000000    1.062123
      3          1           0        1.116613    0.000000    0.823354
 ---------------------------------------------------------------------
                    Distance matrix (angstroms):
                    1          2          3
     1  N    0.000000
     2  C    1.138650   0.000000
     3  H    1.450674   1.153665   0.000000
 Stoichiometry    CHN
 Framework group  CS[SG(CHN)]
 Deg. of freedom     3
 Full point group                 CS      NOp   2
 Largest Abelian subgroup         CS      NOp   2
 Largest concise Abelian subgroup C1      NOp   1
                         Standard orientation:                         
 ---------------------------------------------------------------------
 Center     Atomic      Atomic             Coordinates (Angstroms)
 Number     Number       Type             X           Y           Z
 ---------------------------------------------------------------------
      1          7           0        0.080755   -0.552920    0.000000
      2          6           0        0.080755    0.585729    0.000000
      3          1           0       -1.049819    0.356066    0.000000
 ---------------------------------------------------------------------
 Rotational constants (GHZ):    415.6390330     59.1410689     51.7741510
 Standard basis: 6-311++G(d,p) (5D, 7F)
 There are    40 symmetry adapted cartesian basis functions of A'  symmetry.
 There are    13 symmetry adapted cartesian basis functions of A"  symmetry.
 There are    38 symmetry adapted basis functions of A'  symmetry.
 There are    13 symmetry adapted basis functions of A"  symmetry.
    51 basis functions,    81 primitive gaussians,    53 cartesian basis functions
     7 alpha electrons        7 beta electrons
       nuclear repulsion energy        24.8247397825 Hartrees.
 NAtoms=    3 NActive=    3 NUniq=    3 SFac= 1.00D+00 NAtFMM=   60 NAOKFM=F Big=F
 Integral buffers will be    131072 words long.
 Raffenetti 1 integral format.
 Two-electron integral symmetry is turned on.
 One-electron integrals computed using PRISM.
 NBasis=    51 RedAO= T EigKep=  1.89D-03  NBF=    38    13
 NBsUse=    51 1.00D-06 EigRej= -1.00D+00 NBFU=    38    13
 Initial guess from the checkpoint file:  "HNCts6311ppGss.chk"
 B after Tr=     0.000000    0.000000    0.000000
         Rot=    0.999995    0.000000    0.000000    0.003119 Ang=   0.36 deg.
 Initial guess orbital symmetries:
       Occupied  (A') (A') (A') (A') (A') (A") (A')
       Virtual   (A') (A') (A') (A') (A') (A') (A') (A') (A') (A')
                 (A') (A') (A') (A') (A') (A') (A') (A') (A') (A')
                 (A') (A') (A') (A') (A') (A') (A') (A') (A') (A')
                 (A') (A') (A") (A") (A") (A") (A") (A") (A") (A")
                 (A") (A") (A") (A")
 ExpMin= 3.60D-02 ExpMax= 6.29D+03 ExpMxC= 9.49D+02 IAcc=3 IRadAn=         5 AccDes= 0.00D+00
 Harris functional with IExCor=  205 and IRadAn=       5 diagonalized for initial guess.
 HarFok:  IExCor=  205 AccDes= 0.00D+00 IRadAn=         5 IDoV= 1 UseB2=F ITyADJ=14
 ICtDFT=  3500011 ScaDFX=  1.000000  1.000000  1.000000  1.000000
 FoFCou: FMM=F IPFlag=           0 FMFlag=      100000 FMFlg1=           0
         NFxFlg=           0 DoJE=T BraDBF=F KetDBF=T FulRan=T
         wScrn=  0.000000 ICntrl=     500 IOpCl=  0 I1Cent=   200000004 NGrid=           0
         NMat0=    1 NMatS0=      1 NMatT0=    0 NMatD0=    1 NMtDS0=    0 NMtDT0=    0
 Petite list used in FoFCou.
 Keep R1 ints in memory in symmetry-blocked form, NReq=1745518.
 Requested convergence on RMS density matrix=1.00D-08 within 128 cycles.
 Requested convergence on MAX density matrix=1.00D-06.
 Requested convergence on             energy=1.00D-06.
 No special actions if energy rises.
 SCF Done:  E(RHF) =  -92.8212028621     A.U. after   12 cycles
            NFock= 12  Conv=0.25D-08     -V/T= 1.9987
 Calling FoFJK, ICntrl=      2127 FMM=F ISym2X=1 I1Cent= 0 IOpClX= 0 NMat=1 NMatS=1 NMatT=0.
 ***** Axes restored to original set *****
 -------------------------------------------------------------------
 Center     Atomic                   Forces (Hartrees/Bohr)
 Number     Number              X              Y              Z
 -------------------------------------------------------------------
      1        7          -0.001070443    0.000000000   -0.064016440
      2        6           0.000282376    0.000000000    0.063623893
      3        1           0.000788066    0.000000000    0.000392548
 -------------------------------------------------------------------
 Cartesian Forces:  Max     0.064016440 RMS     0.030088952

 GradGradGradGradGradGradGradGradGradGradGradGradGradGradGradGradGradGrad
 Berny optimization.
 FormGI is forming the generalized inverse of G from B-inverse, IUseBI=4.
 Internal  Forces:  Max     0.064022990 RMS     0.036972250
 Search for a saddle point.
 Step number   3 out of a maximum of   20
 All quantities printed in internal units (Hartrees-Bohrs-Radians)
 Swapping is turned off.
 Update second derivatives using D2CorX and points    1    2    3
 The second derivative matrix:
                          R1        R2        A1
           R1           1.65371
           R2          -0.05972   0.40558
           A1           0.03823   0.10801  -0.16791
 ITU=  0  0  0
     Eigenvalues ---   -0.18885   0.42307   1.65717
 Eigenvectors required to have negative eigenvalues:
                          A1        R2        R1
   1                   -0.98308   0.18127   0.02627
 RFO step:  Lambda0=2.131748373D-06 Lambda=-2.49309692D-03.
 Linear search not attempted -- option 19 set.
 Iteration  1 RMS(Cart)=  0.01932574 RMS(Int)=  0.00007243
 Iteration  2 RMS(Cart)=  0.00009282 RMS(Int)=  0.00000000
 Iteration  3 RMS(Cart)=  0.00000000 RMS(Int)=  0.00000000
 ClnCor:  largest displacement from symmetrization is 9.16D-16 for atom     3.
 Variable       Old X    -DE/DX   Delta X   Delta X   Delta X     New X
                                 (Linear)    (Quad)   (Total)
    R1        2.15174   0.06402   0.00000   0.03874   0.03874   2.19048
    R2        2.18011   0.00069   0.00000   0.00589   0.00589   2.18600
    A1        1.37038   0.00119   0.00000   0.00554   0.00554   1.37592
         Item               Value     Threshold  Converged?
 Maximum Force            0.064023     0.000015     NO 
 RMS     Force            0.036972     0.000010     NO 
 Maximum Displacement     0.024332     0.000060     NO 
 RMS     Displacement     0.019373     0.000040     NO 
 Predicted change in Energy=-1.247424D-03
 GradGradGradGradGradGradGradGradGradGradGradGradGradGradGradGradGradGrad

                          Input orientation:                          
 ---------------------------------------------------------------------
 Center     Atomic      Atomic             Coordinates (Angstroms)
 Number     Number       Type             X           Y           Z
 ---------------------------------------------------------------------
      1          7           0       -0.027603    0.000000   -0.089366
      2          6           0       -0.010258    0.000000    1.069655
      3          1           0        1.121150    0.000000    0.828697
 ---------------------------------------------------------------------
                    Distance matrix (angstroms):
                    1          2          3
     1  N    0.000000
     2  C    1.159150   0.000000
     3  H    1.470535   1.156782   0.000000
 Stoichiometry    CHN
 Framework group  CS[SG(CHN)]
 Deg. of freedom     3
 Full point group                 CS      NOp   2
 Largest Abelian subgroup         CS      NOp   2
 Largest concise Abelian subgroup C1      NOp   1
                         Standard orientation:                         
 ---------------------------------------------------------------------
 Center     Atomic      Atomic             Coordinates (Angstroms)
 Number     Number       Type             X           Y           Z
 ---------------------------------------------------------------------
      1          7           0        0.081063   -0.563575    0.000000
      2          6           0        0.081063    0.595575    0.000000
      3          1           0       -1.053823    0.371575    0.000000
 ---------------------------------------------------------------------
 Rotational constants (GHZ):    412.8547311     57.0166737     50.0979699
 Standard basis: 6-311++G(d,p) (5D, 7F)
 There are    40 symmetry adapted cartesian basis functions of A'  symmetry.
 There are    13 symmetry adapted cartesian basis functions of A"  symmetry.
 There are    38 symmetry adapted basis functions of A'  symmetry.
 There are    13 symmetry adapted basis functions of A"  symmetry.
    51 basis functions,    81 primitive gaussians,    53 cartesian basis functions
     7 alpha electrons        7 beta electrons
       nuclear repulsion energy        24.4376217142 Hartrees.
 NAtoms=    3 NActive=    3 NUniq=    3 SFac= 1.00D+00 NAtFMM=   60 NAOKFM=F Big=F
 Integral buffers will be    131072 words long.
 Raffenetti 1 integral format.
 Two-electron integral symmetry is turned on.
 One-electron integrals computed using PRISM.
 NBasis=    51 RedAO= T EigKep=  1.95D-03  NBF=    38    13
 NBsUse=    51 1.00D-06 EigRej= -1.00D+00 NBFU=    38    13
 Initial guess from the checkpoint file:  "HNCts6311ppGss.chk"
 B after Tr=     0.000000    0.000000    0.000000
         Rot=    0.999999    0.000000    0.000000    0.001429 Ang=   0.16 deg.
 Initial guess orbital symmetries:
       Occupied  (A') (A') (A') (A') (A') (A") (A')
       Virtual   (A') (A') (A') (A') (A') (A') (A') (A') (A') (A')
                 (A') (A') (A') (A') (A') (A') (A') (A') (A') (A')
                 (A') (A') (A') (A') (A') (A') (A') (A') (A') (A')
                 (A') (A') (A") (A") (A") (A") (A") (A") (A") (A")
                 (A") (A") (A") (A")
 ExpMin= 3.60D-02 ExpMax= 6.29D+03 ExpMxC= 9.49D+02 IAcc=3 IRadAn=         5 AccDes= 0.00D+00
 Harris functional with IExCor=  205 and IRadAn=       5 diagonalized for initial guess.
 HarFok:  IExCor=  205 AccDes= 0.00D+00 IRadAn=         5 IDoV= 1 UseB2=F ITyADJ=14
 ICtDFT=  3500011 ScaDFX=  1.000000  1.000000  1.000000  1.000000
 FoFCou: FMM=F IPFlag=           0 FMFlag=      100000 FMFlg1=           0
         NFxFlg=           0 DoJE=T BraDBF=F KetDBF=T FulRan=T
         wScrn=  0.000000 ICntrl=     500 IOpCl=  0 I1Cent=   200000004 NGrid=           0
         NMat0=    1 NMatS0=      1 NMatT0=    0 NMatD0=    1 NMtDS0=    0 NMtDT0=    0
 Petite list used in FoFCou.
 Keep R1 ints in memory in symmetry-blocked form, NReq=1745503.
 Requested convergence on RMS density matrix=1.00D-08 within 128 cycles.
 Requested convergence on MAX density matrix=1.00D-06.
 Requested convergence on             energy=1.00D-06.
 No special actions if energy rises.
 SCF Done:  E(RHF) =  -92.8226426083     A.U. after   11 cycles
            NFock= 11  Conv=0.89D-08     -V/T= 2.0000
 Calling FoFJK, ICntrl=      2127 FMM=F ISym2X=1 I1Cent= 0 IOpClX= 0 NMat=1 NMatS=1 NMatT=0.
 ***** Axes restored to original set *****
 -------------------------------------------------------------------
 Center     Atomic                   Forces (Hartrees/Bohr)
 Number     Number              X              Y              Z
 -------------------------------------------------------------------
      1        7          -0.000320692    0.000000000   -0.011298226
      2        6           0.001187476    0.000000000    0.010958312
      3        1          -0.000866784    0.000000000    0.000339913
 -------------------------------------------------------------------
 Cartesian Forces:  Max     0.011298226 RMS     0.005271668

 GradGradGradGradGradGradGradGradGradGradGradGradGradGradGradGradGradGrad
 Berny optimization.
 FormGI is forming the generalized inverse of G from B-inverse, IUseBI=4.
 Internal  Forces:  Max     0.011301759 RMS     0.006549397
 Search for a saddle point.
 Step number   4 out of a maximum of   20
 All quantities printed in internal units (Hartrees-Bohrs-Radians)
 Swapping is turned off.
 Update second derivatives using D2CorX and points    1    2    3    4
 The second derivative matrix:
                          R1        R2        A1
           R1           1.36230
           R2          -0.03637   0.40527
           A1           0.02866   0.11377  -0.16606
 ITU=  0  0  0  0
     Eigenvalues ---   -0.18867   0.42612   1.36407
 Eigenvectors required to have negative eigenvalues:
                          A1        R2        R1
   1                   -0.98164   0.18942   0.02258
 RFO step:  Lambda0=3.174529654D-07 Lambda=-9.46552884D-05.
 Linear search not attempted -- option 19 set.
 Iteration  1 RMS(Cart)=  0.00347954 RMS(Int)=  0.00000271
 Iteration  2 RMS(Cart)=  0.00000219 RMS(Int)=  0.00000000
 Iteration  3 RMS(Cart)=  0.00000000 RMS(Int)=  0.00000000
 ClnCor:  largest displacement from symmetrization is 3.33D-16 for atom     1.
 Variable       Old X    -DE/DX   Delta X   Delta X   Delta X     New X
                                 (Linear)    (Quad)   (Total)
    R1        2.19048   0.01130   0.00000   0.00829   0.00829   2.19877
    R2        2.18600  -0.00092   0.00000  -0.00114  -0.00114   2.18486
    A1        1.37592   0.00033   0.00000  -0.00135  -0.00135   1.37457
         Item               Value     Threshold  Converged?
 Maximum Force            0.011302     0.000015     NO 
 RMS     Force            0.006549     0.000010     NO 
 Maximum Displacement     0.004281     0.000060     NO 
 RMS     Displacement     0.003480     0.000040     NO 
 Predicted change in Energy=-4.716892D-05
 GradGradGradGradGradGradGradGradGradGradGradGradGradGradGradGradGradGrad

                          Input orientation:                          
 ---------------------------------------------------------------------
 Center     Atomic      Atomic             Coordinates (Angstroms)
 Number     Number       Type             X           Y           Z
 ---------------------------------------------------------------------
      1          7           0       -0.027686    0.000000   -0.091631
      2          6           0       -0.009698    0.000000    1.071769
      3          1           0        1.120672    0.000000    0.828849
 ---------------------------------------------------------------------
                    Distance matrix (angstroms):
                    1          2          3
     1  N    0.000000
     2  C    1.163539   0.000000
     3  H    1.471736   1.156177   0.000000
 Stoichiometry    CHN
 Framework group  CS[SG(CHN)]
 Deg. of freedom     3
 Full point group                 CS      NOp   2
 Largest Abelian subgroup         CS      NOp   2
 Largest concise Abelian subgroup C1      NOp   1
                         Standard orientation:                         
 ---------------------------------------------------------------------
 Center     Atomic      Atomic             Coordinates (Angstroms)
 Number     Number       Type             X           Y           Z
 ---------------------------------------------------------------------
      1          7           0        0.080999   -0.565668    0.000000
      2          6           0        0.080999    0.597871    0.000000
      3          1           0       -1.052991    0.372455    0.000000
 ---------------------------------------------------------------------
 Rotational constants (GHZ):    413.4717212     56.5923288     49.7790197
 Standard basis: 6-311++G(d,p) (5D, 7F)
 There are    40 symmetry adapted cartesian basis functions of A'  symmetry.
 There are    13 symmetry adapted cartesian basis functions of A"  symmetry.
 There are    38 symmetry adapted basis functions of A'  symmetry.
 There are    13 symmetry adapted basis functions of A"  symmetry.
    51 basis functions,    81 primitive gaussians,    53 cartesian basis functions
     7 alpha electrons        7 beta electrons
       nuclear repulsion energy        24.3646796227 Hartrees.
 NAtoms=    3 NActive=    3 NUniq=    3 SFac= 1.00D+00 NAtFMM=   60 NAOKFM=F Big=F
 Integral buffers will be    131072 words long.
 Raffenetti 1 integral format.
 Two-electron integral symmetry is turned on.
 One-electron integrals computed using PRISM.
 NBasis=    51 RedAO= T EigKep=  1.96D-03  NBF=    38    13
 NBsUse=    51 1.00D-06 EigRej= -1.00D+00 NBFU=    38    13
 Initial guess from the checkpoint file:  "HNCts6311ppGss.chk"
 B after Tr=     0.000000    0.000000    0.000000
         Rot=    1.000000    0.000000    0.000000    0.000117 Ang=   0.01 deg.
 Initial guess orbital symmetries:
       Occupied  (A') (A') (A') (A') (A') (A") (A')
       Virtual   (A') (A') (A') (A') (A') (A') (A') (A') (A') (A')
                 (A') (A') (A') (A') (A') (A') (A') (A') (A') (A')
                 (A') (A') (A') (A') (A') (A') (A') (A') (A') (A')
                 (A') (A') (A") (A") (A") (A") (A") (A") (A") (A")
                 (A") (A") (A") (A")
 Keep R1 ints in memory in symmetry-blocked form, NReq=1745503.
 Requested convergence on RMS density matrix=1.00D-08 within 128 cycles.
 Requested convergence on MAX density matrix=1.00D-06.
 Requested convergence on             energy=1.00D-06.
 No special actions if energy rises.
 SCF Done:  E(RHF) =  -92.8226936106     A.U. after   11 cycles
            NFock= 11  Conv=0.21D-08     -V/T= 2.0002
 Calling FoFJK, ICntrl=      2127 FMM=F ISym2X=1 I1Cent= 0 IOpClX= 0 NMat=1 NMatS=1 NMatT=0.
 ***** Axes restored to original set *****
 -------------------------------------------------------------------
 Center     Atomic                   Forces (Hartrees/Bohr)
 Number     Number              X              Y              Z
 -------------------------------------------------------------------
      1        7          -0.000020068    0.000000000   -0.000936613
      2        6           0.000304251    0.000000000    0.000869792
      3        1          -0.000284182    0.000000000    0.000066821
 -------------------------------------------------------------------
 Cartesian Forces:  Max     0.000936613 RMS     0.000448699

 GradGradGradGradGradGradGradGradGradGradGradGradGradGradGradGradGradGrad
 Berny optimization.
 FormGI is forming the generalized inverse of G from B-inverse, IUseBI=4.
 Internal  Forces:  Max     0.000936811 RMS     0.000566557
 Search for a saddle point.
 Step number   5 out of a maximum of   20
 All quantities printed in internal units (Hartrees-Bohrs-Radians)
 Swapping is turned off.
 Update second derivatives using D2CorX and points    2    3    4    5
 The second derivative matrix:
                          R1        R2        A1
           R1           1.25380
           R2          -0.00280   0.39421
           A1           0.02705   0.11323  -0.16641
 ITU=  0  0  0  0
     Eigenvalues ---   -0.18892   0.41621   1.25432
 Eigenvectors required to have negative eigenvalues:
                          A1        R2        R1
   1                   -0.98147   0.19067   0.01877
 RFO step:  Lambda0=1.329717089D-08 Lambda=-8.97828687D-07.
 Linear search not attempted -- option 19 set.
 Iteration  1 RMS(Cart)=  0.00049919 RMS(Int)=  0.00000010
 Iteration  2 RMS(Cart)=  0.00000008 RMS(Int)=  0.00000000
 ClnCor:  largest displacement from symmetrization is 1.67D-16 for atom     1.
 Variable       Old X    -DE/DX   Delta X   Delta X   Delta X     New X
                                 (Linear)    (Quad)   (Total)
    R1        2.19877   0.00094   0.00000   0.00075   0.00075   2.19952
    R2        2.18486  -0.00029   0.00000  -0.00063  -0.00063   2.18423
    A1        1.37457   0.00001   0.00000  -0.00038  -0.00038   1.37420
         Item               Value     Threshold  Converged?
 Maximum Force            0.000937     0.000015     NO 
 RMS     Force            0.000567     0.000010     NO 
 Maximum Displacement     0.000527     0.000060     NO 
 RMS     Displacement     0.000499     0.000040     NO 
 Predicted change in Energy=-4.422658D-07
 GradGradGradGradGradGradGradGradGradGradGradGradGradGradGradGradGradGrad

                          Input orientation:                          
 ---------------------------------------------------------------------
 Center     Atomic      Atomic             Coordinates (Angstroms)
 Number     Number       Type             X           Y           Z
 ---------------------------------------------------------------------
      1          7           0       -0.027540    0.000000   -0.091784
      2          6           0       -0.009565    0.000000    1.072015
      3          1           0        1.120393    0.000000    0.828756
 ---------------------------------------------------------------------
                    Distance matrix (angstroms):
                    1          2          3
     1  N    0.000000
     2  C    1.163938   0.000000
     3  H    1.471443   1.155845   0.000000
 Stoichiometry    CHN
 Framework group  CS[SG(CHN)]
 Deg. of freedom     3
 Full point group                 CS      NOp   2
 Largest Abelian subgroup         CS      NOp   2
 Largest concise Abelian subgroup C1      NOp   1
                         Standard orientation:                         
 ---------------------------------------------------------------------
 Center     Atomic      Atomic             Coordinates (Angstroms)
 Number     Number       Type             X           Y           Z
 ---------------------------------------------------------------------
      1          7           0        0.080970   -0.565842    0.000000
      2          6           0        0.080970    0.598096    0.000000
      3          1           0       -1.052610    0.372317    0.000000
 ---------------------------------------------------------------------
 Rotational constants (GHZ):    413.7572878     56.5554344     49.7546038
 Standard basis: 6-311++G(d,p) (5D, 7F)
 There are    40 symmetry adapted cartesian basis functions of A'  symmetry.
 There are    13 symmetry adapted cartesian basis functions of A"  symmetry.
 There are    38 symmetry adapted basis functions of A'  symmetry.
 There are    13 symmetry adapted basis functions of A"  symmetry.
    51 basis functions,    81 primitive gaussians,    53 cartesian basis functions
     7 alpha electrons        7 beta electrons
       nuclear repulsion energy        24.3594221121 Hartrees.
 NAtoms=    3 NActive=    3 NUniq=    3 SFac= 1.00D+00 NAtFMM=   60 NAOKFM=F Big=F
 Integral buffers will be    131072 words long.
 Raffenetti 1 integral format.
 Two-electron integral symmetry is turned on.
 One-electron integrals computed using PRISM.
 NBasis=    51 RedAO= T EigKep=  1.96D-03  NBF=    38    13
 NBsUse=    51 1.00D-06 EigRej= -1.00D+00 NBFU=    38    13
 Initial guess from the checkpoint file:  "HNCts6311ppGss.chk"
 B after Tr=     0.000000    0.000000    0.000000
         Rot=    1.000000    0.000000    0.000000    0.000000 Ang=   0.00 deg.
 Initial guess orbital symmetries:
       Occupied  (A') (A') (A') (A') (A') (A") (A')
       Virtual   (A') (A') (A') (A') (A') (A') (A') (A') (A') (A')
                 (A') (A') (A') (A') (A') (A') (A') (A') (A') (A')
                 (A') (A') (A') (A') (A') (A') (A') (A') (A') (A')
                 (A') (A') (A") (A") (A") (A") (A") (A") (A") (A")
                 (A") (A") (A") (A")
 Keep R1 ints in memory in symmetry-blocked form, NReq=1745503.
 Requested convergence on RMS density matrix=1.00D-08 within 128 cycles.
 Requested convergence on MAX density matrix=1.00D-06.
 Requested convergence on             energy=1.00D-06.
 No special actions if energy rises.
 SCF Done:  E(RHF) =  -92.8226940727     A.U. after    8 cycles
            NFock=  8  Conv=0.80D-08     -V/T= 2.0002
 Calling FoFJK, ICntrl=      2127 FMM=F ISym2X=1 I1Cent= 0 IOpClX= 0 NMat=1 NMatS=1 NMatT=0.
 ***** Axes restored to original set *****
 -------------------------------------------------------------------
 Center     Atomic                   Forces (Hartrees/Bohr)
 Number     Number              X              Y              Z
 -------------------------------------------------------------------
      1        7          -0.000000771    0.000000000   -0.000006995
      2        6           0.000055779    0.000000000   -0.000005531
      3        1          -0.000055007    0.000000000    0.000012527
 -------------------------------------------------------------------
 Cartesian Forces:  Max     0.000055779 RMS     0.000026613

 GradGradGradGradGradGradGradGradGradGradGradGradGradGradGradGradGradGrad
 Berny optimization.
 FormGI is forming the generalized inverse of G from B-inverse, IUseBI=4.
 Internal  Forces:  Max     0.000056411 RMS     0.000032830
 Search for a saddle point.
 Step number   6 out of a maximum of   20
 All quantities printed in internal units (Hartrees-Bohrs-Radians)
 Swapping is turned off.
 Update second derivatives using D2CorX and points    3    4    5    6
 The second derivative matrix:
                          R1        R2        A1
           R1           1.26418
           R2           0.02545   0.34412
           A1           0.01945   0.10337  -0.16134
 ITU=  0  0  0  0
     Eigenvalues ---   -0.18180   0.36353   1.26523
 Eigenvectors required to have negative eigenvalues:
                          A1        R2        R1
   1                   -0.98127   0.19238   0.00981
 RFO step:  Lambda0=8.209443125D-10 Lambda= 0.00000000D+00.
 Linear search not attempted -- option 19 set.
 Iteration  1 RMS(Cart)=  0.00010822 RMS(Int)=  0.00000000
 Iteration  2 RMS(Cart)=  0.00000000 RMS(Int)=  0.00000000
 ClnCor:  largest displacement from symmetrization is 2.78D-16 for atom     1.
 Variable       Old X    -DE/DX   Delta X   Delta X   Delta X     New X
                                 (Linear)    (Quad)   (Total)
    R1        2.19952   0.00001   0.00000   0.00001   0.00001   2.19953
    R2        2.18423  -0.00006   0.00000  -0.00014  -0.00014   2.18410
    A1        1.37420   0.00000   0.00000  -0.00010  -0.00010   1.37410
         Item               Value     Threshold  Converged?
 Maximum Force            0.000056     0.000015     NO 
 RMS     Force            0.000033     0.000010     NO 
 Maximum Displacement     0.000130     0.000060     NO 
 RMS     Displacement     0.000108     0.000040     NO 
 Predicted change in Energy=-3.803341D-09
 GradGradGradGradGradGradGradGradGradGradGradGradGradGradGradGradGradGrad

                          Input orientation:                          
 ---------------------------------------------------------------------
 Center     Atomic      Atomic             Coordinates (Angstroms)
 Number     Number       Type             X           Y           Z
 ---------------------------------------------------------------------
      1          7           0       -0.027488    0.000000   -0.091768
      2          6           0       -0.009547    0.000000    1.072037
      3          1           0        1.120324    0.000000    0.828719
 ---------------------------------------------------------------------
                    Distance matrix (angstroms):
                    1          2          3
     1  N    0.000000
     2  C    1.163943   0.000000
     3  H    1.471315   1.155773   0.000000
 Stoichiometry    CHN
 Framework group  CS[SG(CHN)]
 Deg. of freedom     3
 Full point group                 CS      NOp   2
 Largest Abelian subgroup         CS      NOp   2
 Largest concise Abelian subgroup C1      NOp   1
                         Standard orientation:                         
 ---------------------------------------------------------------------
 Center     Atomic      Atomic             Coordinates (Angstroms)
 Number     Number       Type             X           Y           Z
 ---------------------------------------------------------------------
      1          7           0        0.080963   -0.565838    0.000000
      2          6           0        0.080963    0.598105    0.000000
      3          1           0       -1.052524    0.372232    0.000000
 ---------------------------------------------------------------------
 Rotational constants (GHZ):    413.8204266     56.5554938     49.7555626
 Standard basis: 6-311++G(d,p) (5D, 7F)
 There are    40 symmetry adapted cartesian basis functions of A'  symmetry.
 There are    13 symmetry adapted cartesian basis functions of A"  symmetry.
 There are    38 symmetry adapted basis functions of A'  symmetry.
 There are    13 symmetry adapted basis functions of A"  symmetry.
    51 basis functions,    81 primitive gaussians,    53 cartesian basis functions
     7 alpha electrons        7 beta electrons
       nuclear repulsion energy        24.3597266632 Hartrees.
 NAtoms=    3 NActive=    3 NUniq=    3 SFac= 1.00D+00 NAtFMM=   60 NAOKFM=F Big=F
 Integral buffers will be    131072 words long.
 Raffenetti 1 integral format.
 Two-electron integral symmetry is turned on.
 One-electron integrals computed using PRISM.
 NBasis=    51 RedAO= T EigKep=  1.96D-03  NBF=    38    13
 NBsUse=    51 1.00D-06 EigRej= -1.00D+00 NBFU=    38    13
 Initial guess from the checkpoint file:  "HNCts6311ppGss.chk"
 B after Tr=     0.000000    0.000000    0.000000
         Rot=    1.000000    0.000000    0.000000   -0.000005 Ang=   0.00 deg.
 Initial guess orbital symmetries:
       Occupied  (A') (A') (A') (A') (A') (A") (A')
       Virtual   (A') (A') (A') (A') (A') (A') (A') (A') (A') (A')
                 (A') (A') (A') (A') (A') (A') (A') (A') (A') (A')
                 (A') (A') (A') (A') (A') (A') (A') (A') (A') (A')
                 (A') (A') (A") (A") (A") (A") (A") (A") (A") (A")
                 (A") (A") (A") (A")
 Keep R1 ints in memory in symmetry-blocked form, NReq=1745503.
 Requested convergence on RMS density matrix=1.00D-08 within 128 cycles.
 Requested convergence on MAX density matrix=1.00D-06.
 Requested convergence on             energy=1.00D-06.
 No special actions if energy rises.
 SCF Done:  E(RHF) =  -92.8226940769     A.U. after    7 cycles
            NFock=  7  Conv=0.59D-08     -V/T= 2.0002
 Calling FoFJK, ICntrl=      2127 FMM=F ISym2X=1 I1Cent= 0 IOpClX= 0 NMat=1 NMatS=1 NMatT=0.
 ***** Axes restored to original set *****
 -------------------------------------------------------------------
 Center     Atomic                   Forces (Hartrees/Bohr)
 Number     Number              X              Y              Z
 -------------------------------------------------------------------
      1        7          -0.000000327    0.000000000    0.000004890
      2        6           0.000006430    0.000000000   -0.000006616
      3        1          -0.000006102    0.000000000    0.000001726
 -------------------------------------------------------------------
 Cartesian Forces:  Max     0.000006616 RMS     0.000004074

 GradGradGradGradGradGradGradGradGradGradGradGradGradGradGradGradGradGrad
 Berny optimization.
 FormGI is forming the generalized inverse of G from B-inverse, IUseBI=4.
 Internal  Forces:  Max     0.000006330 RMS     0.000004644
 Search for a saddle point.
 Step number   7 out of a maximum of   20
 All quantities printed in internal units (Hartrees-Bohrs-Radians)
 Swapping is turned off.
 Update second derivatives using D2CorX and points    4    5    6    7
 The second derivative matrix:
                          R1        R2        A1
           R1           1.25903
           R2          -0.00342   0.29759
           A1           0.00888   0.10044  -0.14895
 ITU=  0  0  0  0
     Eigenvalues ---   -0.17056   0.31914   1.25909
 Eigenvectors required to have negative eigenvalues:
                          A1        R2        R1
   1                   -0.97772   0.20981   0.00657
 RFO step:  Lambda0=2.898416229D-11 Lambda= 0.00000000D+00.
 Linear search not attempted -- option 19 set.
 Iteration  1 RMS(Cart)=  0.00001710 RMS(Int)=  0.00000000
 Iteration  2 RMS(Cart)=  0.00000000 RMS(Int)=  0.00000000
 ClnCor:  largest displacement from symmetrization is 4.44D-16 for atom     3.
 Variable       Old X    -DE/DX   Delta X   Delta X   Delta X     New X
                                 (Linear)    (Quad)   (Total)
    R1        2.19953   0.00000   0.00000   0.00000   0.00000   2.19953
    R2        2.18410  -0.00001   0.00000  -0.00002  -0.00002   2.18408
    A1        1.37410   0.00000   0.00000  -0.00002  -0.00002   1.37408
         Item               Value     Threshold  Converged?
 Maximum Force            0.000006     0.000015     YES
 RMS     Force            0.000005     0.000010     YES
 Maximum Displacement     0.000018     0.000060     YES
 RMS     Displacement     0.000017     0.000040     YES
 Predicted change in Energy=-5.149736D-11
 Optimization completed.
    -- Stationary point found.
                           ----------------------------
                           !   Optimized Parameters   !
                           ! (Angstroms and Degrees)  !
 --------------------------                            --------------------------
 ! Name  Definition              Value          Derivative Info.                !
 --------------------------------------------------------------------------------
 ! R1    R(1,2)                  1.1639         -DE/DX =    0.0                 !
 ! R2    R(2,3)                  1.1558         -DE/DX =    0.0                 !
 ! A1    A(1,2,3)               78.7301         -DE/DX =    0.0                 !
 --------------------------------------------------------------------------------
 GradGradGradGradGradGradGradGradGradGradGradGradGradGradGradGradGradGrad

                          Input orientation:                          
 ---------------------------------------------------------------------
 Center     Atomic      Atomic             Coordinates (Angstroms)
 Number     Number       Type             X           Y           Z
 ---------------------------------------------------------------------
      1          7           0       -0.027488    0.000000   -0.091768
      2          6           0       -0.009547    0.000000    1.072037
      3          1           0        1.120324    0.000000    0.828719
 ---------------------------------------------------------------------
                    Distance matrix (angstroms):
                    1          2          3
     1  N    0.000000
     2  C    1.163943   0.000000
     3  H    1.471315   1.155773   0.000000
 Stoichiometry    CHN
 Framework group  CS[SG(CHN)]
 Deg. of freedom     3
 Full point group                 CS      NOp   2
 Largest Abelian subgroup         CS      NOp   2
 Largest concise Abelian subgroup C1      NOp   1
                         Standard orientation:                         
 ---------------------------------------------------------------------
 Center     Atomic      Atomic             Coordinates (Angstroms)
 Number     Number       Type             X           Y           Z
 ---------------------------------------------------------------------
      1          7           0        0.080963   -0.565838    0.000000
      2          6           0        0.080963    0.598105    0.000000
      3          1           0       -1.052524    0.372232    0.000000
 ---------------------------------------------------------------------
 Rotational constants (GHZ):    413.8204266     56.5554938     49.7555626

 **********************************************************************

            Population analysis using the SCF density.

 **********************************************************************

 Orbital symmetries:
       Occupied  (A') (A') (A') (A') (A') (A") (A')
       Virtual   (A') (A') (A') (A") (A') (A') (A") (A') (A') (A")
                 (A') (A') (A') (A') (A") (A') (A') (A') (A') (A")
                 (A') (A") (A') (A') (A") (A') (A') (A") (A') (A")
                 (A') (A') (A') (A") (A') (A") (A') (A') (A') (A")
                 (A') (A') (A') (A')
 The electronic state is 1-A'.
 Alpha  occ. eigenvalues --  -15.65260 -11.28896  -1.31431  -0.71755  -0.62580
 Alpha  occ. eigenvalues --   -0.53844  -0.49741
 Alpha virt. eigenvalues --    0.04386   0.08287   0.09467   0.09733   0.12346
 Alpha virt. eigenvalues --    0.16381   0.17382   0.20127   0.22479   0.25985
 Alpha virt. eigenvalues --    0.27013   0.34008   0.50011   0.57711   0.71594
 Alpha virt. eigenvalues --    0.76964   0.83251   0.91695   1.01691   1.02153
 Alpha virt. eigenvalues --    1.19163   1.24612   1.34229   1.48596   1.64595
 Alpha virt. eigenvalues --    1.73397   1.92210   2.03123   2.27017   2.32447
 Alpha virt. eigenvalues --    2.49798   2.64018   2.74765   2.84920   3.07661
 Alpha virt. eigenvalues --    3.20755   3.27690   3.43139   3.73124   4.31131
 Alpha virt. eigenvalues --    4.35151   4.95513  25.16565  37.01674
          Condensed to atoms (all electrons):
               1          2          3
     1  N    6.533919   0.404623   0.080916
     2  C    0.404623   5.577376   0.221041
     3  H    0.080916   0.221041   0.475544
 Mulliken charges:
               1
     1  N   -0.019458
     2  C   -0.203040
     3  H    0.222498
 Sum of Mulliken charges =   0.00000
 Mulliken charges with hydrogens summed into heavy atoms:
               1
     1  N   -0.019458
     2  C    0.019458
 Electronic spatial extent (au):  <R**2>=             47.6770
 Charge=              0.0000 electrons
 Dipole moment (field-independent basis, Debye):
    X=             -1.4694    Y=              0.2412    Z=              0.0000  Tot=              1.4890
 Quadrupole moment (field-independent basis, Debye-Ang):
   XX=             -9.8160   YY=            -14.5203   ZZ=            -12.3206
   XY=             -0.6820   XZ=              0.0000   YZ=              0.0000
 Traceless Quadrupole moment (field-independent basis, Debye-Ang):
   XX=              2.4030   YY=             -2.3013   ZZ=             -0.1016
   XY=             -0.6820   XZ=              0.0000   YZ=              0.0000
 Octapole moment (field-independent basis, Debye-Ang**2):
  XXX=             -3.0319  YYY=             -3.0623  ZZZ=              0.0000  XYY=             -0.6108
  XXY=             -0.4865  XXZ=              0.0000  XZZ=             -0.4190  YZZ=             -0.4959
  YYZ=              0.0000  XYZ=              0.0000
 Hexadecapole moment (field-independent basis, Debye-Ang**3):
 XXXX=            -13.2362 YYYY=            -44.2901 ZZZZ=            -12.8742 XXXY=             -0.5597
 XXXZ=              0.0000 YYYX=              0.2521 YYYZ=              0.0000 ZZZX=              0.0000
 ZZZY=              0.0000 XXYY=             -9.2071 XXZZ=             -4.8230 YYZZ=             -9.0109
 XXYZ=              0.0000 YYXZ=              0.0000 ZZXY=              0.1299
 N-N= 2.435972666321D+01 E-N=-2.658998989421D+02  KE= 9.280519101446D+01
 Symmetry A'   KE= 8.995395138859D+01
 Symmetry A"   KE= 2.851239625869D+00
 B after Tr=     0.035814    0.000000    0.024797
         Rot=    0.999992    0.000000    0.003976    0.000000 Ang=   0.46 deg.
 Final structure in terms of initial Z-matrix:
 N
 C,1,B1
 H,2,B2,1,A1
      Variables:
 B1=1.16394317
 B2=1.15577347
 A1=78.73014143
 1\1\GINC-TC-NODE166\FTS\RHF\6-311++G(d,p)\C1H1N1\MAXB2\27-Sep-2016\0\\
 # opt=(calcfc,ts,tight) RHF/6-311++g** gfp\\HNC-HCN\\0,1\N,-0.03124981
 28,0.,-0.0912886291\C,-0.013308482,0.,1.0725162554\H,1.1165625714,0.,0
 .8291981176\\Version=ES64L-G09RevD.01\State=1-A'\HF=-92.8226941\RMSD=5
 .866e-09\RMSF=4.074e-06\Dipole=0.5794875,0.,0.0859692\Quadrupole=1.801
 3461,-0.0755553,-1.7257908,0.,0.4529069,0.\PG=CS [SG(C1H1N1)]\\@


 THERE'S NOTHING SO GREAT AS THE GREAT OUTDOORS.

                                       -- ZIGGY
 Job cpu time:       0 days  0 hours  0 minutes 36.5 seconds.
 File lengths (MBytes):  RWF=     82 Int=      0 D2E=      0 Chk=      2 Scr=      1
 Normal termination of Gaussian 09 at Tue Sep 27 11:51:10 2016.
