 Entering Link 1 = C:\G09W\l1.exe PID=      6668.
  
 Copyright (c) 1988,1990,1992,1993,1995,1998,2003,2009,2015,
            Gaussian, Inc.  All Rights Reserved.
  
 This is part of the Gaussian(R) 09 program.  It is based on
 the Gaussian(R) 03 system (copyright 2003, Gaussian, Inc.),
 the Gaussian(R) 98 system (copyright 1998, Gaussian, Inc.),
 the Gaussian(R) 94 system (copyright 1995, Gaussian, Inc.),
 the Gaussian 92(TM) system (copyright 1992, Gaussian, Inc.),
 the Gaussian 90(TM) system (copyright 1990, Gaussian, Inc.),
 the Gaussian 88(TM) system (copyright 1988, Gaussian, Inc.),
 the Gaussian 86(TM) system (copyright 1986, Carnegie Mellon
 University), and the Gaussian 82(TM) system (copyright 1983,
 Carnegie Mellon University). Gaussian is a federally registered
 trademark of Gaussian, Inc.
  
 This software contains proprietary and confidential information,
 including trade secrets, belonging to Gaussian, Inc.
  
 This software is provided under written license and may be
 used, copied, transmitted, or stored only in accord with that
 written license.
  
 The following legend is applicable only to US Government
 contracts under FAR:
  
                    RESTRICTED RIGHTS LEGEND
  
 Use, reproduction and disclosure by the US Government is
 subject to restrictions as set forth in subparagraphs (a)
 and (c) of the Commercial Computer Software - Restricted
 Rights clause in FAR 52.227-19.
  
 Gaussian, Inc.
 340 Quinnipiac St., Bldg. 40, Wallingford CT 06492
  
  
 ---------------------------------------------------------------
 Warning -- This program may not be used in any manner that
 competes with the business of Gaussian, Inc. or will provide
 assistance to any competitor of Gaussian, Inc.  The licensee
 of this program is prohibited from giving any competitor of
 Gaussian, Inc. access to this program.  By using this program,
 the user acknowledges that Gaussian, Inc. is engaged in the
 business of creating and licensing software in the field of
 computational chemistry and represents and warrants to the
 licensee that it is not a competitor of Gaussian, Inc. and that
 it will not use this program in any manner prohibited above.
 ---------------------------------------------------------------
  

 Cite this work as:
 Gaussian 09, Revision E.01,
 M. J. Frisch, G. W. Trucks, H. B. Schlegel, G. E. Scuseria, 
 M. A. Robb, J. R. Cheeseman, G. Scalmani, V. Barone, B. Mennucci, 
 G. A. Petersson, H. Nakatsuji, M. Caricato, X. Li, H. P. Hratchian, 
 A. F. Izmaylov, J. Bloino, G. Zheng, J. L. Sonnenberg, M. Hada, 
 M. Ehara, K. Toyota, R. Fukuda, J. Hasegawa, M. Ishida, T. Nakajima, 
 Y. Honda, O. Kitao, H. Nakai, T. Vreven, J. A. Montgomery, Jr., 
 J. E. Peralta, F. Ogliaro, M. Bearpark, J. J. Heyd, E. Brothers, 
 K. N. Kudin, V. N. Staroverov, T. Keith, R. Kobayashi, J. Normand, 
 K. Raghavachari, A. Rendell, J. C. Burant, S. S. Iyengar, J. Tomasi, 
 M. Cossi, N. Rega, J. M. Millam, M. Klene, J. E. Knox, J. B. Cross, 
 V. Bakken, C. Adamo, J. Jaramillo, R. Gomperts, R. E. Stratmann, 
 O. Yazyev, A. J. Austin, R. Cammi, C. Pomelli, J. W. Ochterski, 
 R. L. Martin, K. Morokuma, V. G. Zakrzewski, G. A. Voth, 
 P. Salvador, J. J. Dannenberg, S. Dapprich, A. D. Daniels, 
 O. Farkas, J. B. Foresman, J. V. Ortiz, J. Cioslowski, 
 and D. J. Fox, Gaussian, Inc., Wallingford CT, 2013.
 
 ******************************************
 Gaussian 09:  EM64W-G09RevE.01 30-Nov-2015
                30-Sep-2016 
 ******************************************
 %chk=C:\Users\maxb2\Desktop\formaldehyde.chk
 ----------------------------------------
 # opt hf/6-311++g(d,p) geom=connectivity
 ----------------------------------------
 1/18=20,19=15,38=1,57=2/1,3;
 2/9=110,12=2,17=6,18=5,40=1/2;
 3/5=4,6=6,7=1111,11=9,16=1,25=1,30=1,71=1/1,2,3;
 4//1;
 5/5=2,38=5/2;
 6/7=2,8=2,9=2,10=2,28=1/1;
 7//1,2,3,16;
 1/18=20,19=15/3(2);
 2/9=110/2;
 99//99;
 2/9=110/2;
 3/5=4,6=6,7=1111,11=9,16=1,25=1,30=1,71=1/1,2,3;
 4/5=5,16=3,69=1/1;
 5/5=2,38=5/2;
 7//1,2,3,16;
 1/18=20,19=15/3(-5);
 2/9=110/2;
 6/7=2,8=2,9=2,10=2,19=2,28=1/1;
 99/9=1/99;
 -------------------
 Title Card Required
 -------------------
 Symbolic Z-matrix:
 Charge =  0 Multiplicity = 1
 C
 O                    1    B1
 H                    1    B2       2    A1
 H                    1    B3       2    A2       3    D1       0
       Variables:
  B1                    1.22732                  
  B2                    1.11046                  
  B3                    1.11046                  
  A1                  122.22492                  
  A2                  122.22492                  
  D1                 -179.99762                  
 

 GradGradGradGradGradGradGradGradGradGradGradGradGradGradGradGradGradGrad
 Berny optimization.
 Initialization pass.
                           ----------------------------
                           !    Initial Parameters    !
                           ! (Angstroms and Degrees)  !
 --------------------------                            --------------------------
 ! Name  Definition              Value          Derivative Info.                !
 --------------------------------------------------------------------------------
 ! R1    R(1,2)                  1.2273         estimate D2E/DX2                !
 ! R2    R(1,3)                  1.1105         estimate D2E/DX2                !
 ! R3    R(1,4)                  1.1105         estimate D2E/DX2                !
 ! A1    A(2,1,3)              122.2249         estimate D2E/DX2                !
 ! A2    A(2,1,4)              122.2249         estimate D2E/DX2                !
 ! A3    A(3,1,4)              115.5502         estimate D2E/DX2                !
 ! D1    D(2,1,4,3)            179.9978         estimate D2E/DX2                !
 --------------------------------------------------------------------------------
 Trust Radius=3.00D-01 FncErr=1.00D-07 GrdErr=1.00D-07
 Number of steps in this run=     20 maximum allowed number of steps=    100.
 GradGradGradGradGradGradGradGradGradGradGradGradGradGradGradGradGradGrad

                          Input orientation:                          
 ---------------------------------------------------------------------
 Center     Atomic      Atomic             Coordinates (Angstroms)
 Number     Number       Type             X           Y           Z
 ---------------------------------------------------------------------
      1          6           0        0.000000    0.000000    0.000000
      2          8           0        0.000000    0.000000    1.227317
      3          1           0        0.939404    0.000000   -0.592145
      4          1           0       -0.939404    0.000039   -0.592145
 ---------------------------------------------------------------------
                    Distance matrix (angstroms):
                    1          2          3          4
     1  C    0.000000
     2  O    1.227317   0.000000
     3  H    1.110457   2.047663   0.000000
     4  H    1.110457   2.047663   1.878808   0.000000
 Stoichiometry    CH2O
 Framework group  CS[SG(CO),X(H2)]
 Deg. of freedom     4
 Full point group                 CS      NOp   2
 Largest Abelian subgroup         CS      NOp   2
 Largest concise Abelian subgroup CS      NOp   2
                         Standard orientation:                         
 ---------------------------------------------------------------------
 Center     Atomic      Atomic             Coordinates (Angstroms)
 Number     Number       Type             X           Y           Z
 ---------------------------------------------------------------------
      1          6           0       -0.000002   -0.539640    0.000000
      2          8           0       -0.000002    0.687677    0.000000
      3          1           0        0.000017   -1.131785    0.939404
      4          1           0        0.000017   -1.131785   -0.939404
 ---------------------------------------------------------------------
 Rotational constants (GHZ):    284.1170188     37.5107865     33.1359810
 Standard basis: 6-311++G(d,p) (5D, 7F)
 There are    41 symmetry adapted cartesian basis functions of A'  symmetry.
 There are    19 symmetry adapted cartesian basis functions of A"  symmetry.
 There are    39 symmetry adapted basis functions of A'  symmetry.
 There are    19 symmetry adapted basis functions of A"  symmetry.
    58 basis functions,    90 primitive gaussians,    60 cartesian basis functions
     8 alpha electrons        8 beta electrons
       nuclear repulsion energy        30.8309745418 Hartrees.
 NAtoms=    4 NActive=    4 NUniq=    3 SFac= 1.78D+00 NAtFMM=   60 NAOKFM=F Big=F
 Integral buffers will be    131072 words long.
 Raffenetti 1 integral format.
 Two-electron integral symmetry is turned on.
 One-electron integrals computed using PRISM.
 NBasis=    58 RedAO= T EigKep=  3.22D-03  NBF=    39    19
 NBsUse=    58 1.00D-06 EigRej= -1.00D+00 NBFU=    39    19
 ExpMin= 3.60D-02 ExpMax= 8.59D+03 ExpMxC= 1.30D+03 IAcc=3 IRadAn=         5 AccDes= 0.00D+00
 Harris functional with IExCor=  205 and IRadAn=       5 diagonalized for initial guess.
 HarFok:  IExCor=  205 AccDes= 0.00D+00 IRadAn=         5 IDoV= 1 UseB2=F ITyADJ=14
 ICtDFT=  3500011 ScaDFX=  1.000000  1.000000  1.000000  1.000000
 FoFCou: FMM=F IPFlag=           0 FMFlag=      100000 FMFlg1=           0
         NFxFlg=           0 DoJE=T BraDBF=F KetDBF=T FulRan=T
         wScrn=  0.000000 ICntrl=     500 IOpCl=  0 I1Cent=   200000004 NGrid=           0
         NMat0=    1 NMatS0=      1 NMatT0=    0 NMatD0=    1 NMtDS0=    0 NMtDT0=    0
 Petite list used in FoFCou.
 Initial guess orbital symmetries:
       Occupied  (A') (A') (A') (A') (A") (A') (A') (A")
       Virtual   (A') (A') (A') (A") (A') (A') (A") (A') (A") (A')
                 (A') (A') (A") (A') (A") (A') (A') (A') (A") (A')
                 (A') (A") (A') (A") (A') (A') (A") (A') (A") (A')
                 (A') (A") (A') (A") (A') (A") (A') (A') (A") (A')
                 (A') (A') (A") (A") (A') (A') (A") (A') (A') (A')
 The electronic state of the initial guess is 1-A'.
 Keep R1 ints in memory in symmetry-blocked form, NReq=2338449.
 Requested convergence on RMS density matrix=1.00D-08 within 128 cycles.
 Requested convergence on MAX density matrix=1.00D-06.
 Requested convergence on             energy=1.00D-06.
 No special actions if energy rises.
 SCF Done:  E(RHF) =  -113.898411918     A.U. after   11 cycles
            NFock= 11  Conv=0.66D-08     -V/T= 2.0024

 **********************************************************************

            Population analysis using the SCF density.

 **********************************************************************

 Orbital symmetries:
       Occupied  (A') (A') (A') (A') (A") (A') (A') (A")
       Virtual   (A') (A") (A') (A') (A') (A") (A') (A') (A') (A")
                 (A') (A') (A") (A') (A') (A") (A') (A") (A') (A')
                 (A") (A') (A') (A") (A') (A") (A') (A') (A") (A')
                 (A') (A") (A') (A") (A") (A') (A') (A') (A") (A')
                 (A') (A') (A") (A") (A') (A') (A") (A') (A') (A')
 The electronic state is 1-A'.
 Alpha  occ. eigenvalues --  -20.58226 -11.35220  -1.39707  -0.87418  -0.68967
 Alpha  occ. eigenvalues --   -0.64902  -0.52968  -0.44646
 Alpha virt. eigenvalues --    0.04043   0.06429   0.07080   0.09872   0.15408
 Alpha virt. eigenvalues --    0.15990   0.16259   0.24362   0.27949   0.29644
 Alpha virt. eigenvalues --    0.32169   0.38749   0.38842   0.50867   0.62462
 Alpha virt. eigenvalues --    0.62875   0.69803   0.82446   0.85427   1.01752
 Alpha virt. eigenvalues --    1.23828   1.26232   1.32092   1.39320   1.50470
 Alpha virt. eigenvalues --    1.65826   1.66954   1.70056   1.87327   1.99298
 Alpha virt. eigenvalues --    2.01333   2.10957   2.48363   2.69587   2.74691
 Alpha virt. eigenvalues --    2.75766   2.94085   3.01802   3.24561   3.27143
 Alpha virt. eigenvalues --    3.70462   3.76342   3.84249   4.06865   4.28935
 Alpha virt. eigenvalues --    5.53969   5.63837   6.19008  24.98976  51.59995
          Condensed to atoms (all electrons):
               1          2          3          4
     1  C    4.671363   0.439643   0.387165   0.387165
     2  O    0.439643   7.990134  -0.059426  -0.059426
     3  H    0.387165  -0.059426   0.680873  -0.106742
     4  H    0.387165  -0.059426  -0.106742   0.680873
 Mulliken charges:
               1
     1  C    0.114665
     2  O   -0.310924
     3  H    0.098130
     4  H    0.098130
 Sum of Mulliken charges =   0.00000
 Mulliken charges with hydrogens summed into heavy atoms:
               1
     1  C    0.310924
     2  O   -0.310924
 Electronic spatial extent (au):  <R**2>=             61.5946
 Charge=              0.0000 electrons
 Dipole moment (field-independent basis, Debye):
    X=              0.0000    Y=             -3.0573    Z=              0.0000  Tot=              3.0573
 Quadrupole moment (field-independent basis, Debye-Ang):
   XX=            -11.8170   YY=            -12.1776   ZZ=            -11.5057
   XY=              0.0000   XZ=              0.0000   YZ=              0.0000
 Traceless Quadrupole moment (field-independent basis, Debye-Ang):
   XX=              0.0164   YY=             -0.3442   ZZ=              0.3277
   XY=              0.0000   XZ=              0.0000   YZ=              0.0000
 Octapole moment (field-independent basis, Debye-Ang**2):
  XXX=              0.0000  YYY=             -0.5597  ZZZ=              0.0000  XYY=              0.0000
  XXY=              0.3805  XXZ=              0.0000  XZZ=              0.0000  YZZ=             -0.9756
  YYZ=              0.0000  XYZ=              0.0000
 Hexadecapole moment (field-independent basis, Debye-Ang**3):
 XXXX=            -10.6025 YYYY=            -46.4123 ZZZZ=            -17.6416 XXXY=              0.0001
 XXXZ=              0.0000 YYYX=              0.0001 YYYZ=              0.0000 ZZZX=              0.0000
 ZZZY=              0.0000 XXYY=             -9.5845 XXZZ=             -5.0645 YYZZ=            -10.0991
 XXYZ=              0.0000 YYXZ=              0.0000 ZZXY=              0.0000
 N-N= 3.083097454179D+01 E-N=-3.300446563343D+02  KE= 1.136269401572D+02
 Symmetry A'   KE= 1.069505872631D+02
 Symmetry A"   KE= 6.676352894138D+00
 Calling FoFJK, ICntrl=      2127 FMM=F ISym2X=1 I1Cent= 0 IOpClX= 0 NMat=1 NMatS=1 NMatT=0.
 ***** Axes restored to original set *****
 -------------------------------------------------------------------
 Center     Atomic                   Forces (Hartrees/Bohr)
 Number     Number              X              Y              Z
 -------------------------------------------------------------------
      1        6           0.000000000    0.000005351    0.065280438
      2        8           0.000000000   -0.000001532   -0.084786778
      3        1          -0.009697461   -0.000001708    0.009753170
      4        1           0.009697461   -0.000002111    0.009753170
 -------------------------------------------------------------------
 Cartesian Forces:  Max     0.084786778 RMS     0.031396209

 GradGradGradGradGradGradGradGradGradGradGradGradGradGradGradGradGradGrad
 Berny optimization.
 FormGI is forming the generalized inverse of G from B-inverse, IUseBI=4.
 Internal  Forces:  Max     0.084786778 RMS     0.032898116
 Search for a local minimum.
 Step number   1 out of a maximum of   20
 All quantities printed in internal units (Hartrees-Bohrs-Radians)
 Mixed Optimization -- RFO/linear search
 Second derivative matrix not updated -- first step.
 The second derivative matrix:
                          R1        R2        R3        A1        A2
           R1           0.92213
           R2           0.00000   0.32552
           R3           0.00000   0.00000   0.32552
           A1           0.00000   0.00000   0.00000   0.16000
           A2           0.00000   0.00000   0.00000   0.00000   0.16000
           A3           0.00000   0.00000   0.00000   0.00000   0.00000
           D1           0.00000   0.00000   0.00000   0.00000   0.00000
                          A3        D1
           A3           0.16000
           D1           0.00000   0.00230
 ITU=  0
     Eigenvalues ---    0.00230   0.16000   0.16000   0.32552   0.32552
     Eigenvalues ---    0.92213
 RFO step:  Lambda=-8.95999645D-03 EMin= 2.30000006D-03
 Linear search not attempted -- first point.
 Iteration  1 RMS(Cart)=  0.04296588 RMS(Int)=  0.00024651
 Iteration  2 RMS(Cart)=  0.00025393 RMS(Int)=  0.00000004
 Iteration  3 RMS(Cart)=  0.00000003 RMS(Int)=  0.00000001
 ClnCor:  largest displacement from symmetrization is 2.78D-10 for atom     4.
 Variable       Old X    -DE/DX   Delta X   Delta X   Delta X     New X
                                 (Linear)    (Quad)   (Total)
    R1        2.31929  -0.08479   0.00000  -0.09106  -0.09106   2.22823
    R2        2.09846  -0.01340   0.00000  -0.04008  -0.04008   2.05838
    R3        2.09846  -0.01340   0.00000  -0.04008  -0.04008   2.05838
    A1        2.13323  -0.00215   0.00000  -0.01275  -0.01275   2.12048
    A2        2.13323  -0.00215   0.00000  -0.01275  -0.01275   2.12048
    A3        2.01673   0.00431   0.00000   0.02550   0.02550   2.04223
    D1        3.14155   0.00000   0.00000   0.00027   0.00027  -3.14136
         Item               Value     Threshold  Converged?
 Maximum Force            0.084787     0.000450     NO 
 RMS     Force            0.032898     0.000300     NO 
 Maximum Displacement     0.090126     0.001800     NO 
 RMS     Displacement     0.042937     0.001200     NO 
 Predicted change in Energy=-4.535908D-03
 GradGradGradGradGradGradGradGradGradGradGradGradGradGradGradGradGradGrad

                          Input orientation:                          
 ---------------------------------------------------------------------
 Center     Atomic      Atomic             Coordinates (Angstroms)
 Number     Number       Type             X           Y           Z
 ---------------------------------------------------------------------
      1          6           0        0.000000    0.000067    0.000495
      2          8           0        0.000000   -0.000021    1.179624
      3          1           0        0.928794   -0.000023   -0.568546
      4          1           0       -0.928794    0.000016   -0.568546
 ---------------------------------------------------------------------
                    Distance matrix (angstroms):
                    1          2          3          4
     1  C    0.000000
     2  O    1.179129   0.000000
     3  H    1.089250   1.979585   0.000000
     4  H    1.089250   1.979585   1.857588   0.000000
 Stoichiometry    CH2O
 Framework group  CS[SG(CO),X(H2)]
 Deg. of freedom     4
 Full point group                 CS      NOp   2
 Largest Abelian subgroup         CS      NOp   2
 Largest concise Abelian subgroup CS      NOp   2
                         Standard orientation:                         
 ---------------------------------------------------------------------
 Center     Atomic      Atomic             Coordinates (Angstroms)
 Number     Number       Type             X           Y           Z
 ---------------------------------------------------------------------
      1          6           0        0.000014   -0.518435    0.000000
      2          8           0        0.000014    0.660695    0.000000
      3          1           0       -0.000100   -1.087476    0.928794
      4          1           0       -0.000100   -1.087476   -0.928794
 ---------------------------------------------------------------------
 Rotational constants (GHZ):    290.6453612     40.6371339     35.6523350
 Standard basis: 6-311++G(d,p) (5D, 7F)
 There are    41 symmetry adapted cartesian basis functions of A'  symmetry.
 There are    19 symmetry adapted cartesian basis functions of A"  symmetry.
 There are    39 symmetry adapted basis functions of A'  symmetry.
 There are    19 symmetry adapted basis functions of A"  symmetry.
    58 basis functions,    90 primitive gaussians,    60 cartesian basis functions
     8 alpha electrons        8 beta electrons
       nuclear repulsion energy        31.9335105080 Hartrees.
 NAtoms=    4 NActive=    4 NUniq=    3 SFac= 1.78D+00 NAtFMM=   60 NAOKFM=F Big=F
 Integral buffers will be    131072 words long.
 Raffenetti 1 integral format.
 Two-electron integral symmetry is turned on.
 One-electron integrals computed using PRISM.
 NBasis=    58 RedAO= T EigKep=  2.90D-03  NBF=    39    19
 NBsUse=    58 1.00D-06 EigRej= -1.00D+00 NBFU=    39    19
 Initial guess from the checkpoint file:  "C:\Users\maxb2\Desktop\formaldehyde.chk"
 B after Tr=     0.000000    0.000000    0.000000
         Rot=    1.000000    0.000000    0.000000    0.000019 Ang=   0.00 deg.
 Initial guess orbital symmetries:
       Occupied  (A') (A') (A') (A') (A") (A') (A') (A")
       Virtual   (A') (A') (A') (A') (A') (A') (A') (A') (A') (A')
                 (A') (A') (A') (A') (A') (A') (A') (A') (A') (A')
                 (A') (A') (A') (A') (A') (A') (A') (A') (A') (A')
                 (A') (A') (A') (A") (A") (A") (A") (A") (A") (A")
                 (A") (A") (A") (A") (A") (A") (A") (A") (A") (A")
 ExpMin= 3.60D-02 ExpMax= 8.59D+03 ExpMxC= 1.30D+03 IAcc=3 IRadAn=         5 AccDes= 0.00D+00
 Harris functional with IExCor=  205 and IRadAn=       5 diagonalized for initial guess.
 HarFok:  IExCor=  205 AccDes= 0.00D+00 IRadAn=         5 IDoV= 1 UseB2=F ITyADJ=14
 ICtDFT=  3500011 ScaDFX=  1.000000  1.000000  1.000000  1.000000
 FoFCou: FMM=F IPFlag=           0 FMFlag=      100000 FMFlg1=           0
         NFxFlg=           0 DoJE=T BraDBF=F KetDBF=T FulRan=T
         wScrn=  0.000000 ICntrl=     500 IOpCl=  0 I1Cent=   200000004 NGrid=           0
         NMat0=    1 NMatS0=      1 NMatT0=    0 NMatD0=    1 NMtDS0=    0 NMtDT0=    0
 Petite list used in FoFCou.
 Keep R1 ints in memory in symmetry-blocked form, NReq=2338449.
 Requested convergence on RMS density matrix=1.00D-08 within 128 cycles.
 Requested convergence on MAX density matrix=1.00D-06.
 Requested convergence on             energy=1.00D-06.
 No special actions if energy rises.
 SCF Done:  E(RHF) =  -113.902812328     A.U. after   10 cycles
            NFock= 10  Conv=0.48D-08     -V/T= 2.0000
 Calling FoFJK, ICntrl=      2127 FMM=F ISym2X=1 I1Cent= 0 IOpClX= 0 NMat=1 NMatS=1 NMatT=0.
 ***** Axes restored to original set *****
 -------------------------------------------------------------------
 Center     Atomic                   Forces (Hartrees/Bohr)
 Number     Number              X              Y              Z
 -------------------------------------------------------------------
      1        6          -0.000000001   -0.000031002    0.003294593
      2        8           0.000000000    0.000010195    0.002942579
      3        1           0.001900160    0.000010364   -0.003118586
      4        1          -0.001900159    0.000010443   -0.003118586
 -------------------------------------------------------------------
 Cartesian Forces:  Max     0.003294593 RMS     0.001961861

 GradGradGradGradGradGradGradGradGradGradGradGradGradGradGradGradGradGrad
 Berny optimization.
 Using GEDIIS/GDIIS optimizer.
 FormGI is forming the generalized inverse of G from B-inverse, IUseBI=4.
 Internal  Forces:  Max     0.003249446 RMS     0.002318304
 Search for a local minimum.
 Step number   2 out of a maximum of   20
 All quantities printed in internal units (Hartrees-Bohrs-Radians)
 Mixed Optimization -- RFO/linear search
 Update second derivatives using D2CorX and points    1    2
 DE= -4.40D-03 DEPred=-4.54D-03 R= 9.70D-01
 TightC=F SS=  1.41D+00  RLast= 1.12D-01 DXNew= 5.0454D-01 3.3514D-01
 Trust test= 9.70D-01 RLast= 1.12D-01 DXMaxT set to 3.35D-01
 The second derivative matrix:
                          R1        R2        R3        A1        A2
           R1           0.92897
           R2           0.02877   0.33525
           R3           0.02877   0.00973   0.33525
           A1           0.01085   0.00273   0.00273   0.16067
           A2           0.01085   0.00273   0.00273   0.00067   0.16067
           A3          -0.02170  -0.00545  -0.00545  -0.00133  -0.00133
           D1          -0.00020  -0.00004  -0.00004  -0.00001  -0.00001
                          A3        D1
           A3           0.16266
           D1           0.00002   0.00230
 ITU=  1  0
 Use linear search instead of GDIIS.
     Eigenvalues ---    0.00230   0.16000   0.16271   0.32552   0.34248
     Eigenvalues ---    0.93275
 RFO step:  Lambda=-6.25940350D-05 EMin= 2.30000504D-03
 Quartic linear search produced a step of -0.05652.
 Iteration  1 RMS(Cart)=  0.00619667 RMS(Int)=  0.00003637
 Iteration  2 RMS(Cart)=  0.00003571 RMS(Int)=  0.00000487
 Iteration  3 RMS(Cart)=  0.00000000 RMS(Int)=  0.00000487
 ClnCor:  largest displacement from symmetrization is 1.11D-08 for atom     4.
 Variable       Old X    -DE/DX   Delta X   Delta X   Delta X     New X
                                 (Linear)    (Quad)   (Total)
    R1        2.22823   0.00294   0.00515  -0.00351   0.00164   2.22987
    R2        2.05838   0.00325   0.00227   0.00603   0.00830   2.06668
    R3        2.05838   0.00325   0.00227   0.00603   0.00830   2.06668
    A1        2.12048   0.00114   0.00072   0.00540   0.00611   2.12659
    A2        2.12048   0.00114   0.00072   0.00540   0.00611   2.12659
    A3        2.04223  -0.00229  -0.00144  -0.01080  -0.01225   2.02998
    D1       -3.14136  -0.00002  -0.00002  -0.00704  -0.00705   3.13477
         Item               Value     Threshold  Converged?
 Maximum Force            0.003249     0.000450     NO 
 RMS     Force            0.002318     0.000300     NO 
 Maximum Displacement     0.008774     0.001800     NO 
 RMS     Displacement     0.006204     0.001200     NO 
 Predicted change in Energy=-5.428220D-05
 GradGradGradGradGradGradGradGradGradGradGradGradGradGradGradGradGradGrad

                          Input orientation:                          
 ---------------------------------------------------------------------
 Center     Atomic      Atomic             Coordinates (Angstroms)
 Number     Number       Type             X           Y           Z
 ---------------------------------------------------------------------
      1          6           0        0.000000   -0.001674    0.004274
      2          8           0        0.000000    0.000546    1.184267
      3          1           0        0.929021    0.000564   -0.572757
      4          1           0       -0.929021    0.000603   -0.572757
 ---------------------------------------------------------------------
                    Distance matrix (angstroms):
                    1          2          3          4
     1  C    0.000000
     2  O    1.179996   0.000000
     3  H    1.093640   1.987514   0.000000
     4  H    1.093640   1.987514   1.858041   0.000000
 Stoichiometry    CH2O
 Framework group  CS[SG(CO),X(H2)]
 Deg. of freedom     4
 Full point group                 CS      NOp   2
 Largest Abelian subgroup         CS      NOp   2
 Largest concise Abelian subgroup CS      NOp   2
                         Standard orientation:                         
 ---------------------------------------------------------------------
 Center     Atomic      Atomic             Coordinates (Angstroms)
 Number     Number       Type             X           Y           Z
 ---------------------------------------------------------------------
      1          6           0       -0.000418   -0.517870    0.000000
      2          8           0       -0.000418    0.662126    0.000000
      3          1           0        0.002925   -1.094895    0.929021
      4          1           0        0.002925   -1.094895   -0.929021
 ---------------------------------------------------------------------
 Rotational constants (GHZ):    290.5008400     40.4621021     35.5154602
 Standard basis: 6-311++G(d,p) (5D, 7F)
 There are    41 symmetry adapted cartesian basis functions of A'  symmetry.
 There are    19 symmetry adapted cartesian basis functions of A"  symmetry.
 There are    39 symmetry adapted basis functions of A'  symmetry.
 There are    19 symmetry adapted basis functions of A"  symmetry.
    58 basis functions,    90 primitive gaussians,    60 cartesian basis functions
     8 alpha electrons        8 beta electrons
       nuclear repulsion energy        31.8771584872 Hartrees.
 NAtoms=    4 NActive=    4 NUniq=    3 SFac= 1.78D+00 NAtFMM=   60 NAOKFM=F Big=F
 Integral buffers will be    131072 words long.
 Raffenetti 1 integral format.
 Two-electron integral symmetry is turned on.
 One-electron integrals computed using PRISM.
 NBasis=    58 RedAO= T EigKep=  2.97D-03  NBF=    39    19
 NBsUse=    58 1.00D-06 EigRej= -1.00D+00 NBFU=    39    19
 Initial guess from the checkpoint file:  "C:\Users\maxb2\Desktop\formaldehyde.chk"
 B after Tr=     0.000000    0.000000    0.000000
         Rot=    1.000000    0.000000    0.000000   -0.000502 Ang=  -0.06 deg.
 Initial guess orbital symmetries:
       Occupied  (A') (A') (A') (A') (A") (A') (A') (A")
       Virtual   (A') (A') (A') (A') (A') (A') (A') (A') (A') (A')
                 (A') (A') (A') (A') (A') (A') (A') (A') (A') (A')
                 (A') (A') (A') (A') (A') (A') (A') (A') (A') (A')
                 (A') (A') (A') (A") (A") (A") (A") (A") (A") (A")
                 (A") (A") (A") (A") (A") (A") (A") (A") (A") (A")
 Keep R1 ints in memory in symmetry-blocked form, NReq=2338449.
 Requested convergence on RMS density matrix=1.00D-08 within 128 cycles.
 Requested convergence on MAX density matrix=1.00D-06.
 Requested convergence on             energy=1.00D-06.
 No special actions if energy rises.
 SCF Done:  E(RHF) =  -113.902869046     A.U. after    9 cycles
            NFock=  9  Conv=0.35D-08     -V/T= 2.0002
 Calling FoFJK, ICntrl=      2127 FMM=F ISym2X=1 I1Cent= 0 IOpClX= 0 NMat=1 NMatS=1 NMatT=0.
 ***** Axes restored to original set *****
 -------------------------------------------------------------------
 Center     Atomic                   Forces (Hartrees/Bohr)
 Number     Number              X              Y              Z
 -------------------------------------------------------------------
      1        6           0.000000019    0.000915046    0.001391651
      2        8          -0.000000006   -0.000302298   -0.000255800
      3        1           0.000079623   -0.000306376   -0.000567926
      4        1          -0.000079636   -0.000306373   -0.000567926
 -------------------------------------------------------------------
 Cartesian Forces:  Max     0.001391651 RMS     0.000560975

 GradGradGradGradGradGradGradGradGradGradGradGradGradGradGradGradGradGrad
 Berny optimization.
 Using GEDIIS/GDIIS optimizer.
 FormGI is forming the generalized inverse of G from B-inverse, IUseBI=4.
 Internal  Forces:  Max     0.000605053 RMS     0.000415861
 Search for a local minimum.
 Step number   3 out of a maximum of   20
 All quantities printed in internal units (Hartrees-Bohrs-Radians)
 Mixed Optimization -- En-DIIS/RFO-DIIS
 Update second derivatives using D2CorX and points    1    2    3
 DE= -5.67D-05 DEPred=-5.43D-05 R= 1.04D+00
 TightC=F SS=  1.41D+00  RLast= 2.04D-02 DXNew= 5.6363D-01 6.1107D-02
 Trust test= 1.04D+00 RLast= 2.04D-02 DXMaxT set to 3.35D-01
 The second derivative matrix:
                          R1        R2        R3        A1        A2
           R1           0.97116
           R2           0.05572   0.33238
           R3           0.05572   0.00687   0.33238
           A1           0.01553  -0.00420  -0.00420   0.15639
           A2           0.01546  -0.00428  -0.00428  -0.00364   0.15634
           A3          -0.03103   0.00847   0.00847   0.00726   0.00730
           D1          -0.01628  -0.01882  -0.01882  -0.00561  -0.00560
                          A3        D1
           A3           0.14543
           D1           0.01124   0.00628
 ITU=  1  1  0
 Use linear search instead of GDIIS.
     Eigenvalues ---    0.00250   0.13648   0.16000   0.32552   0.33309
     Eigenvalues ---    0.98277
 RFO step:  Lambda=-1.77494341D-04 EMin= 2.49906008D-03
 Quartic linear search produced a step of  0.14619.
 Iteration  1 RMS(Cart)=  0.04252560 RMS(Int)=  0.02155738
 Iteration  2 RMS(Cart)=  0.01180627 RMS(Int)=  0.00631537
 Iteration  3 RMS(Cart)=  0.00020163 RMS(Int)=  0.00631019
 Iteration  4 RMS(Cart)=  0.00000103 RMS(Int)=  0.00631019
 Iteration  5 RMS(Cart)=  0.00000001 RMS(Int)=  0.00631019
 ClnCor:  largest displacement from symmetrization is 2.34D-04 for atom     4.
 Variable       Old X    -DE/DX   Delta X   Delta X   Delta X     New X
                                 (Linear)    (Quad)   (Total)
    R1        2.22987  -0.00026   0.00024   0.00062   0.00086   2.23073
    R2        2.06668   0.00037   0.00121   0.01474   0.01587   2.08255
    R3        2.06668   0.00037   0.00121   0.01474   0.01587   2.08255
    A1        2.12659   0.00030   0.00089   0.01295   0.00421   2.13080
    A2        2.12659   0.00031   0.00089   0.01297   0.00421   2.13080
    A3        2.02998  -0.00061  -0.00179  -0.02436  -0.03555   1.99443
    D1        3.13477   0.00057  -0.00103   0.25361   0.25042  -2.89799
         Item               Value     Threshold  Converged?
 Maximum Force            0.000605     0.000450     NO 
 RMS     Force            0.000416     0.000300     NO 
 Maximum Displacement     0.118691     0.001800     NO 
 RMS     Displacement     0.052910     0.001200     NO 
 Predicted change in Energy=-7.612854D-05
 GradGradGradGradGradGradGradGradGradGradGradGradGradGradGradGradGradGrad

                          Input orientation:                          
 ---------------------------------------------------------------------
 Center     Atomic      Atomic             Coordinates (Angstroms)
 Number     Number       Type             X           Y           Z
 ---------------------------------------------------------------------
      1          6           0        0.000001    0.061134    0.012586
      2          8           0        0.000000   -0.020178    1.190234
      3          1           0        0.925668   -0.020480   -0.579836
      4          1           0       -0.925669   -0.020442   -0.579836
 ---------------------------------------------------------------------
                    Distance matrix (angstroms):
                    1          2          3          4
     1  C    0.000000
     2  O    1.180452   0.000000
     3  H    1.102036   1.997501   0.000000
     4  H    1.102036   1.997501   1.851337   0.000000
 Stoichiometry    CH2O
 Framework group  CS[SG(CO),X(H2)]
 Deg. of freedom     4
 Full point group                 CS      NOp   2
 Largest Abelian subgroup         CS      NOp   2
 Largest concise Abelian subgroup CS      NOp   2
                         Standard orientation:                         
 ---------------------------------------------------------------------
 Center     Atomic      Atomic             Coordinates (Angstroms)
 Number     Number       Type             X           Y           Z
 ---------------------------------------------------------------------
      1          6           0        0.015276   -0.517052    0.000000
      2          8           0        0.015276    0.663400    0.000000
      3          1           0       -0.106932   -1.102446    0.925668
      4          1           0       -0.106932   -1.102446   -0.925668
 ---------------------------------------------------------------------
 Rotational constants (GHZ):    289.0323853     40.2168033     35.4102457
 Standard basis: 6-311++G(d,p) (5D, 7F)
 There are    41 symmetry adapted cartesian basis functions of A'  symmetry.
 There are    19 symmetry adapted cartesian basis functions of A"  symmetry.
 There are    39 symmetry adapted basis functions of A'  symmetry.
 There are    19 symmetry adapted basis functions of A"  symmetry.
    58 basis functions,    90 primitive gaussians,    60 cartesian basis functions
     8 alpha electrons        8 beta electrons
       nuclear repulsion energy        31.8043418162 Hartrees.
 NAtoms=    4 NActive=    4 NUniq=    3 SFac= 1.78D+00 NAtFMM=   60 NAOKFM=F Big=F
 Integral buffers will be    131072 words long.
 Raffenetti 1 integral format.
 Two-electron integral symmetry is turned on.
 One-electron integrals computed using PRISM.
 NBasis=    58 RedAO= T EigKep=  3.06D-03  NBF=    39    19
 NBsUse=    58 1.00D-06 EigRej= -1.00D+00 NBFU=    39    19
 Initial guess from the checkpoint file:  "C:\Users\maxb2\Desktop\formaldehyde.chk"
 B after Tr=     0.000000    0.000000    0.000000
         Rot=    0.999834    0.000000    0.000000    0.018240 Ang=   2.09 deg.
 Initial guess orbital symmetries:
       Occupied  (A') (A') (A') (A') (A") (A') (A') (A")
       Virtual   (A') (A') (A') (A') (A') (A') (A') (A') (A') (A')
                 (A') (A') (A') (A') (A') (A') (A') (A') (A') (A')
                 (A') (A') (A') (A') (A') (A') (A') (A') (A') (A')
                 (A') (A') (A') (A") (A") (A") (A") (A") (A") (A")
                 (A") (A") (A") (A") (A") (A") (A") (A") (A") (A")
 ExpMin= 3.60D-02 ExpMax= 8.59D+03 ExpMxC= 1.30D+03 IAcc=3 IRadAn=         5 AccDes= 0.00D+00
 Harris functional with IExCor=  205 and IRadAn=       5 diagonalized for initial guess.
 HarFok:  IExCor=  205 AccDes= 0.00D+00 IRadAn=         5 IDoV= 1 UseB2=F ITyADJ=14
 ICtDFT=  3500011 ScaDFX=  1.000000  1.000000  1.000000  1.000000
 FoFCou: FMM=F IPFlag=           0 FMFlag=      100000 FMFlg1=           0
         NFxFlg=           0 DoJE=T BraDBF=F KetDBF=T FulRan=T
         wScrn=  0.000000 ICntrl=     500 IOpCl=  0 I1Cent=   200000004 NGrid=           0
         NMat0=    1 NMatS0=      1 NMatT0=    0 NMatD0=    1 NMtDS0=    0 NMtDT0=    0
 Petite list used in FoFCou.
 Keep R1 ints in memory in symmetry-blocked form, NReq=2338449.
 Requested convergence on RMS density matrix=1.00D-08 within 128 cycles.
 Requested convergence on MAX density matrix=1.00D-06.
 Requested convergence on             energy=1.00D-06.
 No special actions if energy rises.
 SCF Done:  E(RHF) =  -113.900219837     A.U. after   11 cycles
            NFock= 11  Conv=0.16D-08     -V/T= 2.0004
 Calling FoFJK, ICntrl=      2127 FMM=F ISym2X=1 I1Cent= 0 IOpClX= 0 NMat=1 NMatS=1 NMatT=0.
 ***** Axes restored to original set *****
 -------------------------------------------------------------------
 Center     Atomic                   Forces (Hartrees/Bohr)
 Number     Number              X              Y              Z
 -------------------------------------------------------------------
      1        6          -0.000000697   -0.033554485   -0.005846666
      2        8           0.000000228    0.010960477   -0.001888290
      3        1          -0.001854915    0.011297042    0.003867478
      4        1           0.001855384    0.011296965    0.003867478
 -------------------------------------------------------------------
 Cartesian Forces:  Max     0.033554485 RMS     0.011459447

 GradGradGradGradGradGradGradGradGradGradGradGradGradGradGradGradGradGrad
 Berny optimization.
 Using GEDIIS/GDIIS optimizer.
 FormGI is forming the generalized inverse of G from B-inverse, IUseBI=4.
 Internal  Forces:  Max     0.020671875 RMS     0.008527724
 Search for a local minimum.
 Step number   4 out of a maximum of   20
 All quantities printed in internal units (Hartrees-Bohrs-Radians)
 Mixed Optimization -- RFO/linear search
 Update second derivatives using D2CorX and points    1    2    4    3
 DE=  2.65D-03 DEPred=-7.61D-05 R=-3.48D+01
 Trust test=-3.48D+01 RLast= 2.54D-01 DXMaxT set to 1.68D-01
 The second derivative matrix:
                          R1        R2        R3        A1        A2
           R1           0.76258
           R2           0.04858   0.33623
           R3           0.04858   0.01071   0.33623
           A1           0.05925  -0.00078  -0.00078   0.14953
           A2           0.05793  -0.00360  -0.00360  -0.01177   0.14876
           A3          -0.00537   0.00523   0.00523  -0.00296   0.00050
           D1          -0.00200  -0.00200  -0.00200   0.00613  -0.00586
                          A3        D1
           A3           0.13948
           D1          -0.00484   0.08439
 ITU= -1  1  1  0
 Use linear search instead of GDIIS.
     Eigenvalues ---    0.08436   0.13522   0.16218   0.32552   0.33730
     Eigenvalues ---    0.77770
 RFO step:  Lambda=-3.38573470D-06 EMin= 8.43640475D-02
 Quartic linear search produced a step of -0.96806.
 Iteration  1 RMS(Cart)=  0.04236217 RMS(Int)=  0.01687911
 Iteration  2 RMS(Cart)=  0.00932819 RMS(Int)=  0.00017741
 Iteration  3 RMS(Cart)=  0.00011986 RMS(Int)=  0.00013035
 Iteration  4 RMS(Cart)=  0.00000000 RMS(Int)=  0.00013035
 ClnCor:  largest displacement from symmetrization is 4.42D-04 for atom     4.
 Variable       Old X    -DE/DX   Delta X   Delta X   Delta X     New X
                                 (Linear)    (Quad)   (Total)
    R1        2.23073  -0.00264  -0.00083  -0.00086  -0.00170   2.22903
    R2        2.08255  -0.00447  -0.01536   0.00081  -0.01471   2.06784
    R3        2.08255  -0.00447  -0.01536   0.00081  -0.01471   2.06784
    A1        2.13080  -0.00194  -0.00408   0.00160  -0.00202   2.12878
    A2        2.13080   0.00128  -0.00408   0.00227  -0.00202   2.12878
    A3        1.99443   0.00542   0.03442  -0.00358   0.03119   2.02562
    D1       -2.89799  -0.02067  -0.24243  -0.00145  -0.24386   3.14133
         Item               Value     Threshold  Converged?
 Maximum Force            0.020672     0.000450     NO 
 RMS     Force            0.008528     0.000300     NO 
 Maximum Displacement     0.115635     0.001800     NO 
 RMS     Displacement     0.051276     0.001200     NO 
 Predicted change in Energy=-2.433678D-05
 GradGradGradGradGradGradGradGradGradGradGradGradGradGradGradGradGradGrad

                          Input orientation:                          
 ---------------------------------------------------------------------
 Center     Atomic      Atomic             Coordinates (Angstroms)
 Number     Number       Type             X           Y           Z
 ---------------------------------------------------------------------
      1          6           0        0.000000   -0.000057    0.005648
      2          8           0        0.000000   -0.000073    1.185201
      3          1           0        0.928279    0.000060   -0.573737
      4          1           0       -0.928279    0.000098   -0.573737
 ---------------------------------------------------------------------
                    Distance matrix (angstroms):
                    1          2          3          4
     1  C    0.000000
     2  O    1.179553   0.000000
     3  H    1.094252   1.988860   0.000000
     4  H    1.094252   1.988860   1.856558   0.000000
 Stoichiometry    CH2O
 Framework group  CS[SG(CO),X(H2)]
 Deg. of freedom     4
 Full point group                 CS      NOp   2
 Largest Abelian subgroup         CS      NOp   2
 Largest concise Abelian subgroup CS      NOp   2
                         Standard orientation:                         
 ---------------------------------------------------------------------
 Center     Atomic      Atomic             Coordinates (Angstroms)
 Number     Number       Type             X           Y           Z
 ---------------------------------------------------------------------
      1          6           0       -0.000016   -0.517353    0.000000
      2          8           0       -0.000016    0.662200    0.000000
      3          1           0        0.000112   -1.096738    0.928279
      4          1           0        0.000112   -1.096738   -0.928279
 ---------------------------------------------------------------------
 Rotational constants (GHZ):    290.9679586     40.4532428     35.5155237
 Standard basis: 6-311++G(d,p) (5D, 7F)
 There are    41 symmetry adapted cartesian basis functions of A'  symmetry.
 There are    19 symmetry adapted cartesian basis functions of A"  symmetry.
 There are    39 symmetry adapted basis functions of A'  symmetry.
 There are    19 symmetry adapted basis functions of A"  symmetry.
    58 basis functions,    90 primitive gaussians,    60 cartesian basis functions
     8 alpha electrons        8 beta electrons
       nuclear repulsion energy        31.8793357994 Hartrees.
 NAtoms=    4 NActive=    4 NUniq=    3 SFac= 1.78D+00 NAtFMM=   60 NAOKFM=F Big=F
 Integral buffers will be    131072 words long.
 Raffenetti 1 integral format.
 Two-electron integral symmetry is turned on.
 One-electron integrals computed using PRISM.
 NBasis=    58 RedAO= T EigKep=  2.99D-03  NBF=    39    19
 NBsUse=    58 1.00D-06 EigRej= -1.00D+00 NBFU=    39    19
 Lowest energy guess from the checkpoint file:  "C:\Users\maxb2\Desktop\formaldehyde.chk"
 B after Tr=     0.000000    0.000000    0.000000
         Rot=    1.000000    0.000000    0.000000    0.000469 Ang=   0.05 deg.
 B after Tr=     0.000000    0.000000    0.000000
         Rot=    0.999842    0.000000    0.000000   -0.017792 Ang=  -2.04 deg.
 Initial guess orbital symmetries:
       Occupied  (A') (A') (A') (A") (A") (A') (A') (A')
       Virtual   (A') (A') (A') (A") (A") (A') (A') (A') (A') (A')
                 (A') (A') (A') (A') (A') (A') (A') (A') (A') (A')
                 (A') (A') (A') (A') (A') (A') (A') (A') (A') (A')
                 (A') (A') (A') (A") (A") (A") (A") (A") (A") (A")
                 (A") (A") (A") (A") (A") (A") (A") (A") (A") (A")
 Keep R1 ints in memory in symmetry-blocked form, NReq=2338449.
 Requested convergence on RMS density matrix=1.00D-08 within 128 cycles.
 Requested convergence on MAX density matrix=1.00D-06.
 Requested convergence on             energy=1.00D-06.
 No special actions if energy rises.
 An orbital has undefined symmetry, so N**3 symmetry is turned off.
 SCF Done:  E(RHF) =  -113.902873575     A.U. after    8 cycles
            NFock=  8  Conv=0.66D-08     -V/T= 2.0002
 Calling FoFJK, ICntrl=      2127 FMM=F ISym2X=1 I1Cent= 0 IOpClX= 0 NMat=1 NMatS=1 NMatT=0.
 ***** Axes restored to original set *****
 -------------------------------------------------------------------
 Center     Atomic                   Forces (Hartrees/Bohr)
 Number     Number              X              Y              Z
 -------------------------------------------------------------------
      1        6           0.000000001    0.000034998   -0.000161866
      2        8           0.000000000   -0.000011540    0.000256490
      3        1           0.000025963   -0.000011730   -0.000047312
      4        1          -0.000025964   -0.000011729   -0.000047312
 -------------------------------------------------------------------
 Cartesian Forces:  Max     0.000256490 RMS     0.000091034

 GradGradGradGradGradGradGradGradGradGradGradGradGradGradGradGradGradGrad
 Berny optimization.
 Using GEDIIS/GDIIS optimizer.
 FormGI is forming the generalized inverse of G from B-inverse, IUseBI=4.
 Internal  Forces:  Max     0.000256491 RMS     0.000101896
 Search for a local minimum.
 Step number   5 out of a maximum of   20
 All quantities printed in internal units (Hartrees-Bohrs-Radians)
 Mixed Optimization -- En-DIIS/RFO-DIIS
 Update second derivatives using D2CorX and points    1    2    4    3    5
 DE= -4.53D-06 DEPred=-2.43D-05 R= 1.86D-01
 Trust test= 1.86D-01 RLast= 8.66D-03 DXMaxT set to 1.68D-01
 The second derivative matrix:
                          R1        R2        R3        A1        A2
           R1           0.92812
           R2           0.04180   0.33683
           R3           0.04180   0.01131   0.33683
           A1           0.02618  -0.00530  -0.00530   0.14522
           A2           0.02580  -0.00178  -0.00178  -0.01162   0.15255
           A3          -0.02794   0.00313   0.00313  -0.00074  -0.00554
           D1          -0.01048  -0.00292  -0.00292   0.00350  -0.00307
                          A3        D1
           A3           0.13120
           D1          -0.00198   0.08177
 ITU=  0 -1  1  1  0
 Use linear search instead of GDIIS.
     Eigenvalues ---    0.08122   0.13360   0.16160   0.32552   0.34297
     Eigenvalues ---    0.93653
 RFO step:  Lambda=-8.52179170D-08 EMin= 8.12150343D-02
 Quartic linear search produced a step of  0.03239.
 Iteration  1 RMS(Cart)=  0.00016592 RMS(Int)=  0.00000015
 Iteration  2 RMS(Cart)=  0.00000001 RMS(Int)=  0.00000015
 ClnCor:  largest displacement from symmetrization is 1.63D-06 for atom     4.
 Variable       Old X    -DE/DX   Delta X   Delta X   Delta X     New X
                                 (Linear)    (Quad)   (Total)
    R1        2.22903   0.00026  -0.00003   0.00029   0.00026   2.22929
    R2        2.06784   0.00005   0.00004   0.00007   0.00011   2.06795
    R3        2.06784   0.00005   0.00004   0.00007   0.00011   2.06795
    A1        2.12878   0.00002   0.00007   0.00003   0.00010   2.12888
    A2        2.12878   0.00002   0.00007   0.00003   0.00010   2.12888
    A3        2.02562  -0.00004  -0.00014  -0.00006  -0.00020   2.02542
    D1        3.14133   0.00002   0.00021   0.00009   0.00030  -3.14155
         Item               Value     Threshold  Converged?
 Maximum Force            0.000256     0.000450     YES
 RMS     Force            0.000102     0.000300     YES
 Maximum Displacement     0.000311     0.001800     YES
 RMS     Displacement     0.000166     0.001200     YES
 Predicted change in Energy=-4.709313D-08
 Optimization completed.
    -- Stationary point found.
                           ----------------------------
                           !   Optimized Parameters   !
                           ! (Angstroms and Degrees)  !
 --------------------------                            --------------------------
 ! Name  Definition              Value          Derivative Info.                !
 --------------------------------------------------------------------------------
 ! R1    R(1,2)                  1.1796         -DE/DX =    0.0003              !
 ! R2    R(1,3)                  1.0943         -DE/DX =    0.0                 !
 ! R3    R(1,4)                  1.0943         -DE/DX =    0.0                 !
 ! A1    A(2,1,3)              121.9703         -DE/DX =    0.0                 !
 ! A2    A(2,1,4)              121.9703         -DE/DX =    0.0                 !
 ! A3    A(3,1,4)              116.0593         -DE/DX =    0.0                 !
 ! D1    D(2,1,4,3)           -180.0149         -DE/DX =    0.0                 !
 --------------------------------------------------------------------------------
 GradGradGradGradGradGradGradGradGradGradGradGradGradGradGradGradGradGrad

                          Input orientation:                          
 ---------------------------------------------------------------------
 Center     Atomic      Atomic             Coordinates (Angstroms)
 Number     Number       Type             X           Y           Z
 ---------------------------------------------------------------------
      1          6           0        0.000000   -0.000057    0.005648
      2          8           0        0.000000   -0.000073    1.185201
      3          1           0        0.928279    0.000060   -0.573737
      4          1           0       -0.928279    0.000098   -0.573737
 ---------------------------------------------------------------------
                    Distance matrix (angstroms):
                    1          2          3          4
     1  C    0.000000
     2  O    1.179553   0.000000
     3  H    1.094252   1.988860   0.000000
     4  H    1.094252   1.988860   1.856558   0.000000
 Stoichiometry    CH2O
 Framework group  CS[SG(CO),X(H2)]
 Deg. of freedom     4
 Full point group                 CS      NOp   2
 Largest Abelian subgroup         CS      NOp   2
 Largest concise Abelian subgroup CS      NOp   2
                         Standard orientation:                         
 ---------------------------------------------------------------------
 Center     Atomic      Atomic             Coordinates (Angstroms)
 Number     Number       Type             X           Y           Z
 ---------------------------------------------------------------------
      1          6           0       -0.000016   -0.517353    0.000000
      2          8           0       -0.000016    0.662200    0.000000
      3          1           0        0.000112   -1.096738    0.928279
      4          1           0        0.000112   -1.096738   -0.928279
 ---------------------------------------------------------------------
 Rotational constants (GHZ):    290.9679586     40.4532428     35.5155237

 **********************************************************************

            Population analysis using the SCF density.

 **********************************************************************

 Orbital symmetries:
       Occupied  (A') (A') (A') (A') (A") (A') (A') (A")
       Virtual   (A') (A") (A') (A') (A") (A') (A') (A') (A') (A")
                 (A') (A') (A") (A') (A') (A") (A') (A") (A') (A')
                 (A") (A') (A') (A") (A') (A") (A') (A') (A") (A')
                 (A') (A") (A') (A") (A") (A') (A') (A') (A") (A')
                 (A') (A') (A") (A") (A') (A') (A") (A') (A') (A')
 The electronic state is 1-A'.
 Alpha  occ. eigenvalues --  -20.57754 -11.33834  -1.42733  -0.87010  -0.70384
 Alpha  occ. eigenvalues --   -0.66115  -0.54895  -0.44062
 Alpha virt. eigenvalues --    0.04165   0.06515   0.07624   0.09879   0.15880
 Alpha virt. eigenvalues --    0.16309   0.16322   0.25011   0.27817   0.30323
 Alpha virt. eigenvalues --    0.32172   0.38840   0.38933   0.52091   0.63807
 Alpha virt. eigenvalues --    0.64315   0.69983   0.83421   0.87108   1.04932
 Alpha virt. eigenvalues --    1.24252   1.27182   1.31873   1.38717   1.52422
 Alpha virt. eigenvalues --    1.66843   1.68411   1.68975   1.90012   2.03419
 Alpha virt. eigenvalues --    2.03443   2.11954   2.50336   2.69076   2.79069
 Alpha virt. eigenvalues --    2.79300   2.94690   3.03572   3.25905   3.29050
 Alpha virt. eigenvalues --    3.75474   3.88281   3.89539   4.13767   4.24624
 Alpha virt. eigenvalues --    5.54693   5.65671   6.23755  25.09208  51.64780
          Condensed to atoms (all electrons):
               1          2          3          4
     1  C    4.625048   0.455204   0.395926   0.395926
     2  O    0.455204   7.978797  -0.068253  -0.068253
     3  H    0.395926  -0.068253   0.704507  -0.116980
     4  H    0.395926  -0.068253  -0.116980   0.704507
 Mulliken charges:
               1
     1  C    0.127895
     2  O   -0.297495
     3  H    0.084800
     4  H    0.084800
 Sum of Mulliken charges =   0.00000
 Mulliken charges with hydrogens summed into heavy atoms:
               1
     1  C    0.297495
     2  O   -0.297495
 Electronic spatial extent (au):  <R**2>=             59.3116
 Charge=              0.0000 electrons
 Dipole moment (field-independent basis, Debye):
    X=              0.0001    Y=             -2.8048    Z=              0.0000  Tot=              2.8048
 Quadrupole moment (field-independent basis, Debye-Ang):
   XX=            -11.6210   YY=            -12.2656   ZZ=            -11.4931
   XY=              0.0000   XZ=              0.0000   YZ=              0.0000
 Traceless Quadrupole moment (field-independent basis, Debye-Ang):
   XX=              0.1722   YY=             -0.4724   ZZ=              0.3001
   XY=              0.0000   XZ=              0.0000   YZ=              0.0000
 Octapole moment (field-independent basis, Debye-Ang**2):
  XXX=              0.0000  YYY=             -0.1677  ZZZ=              0.0000  XYY=              0.0002
  XXY=              0.4115  XXZ=              0.0000  XZZ=              0.0002  YZZ=             -0.6862
  YYZ=              0.0000  XYZ=              0.0000
 Hexadecapole moment (field-independent basis, Debye-Ang**3):
 XXXX=            -10.1841 YYYY=            -44.1767 ZZZZ=            -17.5619 XXXY=              0.0007
 XXXZ=              0.0000 YYYX=              0.0005 YYYZ=              0.0000 ZZZX=              0.0000
 ZZZY=              0.0000 XXYY=             -9.0571 XXZZ=             -4.9437 YYZZ=             -9.9518
 XXYZ=              0.0000 YYXZ=              0.0000 ZZXY=              0.0000
 N-N= 3.187933579942D+01 E-N=-3.323085401910D+02  KE= 1.138798762393D+02
 Symmetry A'   KE= 1.071719569801D+02
 Symmetry A"   KE= 6.707919259138D+00
 B after Tr=     0.000000    0.000051    0.031443
         Rot=    1.000000    0.000023    0.000000    0.000000 Ang=   0.00 deg.
 Final structure in terms of initial Z-matrix:
 C
 O,1,B1
 H,1,B2,2,A1
 H,1,B3,2,A2,3,D1,0
      Variables:
 B1=1.17955297
 B2=1.09425247
 B3=1.09425247
 A1=121.97033482
 A2=121.97033482
 D1=-179.98420477
 1|1|UNPC-AS-SC101-08|FOpt|RHF|6-311++G(d,p)|C1H2O1|MAXB2|30-Sep-2016|0
 ||# opt hf/6-311++g(d,p) geom=connectivity||Title Card Required||0,1|C
 ,-0.0000000007,-0.0000332331,0.0056478659|O,-0.000000001,-0.0000493605
 ,1.185200831|H,0.9282788232,0.0000833729,-0.5737370542|H,-0.9282788189
 ,0.0001219109,-0.5737370542||Version=EM64W-G09RevE.01|State=1-A'|HF=-1
 13.9028736|RMSD=6.610e-009|RMSF=9.103e-005|Dipole=0.,0.0000542,-1.1034
 94|Quadrupole=0.2231521,0.1280495,-0.3512016,-0.000002,0.,-0.0000214|P
 G=CS [SG(C1O1),X(H2)]||@


 IF YOU WISH TO UNDERSTAND THE FRAGRANCE OF THE ROSE, 
 OR THE TENACITY OF THE OAK; 
 IF YOU ARE NOT SATISFIED UNTIL YOU KNOW THE SECRET PATHS 
 BY WHICH THE SUNSHINE AND THE AIR ACHIEVE THESE WONDERS; 
 IF YOU WISH TO SEE THE PATTERN WHICH UNDERLIES ONE LARGE FIELD OF 
 HUMAN EXPERIENCE AND HUMAN MEASUREMENT, THEN TAKE UP CHEMISTRY.

                                         -- C. A. COULSON, 1973.
 Job cpu time:       0 days  0 hours  0 minutes  9.0 seconds.
 File lengths (MBytes):  RWF=      5 Int=      0 D2E=      0 Chk=      1 Scr=      1
 Normal termination of Gaussian 09 at Fri Sep 30 11:45:20 2016.
