Title Card Required                                                     
FOpt      RHF                                                         6-311++G(d,p)       
Number of atoms                            I                4
Info1-9                                    I   N=           9
          24          23           0           0           0         110
           2           1           2
Charge                                     I                0
Multiplicity                               I                1
Number of electrons                        I               16
Number of alpha electrons                  I                8
Number of beta electrons                   I                8
Number of basis functions                  I               58
Number of independent functions            I               58
Number of point charges in /Mol/           I                0
Number of translation vectors              I                0
Atomic numbers                             I   N=           4
           6           8           1           1
Nuclear charges                            R   N=           4
  6.00000000E+00  8.00000000E+00  1.00000000E+00  1.00000000E+00
Current cartesian coordinates              R   N=          12
 -3.02246034E-05 -9.77656178E-01  7.72537901E-21 -3.02246034E-05  1.25137589E+00
 -9.88909286E-21  2.11572224E-04 -2.07253501E+00  1.75419275E+00  2.11572224E-04
 -2.07253501E+00 -1.75419275E+00
Force Field                                I                0
Int Atom Types                             I   N=           4
           0           0           0           0
MM charges                                 R   N=           4
  0.00000000E+00  0.00000000E+00  0.00000000E+00  0.00000000E+00
Integer atomic weights                     I   N=           4
          12          16           1           1
Real atomic weights                        R   N=           4
  1.20000000E+01  1.59949146E+01  1.00782504E+00  1.00782504E+00
Atom fragment info                         I   N=           4
           0           0           0           0
Atom residue num                           I   N=           4
           0           0           0           0
Nuclear spins                              I   N=           4
           0           0           1           1
Nuclear ZEff                               R   N=           4
 -3.60000000E+00 -5.60000000E+00 -1.00000000E+00 -1.00000000E+00
Nuclear ZNuc                               R   N=           4
  6.00000000E+00  8.00000000E+00  1.00000000E+00  1.00000000E+00
Nuclear QMom                               R   N=           4
  0.00000000E+00  0.00000000E+00  0.00000000E+00  0.00000000E+00
Nuclear GFac                               R   N=           4
  0.00000000E+00  0.00000000E+00  2.79284600E+00  2.79284600E+00
MicOpt                                     I   N=           4
          -1          -1          -1          -1
SymInf integers                            I   N=          26
           2           2           1           1           1           1
           1          -1           0           0           0           0
           0           0           0           0           0           0
           0           0           0           0           0           0
           0           0
RotTr to input orientation                 R   N=          12
  2.07578117E-05  1.00000000E+00  1.36724965E-05 -2.95523836E-10 -1.36724965E-05
  1.00000000E+00  1.00000000E+00 -2.07578117E-05  1.17127280E-11 -1.90746782E-09
 -9.07332427E-05  9.88329095E-01
Number of contracted shells                I               22
Number of primitive shells                 I               40
Pure/Cartesian d shells                    I                0
Pure/Cartesian f shells                    I                0
Highest angular momentum                   I                2
Largest degree of contraction              I                6
Shell types                                I   N=          22
           0          -1          -1          -1          -1          -2
           0          -1          -1          -1          -1          -2
           0           0           0           0           1           0
           0           0           0           1
Number of primitives per shell             I   N=          22
           6           3           1           1           1           1
           6           3           1           1           1           1
           3           1           1           1           1           3
           1           1           1           1
Shell to atom map                          I   N=          22
           1           1           1           1           1           1
           2           2           2           2           2           2
           3           3           3           3           3           4
           4           4           4           4
Primitive exponents                        R   N=          40
  4.56324000E+03  6.82024000E+02  1.54973000E+02  4.44553000E+01  1.30290000E+01
  1.82773000E+00  2.09642000E+01  4.80331000E+00  1.45933000E+00  4.83456000E-01
  1.45585000E-01  4.38000000E-02  6.26000000E-01  8.58850000E+03  1.29723000E+03
  2.99296000E+02  8.73771000E+01  2.56789000E+01  3.74004000E+00  4.21175000E+01
  9.62837000E+00  2.85332000E+00  9.05661000E-01  2.55611000E-01  8.45000000E-02
  1.29200000E+00  3.38650000E+01  5.09479000E+00  1.15879000E+00  3.25840000E-01
  1.02741000E-01  3.60000000E-02  7.50000000E-01  3.38650000E+01  5.09479000E+00
  1.15879000E+00  3.25840000E-01  1.02741000E-01  3.60000000E-02  7.50000000E-01
Contraction coefficients                   R   N=          40
  1.96665025E-03  1.52306019E-02  7.61269097E-02  2.60801033E-01  6.16462078E-01
  2.21006028E-01  1.14660081E-01  9.19999648E-01 -3.03068213E-03  1.00000000E+00
  1.00000000E+00  1.00000000E+00  1.00000000E+00  1.89515008E-03  1.43859006E-02
  7.07320031E-02  2.40001011E-01  5.94797026E-01  2.80802012E-01  1.13889012E-01
  9.20811101E-01 -3.27447036E-03  1.00000000E+00  1.00000000E+00  1.00000000E+00
  1.00000000E+00  2.54938145E-02  1.90373109E-01  8.52161486E-01  1.00000000E+00
  1.00000000E+00  1.00000000E+00  1.00000000E+00  2.54938145E-02  1.90373109E-01
  8.52161486E-01  1.00000000E+00  1.00000000E+00  1.00000000E+00  1.00000000E+00
P(S=P) Contraction coefficients            R   N=          40
  0.00000000E+00  0.00000000E+00  0.00000000E+00  0.00000000E+00  0.00000000E+00
  0.00000000E+00  4.02486927E-02  2.37593957E-01  8.15853851E-01  1.00000000E+00
  1.00000000E+00  1.00000000E+00  0.00000000E+00  0.00000000E+00  0.00000000E+00
  0.00000000E+00  0.00000000E+00  0.00000000E+00  0.00000000E+00  3.65113974E-02
  2.37152983E-01  8.19701941E-01  1.00000000E+00  1.00000000E+00  1.00000000E+00
  0.00000000E+00  0.00000000E+00  0.00000000E+00  0.00000000E+00  0.00000000E+00
  0.00000000E+00  0.00000000E+00  0.00000000E+00  0.00000000E+00  0.00000000E+00
  0.00000000E+00  0.00000000E+00  0.00000000E+00  0.00000000E+00  0.00000000E+00
Coordinates of each shell                  R   N=          66
 -3.02246034E-05 -9.77656178E-01 -4.12437100E-21 -3.02246034E-05 -9.77656178E-01
 -4.12437100E-21 -3.02246034E-05 -9.77656178E-01 -4.12437100E-21 -3.02246034E-05
 -9.77656178E-01 -4.12437100E-21 -3.02246034E-05 -9.77656178E-01 -4.12437100E-21
 -3.02246034E-05 -9.77656178E-01 -4.12437100E-21 -3.02246034E-05  1.25137589E+00
  5.27927670E-21 -3.02246034E-05  1.25137589E+00  5.27927670E-21 -3.02246034E-05
  1.25137589E+00  5.27927670E-21 -3.02246034E-05  1.25137589E+00  5.27927670E-21
 -3.02246034E-05  1.25137589E+00  5.27927670E-21 -3.02246034E-05  1.25137589E+00
  5.27927670E-21  2.11572224E-04 -2.07253501E+00  1.75419275E+00  2.11572224E-04
 -2.07253501E+00  1.75419275E+00  2.11572224E-04 -2.07253501E+00  1.75419275E+00
  2.11572224E-04 -2.07253501E+00  1.75419275E+00  2.11572224E-04 -2.07253501E+00
  1.75419275E+00  2.11572224E-04 -2.07253501E+00 -1.75419275E+00  2.11572224E-04
 -2.07253501E+00 -1.75419275E+00  2.11572224E-04 -2.07253501E+00 -1.75419275E+00
  2.11572224E-04 -2.07253501E+00 -1.75419275E+00  2.11572224E-04 -2.07253501E+00
 -1.75419275E+00
Constraint Structure                       R   N=          12
 -4.60620066E-06 -1.01977252E+00 -5.97617959E-21 -4.60620066E-06  1.29952049E+00
  7.61559341E-21  3.22434046E-05 -2.13876440E+00  1.77521628E+00  3.22434046E-05
 -2.13876440E+00 -1.77521628E+00
Num ILSW                                   I              100
ILSW                                       I   N=         100
           0           0           0           0           2           0
           0           0           0           0           0          -1
           0           0           0           0           2           0
           0           0           1           0           1           0
           1           0           0           0           0           0
           0           0      100000           0          -1           0
           0           0           0           0           0           0
           0           0           0           1           0           0
           0           0           1           0           0           0
           0           0           4          41           0           0
           0           0           0           0           0           0
           0           0           0           0           0           0
           0           0           0           0           0           0
           0           0           0           0           0           0
           0           0           0           0           0           0
           0           0           0           0           0           0
           0           0           0           0
Num RLSW                                   I               41
RLSW                                       R   N=          41
  1.00000000E+00  1.00000000E+00  1.00000000E+00  1.00000000E+00  1.00000000E+00
  0.00000000E+00  0.00000000E+00  1.00000000E+00  0.00000000E+00  0.00000000E+00
  0.00000000E+00  0.00000000E+00  1.00000000E+00  0.00000000E+00  0.00000000E+00
  0.00000000E+00  0.00000000E+00  1.00000000E+00  0.00000000E+00  0.00000000E+00
  0.00000000E+00  0.00000000E+00  1.00000000E+00  0.00000000E+00  0.00000000E+00
  0.00000000E+00  0.00000000E+00  1.00000000E+00  0.00000000E+00  0.00000000E+00
  0.00000000E+00  0.00000000E+00  1.00000000E+00  0.00000000E+00  0.00000000E+00
  0.00000000E+00  0.00000000E+00  0.00000000E+00  1.00000000E+00  1.00000000E+00
  0.00000000E+00
MxBond                                     I                3
NBond                                      I   N=           4
           3           1           1           1
IBond                                      I   N=          12
           2           3           4           1           0           0
           1           0           0           1           0           0
RBond                                      R   N=          12
  2.00000000E+00  1.00000000E+00  1.00000000E+00  2.00000000E+00  0.00000000E+00
  0.00000000E+00  1.00000000E+00  0.00000000E+00  0.00000000E+00  1.00000000E+00
  0.00000000E+00  0.00000000E+00
Virial Ratio                               R      2.000201943805197E+00
SCF Energy                                 R     -1.139028735748035E+02
Total Energy                               R     -1.139028735748035E+02
RMS Force                                  R      9.103398631763593E-05
RMS Density                                R      6.610334186981213E-09
Job Status                                 I                1
Nuclear derivative order                   I                1
External E-field                           R   N=          35
  0.00000000E+00  0.00000000E+00  0.00000000E+00  0.00000000E+00  0.00000000E+00
  0.00000000E+00  0.00000000E+00  0.00000000E+00  0.00000000E+00  0.00000000E+00
  0.00000000E+00  0.00000000E+00  0.00000000E+00  0.00000000E+00  0.00000000E+00
  0.00000000E+00  0.00000000E+00  0.00000000E+00  0.00000000E+00  0.00000000E+00
  0.00000000E+00  0.00000000E+00  0.00000000E+00  0.00000000E+00  0.00000000E+00
  0.00000000E+00  0.00000000E+00  0.00000000E+00  0.00000000E+00  0.00000000E+00
  0.00000000E+00  0.00000000E+00  0.00000000E+00  0.00000000E+00  0.00000000E+00
IOpCl                                      I                0
IROHF                                      I                0
Alpha Orbital Energies                     R   N=          58
 -2.05775406E+01 -1.13383382E+01 -1.42733333E+00 -8.70102918E-01 -7.03840954E-01
 -6.61151066E-01 -5.48949927E-01 -4.40620374E-01  4.16548966E-02  6.51496807E-02
  7.62386206E-02  9.87863794E-02  1.58795429E-01  1.63085412E-01  1.63220757E-01
  2.50109388E-01  2.78171730E-01  3.03225305E-01  3.21715113E-01  3.88402361E-01
  3.89329119E-01  5.20910541E-01  6.38068776E-01  6.43154676E-01  6.99826148E-01
  8.34212101E-01  8.71078775E-01  1.04932380E+00  1.24251949E+00  1.27182396E+00
  1.31873291E+00  1.38717081E+00  1.52422206E+00  1.66843457E+00  1.68410674E+00
  1.68975447E+00  1.90011653E+00  2.03418698E+00  2.03442555E+00  2.11953733E+00
  2.50336143E+00  2.69075522E+00  2.79069080E+00  2.79299836E+00  2.94690261E+00
  3.03572007E+00  3.25904890E+00  3.29049963E+00  3.75474013E+00  3.88281470E+00
  3.89538821E+00  4.13766780E+00  4.24623758E+00  5.54692683E+00  5.65671037E+00
  6.23754730E+00  2.50920784E+01  5.16478004E+01
Alpha MO coefficients                      R   N=        3364
  6.31229275E-06 -7.04463852E-05 -2.28234140E-10  9.97064730E-05  2.97823798E-16
  2.88738536E-04 -1.00450673E-08  3.29857356E-04 -9.04785631E-16 -1.03087230E-04
  4.42828764E-09 -2.17804176E-06  3.82505192E-16 -5.86442413E-04 -1.04871105E-08
 -1.90308140E-04  3.76883534E-15 -1.14887745E-04  9.63442022E-17  4.28879781E-17
 -9.83589024E-05  1.16422983E-09  5.51464483E-01  4.71689864E-01 -3.77845918E-08
 -1.72294574E-03  1.36666833E-15  5.49528114E-03  2.11213351E-08  6.17370571E-04
 -1.67659407E-15 -8.79738047E-04 -1.27743621E-08 -2.09296967E-04  1.48940231E-15
  1.05680838E-03  7.03673276E-09 -4.75529032E-05 -1.82121437E-15  1.46017731E-04
 -5.03008751E-17  1.90738588E-18 -1.82701389E-04 -1.41842461E-08  8.52718390E-06
  6.56231347E-06 -1.94289642E-05  8.13669841E-05 -3.78545845E-09  2.00167230E-06
 -1.93380532E-05  8.52718390E-06  6.56231347E-06 -1.94289642E-05  8.13669841E-05
 -3.78545837E-09  2.00167230E-06  1.93380532E-05  5.63378841E-01  4.66626270E-01
 -1.88639365E-07  3.48638047E-04  1.87500546E-16  4.01851307E-03  1.51402582E-07
  2.80118525E-04 -6.65503298E-16 -5.03837751E-04 -7.53765697E-08  1.47770476E-04
  8.37321360E-16  7.27029851E-05  1.59939357E-08 -5.52729092E-05  4.44863979E-16
 -2.14158604E-05  5.67913810E-17  4.56186864E-17 -5.64643797E-04 -4.74486396E-08
 -2.31635310E-04 -3.40148801E-04  8.50956396E-09 -3.52654507E-04  6.59417685E-17
  6.83487526E-04  1.48116495E-08 -5.68751868E-04 -2.70405009E-16 -4.81118557E-04
  6.98064381E-09  3.36125975E-04  4.48795378E-16  3.61946819E-04  9.87385215E-09
 -2.51696554E-04 -6.79405835E-16 -1.81245357E-04  4.08162891E-16 -2.78789226E-16
 -1.61154202E-04 -4.67537677E-09  3.90681449E-04 -7.50536351E-06  1.77306737E-04
 -1.03852809E-04 -1.45442275E-08  5.50080087E-05 -1.35010657E-05  3.90681449E-04
 -7.50536351E-06  1.77306737E-04 -1.03852809E-04 -1.45442272E-08  5.50080087E-05
  1.35010657E-05 -6.15469067E-02 -9.86343636E-02  4.35694077E-07  8.79590816E-02
  3.17992710E-17  2.49647962E-01 -8.04945873E-07  1.21953542E-01 -5.02520806E-17
  6.10434104E-02 -2.64420786E-07 -5.25375998E-04  4.55840106E-15  3.74719781E-02
  1.41337965E-06  7.87082048E-03  9.08218697E-15 -2.04152893E-02  1.11328394E-16
 -4.77500836E-16 -2.84888236E-02 -1.38842658E-07 -1.05815512E-01 -1.76557612E-01
  6.30818786E-07 -6.63135526E-02  1.09354699E-16  4.96867109E-01  8.65254341E-07
 -1.02815519E-01  1.02654159E-16  3.44937692E-01  8.20279607E-07 -3.08698773E-02
  1.36267152E-16 -4.42767981E-02 -5.54478985E-07  3.79825550E-03 -4.66827653E-15
 -9.29063109E-03  7.19501014E-17 -2.29313632E-16 -1.59261276E-02 -9.05365629E-08
  1.67617466E-02  2.14752969E-02 -9.26518360E-03 -4.96210583E-03 -6.15923482E-07
  5.64818169E-03 -3.72600361E-03  1.67617466E-02  2.14752969E-02 -9.26518360E-03
 -4.96210583E-03 -6.15923482E-07  5.64818169E-03  3.72600361E-03 -8.71310812E-02
 -1.45785808E-01  1.19122094E-05 -8.13120390E-02 -1.49475344E-16  3.94773068E-01
  1.62452896E-05 -1.15755294E-01 -1.77157883E-16  2.91505039E-01  6.06096562E-06
 -5.00470834E-02  6.17541303E-15 -1.81832482E-02  2.55353402E-07 -2.05437143E-03
  6.00121902E-15  1.52053102E-02 -1.17724478E-17 -3.98619240E-16 -3.78691746E-03
 -1.49391283E-06  4.72359302E-02  7.98528640E-02  4.21641670E-06 -6.85690013E-02
 -1.86084296E-16 -2.35466307E-01  6.82997051E-06 -1.04758507E-01 -8.31590826E-16
 -2.56320142E-01  4.43317193E-06 -5.64808024E-02 -2.42439735E-16 -2.63618345E-02
 -6.16866369E-07  7.96437836E-03 -5.51557381E-15 -4.09828084E-03 -8.53819414E-17
 -2.16175688E-16 -4.52618215E-03 -9.82015315E-07  1.07251823E-01  1.53229918E-01
  6.72154127E-03  1.03258008E-02 -2.69319210E-06  8.15251587E-03 -2.08789939E-02
  1.07251823E-01  1.53229918E-01  6.72154127E-03  1.03258008E-02 -2.69319210E-06
  8.15251587E-03  2.08789939E-02 -1.75232802E-16 -2.83364490E-16  5.62780426E-17
 -1.19791027E-16  1.79351097E-01  1.24179883E-15  1.48467568E-16  5.69753474E-16
  2.75035229E-01 -5.80325269E-15 -2.87820730E-16 -5.85779977E-16  1.36451599E-01
 -8.05924940E-15  1.74767325E-16  8.51617107E-16  4.02519507E-02 -3.87283125E-16
  3.99285901E-06  6.63695715E-03  3.79286329E-16  8.44873813E-17  6.68367412E-17
  1.02790181E-16 -9.40075608E-18 -7.61001959E-17  1.58028416E-01 -1.02630635E-16
  4.52679840E-17 -1.02218192E-16  2.47264068E-01 -7.91490159E-16 -2.71877083E-16
 -4.21520883E-16  1.83034867E-01  5.93418642E-15  6.76670642E-16 -2.49992358E-15
 -1.58275857E-02 -3.49550173E-17 -2.43083056E-08 -2.06166895E-02  3.28660083E-17
 -2.02361150E-17  1.07098578E-01  1.66179255E-01  1.98631505E-02 -2.88918201E-02
 -3.35522153E-06  9.57987819E-03 -1.52777612E-02 -1.07098578E-01 -1.66179255E-01
 -1.98631505E-02  2.88918201E-02  3.35522153E-06 -9.57987819E-03 -1.52777612E-02
  1.12496731E-02  1.84947354E-02  1.25120483E-05 -1.68874492E-01  5.93877505E-17
 -7.43774002E-02  1.99778446E-05 -2.65242888E-01 -4.54363609E-16 -1.25534065E-02
  1.08960615E-05 -1.16218992E-01  3.19737416E-15 -2.35586651E-02 -3.01494821E-07
  4.95437161E-03  6.42638650E-15  2.50098553E-02 -6.33524216E-16  6.77112522E-17
  2.17361439E-02  2.74406076E-07 -3.71162588E-02 -6.29095644E-02  6.15100055E-06
  2.34734334E-01  7.31964938E-17  1.91169338E-01  1.01828371E-05  3.49644525E-01
 -1.06503823E-17  3.22873464E-01  7.48204936E-06  2.10001757E-01  2.12222531E-17
  8.99324430E-02 -5.21597625E-07 -7.45381009E-05 -2.79569748E-15  1.30106131E-02
  3.88009952E-17  2.95518693E-17  2.06509926E-02 -1.52607671E-06  5.61320945E-02
  8.60651357E-02  1.87209930E-02  9.83413777E-03 -7.21930475E-07 -9.08324821E-04
 -9.49566512E-03  5.61320945E-02  8.60651357E-02  1.87209930E-02  9.83413777E-03
 -7.21930476E-07 -9.08324821E-04  9.49566512E-03  4.67482231E-06  8.09202242E-06
  1.43388283E-01  1.32558923E-05 -2.36770438E-16 -2.21526973E-05  2.48061959E-01
  2.14975821E-05 -3.58308289E-16 -2.46058943E-05  1.64247935E-01  1.20474765E-05
 -4.63991630E-16  1.24606614E-05  9.04311221E-03 -1.83600530E-06 -1.10177915E-16
 -9.22253276E-07  2.43825552E-16  3.02142563E-16 -1.39409169E-06  5.46122597E-02
 -2.55583470E-07 -4.79838343E-07  2.21578276E-01 -1.00994625E-05  4.37413612E-16
  2.09934722E-06  3.50878605E-01 -1.51636848E-05  3.06169925E-16 -4.62778725E-06
  3.01889135E-01 -8.29439140E-06  6.09543716E-16 -4.95297497E-06  2.29189624E-02
 -1.37140944E-06  1.75408734E-16 -4.12030893E-07 -2.80536400E-16 -2.40319638E-17
 -8.67177454E-07 -2.92376082E-02 -4.66604521E-07 -3.51922266E-06 -5.06382647E-06
 -4.42919239E-06  8.37955966E-03  5.78277397E-07 -7.58114412E-07 -4.66604521E-07
 -3.51922266E-06 -5.06382647E-06 -4.42919239E-06  8.37955966E-03  5.78277397E-07
  7.58114411E-07  5.36787195E-17  1.00233478E-16 -3.62076407E-16 -1.18465859E-16
 -8.56498804E-02 -3.68777224E-16 -4.12451981E-16  2.19491787E-16 -1.40940963E-01
 -2.56476134E-15 -1.53472885E-15 -2.79916006E-16 -7.45708343E-02 -1.18318070E-14
  2.01332339E-17  1.37163013E-15  5.44315050E-02 -2.78373010E-16 -5.60881162E-06
  7.72414832E-02 -2.03197271E-16 -2.97471682E-17  2.72211568E-17  6.60588494E-17
 -1.64217587E-16 -4.00949146E-17  2.45757846E-01 -6.21492667E-16 -2.32047992E-16
  1.48525474E-16  3.77776454E-01  1.04907059E-15 -2.73497295E-16 -8.62545750E-17
  3.69880024E-01  2.19826966E-15  1.43504830E-15 -2.02741364E-15  6.00833008E-02
  7.00287847E-18 -2.85663330E-07 -8.95160277E-03  4.39884963E-17  3.22120265E-17
 -1.04572830E-01 -2.04284591E-01 -1.51437279E-01 -6.16793250E-02  1.29714210E-06
 -6.32128915E-03  3.01898922E-03  1.04572830E-01  2.04284591E-01  1.51437279E-01
  6.16793250E-02 -1.29714210E-06  6.32128915E-03  3.01898922E-03 -1.63692017E-02
 -2.90660343E-02  1.64159314E-06 -2.77007987E-02 -1.72412540E-15  1.03756530E-01
  4.08932501E-06 -6.79469041E-02 -1.32204394E-15  8.29489467E-02 -9.17908137E-06
  9.63675169E-02 -1.62068388E-14  3.83452932E+00  1.56884522E-04 -3.72319262E-01
 -2.87292121E-14 -9.52268212E-04  3.11651625E-16  2.24499148E-16  2.97138832E-03
  2.15289537E-07 -1.47263115E-03 -2.43447972E-03  4.53535311E-07  1.38697137E-02
 -9.90514382E-17  5.64425835E-03 -4.77196232E-07  1.72372917E-02  3.90927273E-16
  3.03400767E-02  5.99972341E-06  2.06263848E-02 -1.67175853E-15 -5.12104290E-01
 -2.26515245E-05  2.01574692E-01  2.12258539E-14 -1.05044190E-03 -7.69716836E-18
  4.55390302E-16 -1.09643469E-03 -1.44731977E-07  6.38855018E-03  6.22465474E-03
  6.67773769E-02 -2.24530344E+00 -1.29069264E-06  3.41786102E-03 -1.14018843E-02
  6.38855018E-03  6.22465474E-03  6.67773769E-02 -2.24530344E+00 -1.29069264E-06
  3.41786102E-03  1.14018843E-02  1.56961447E-15  3.10026840E-15  4.81874137E-16
  1.43613091E-15 -3.74298110E-02 -1.52464522E-14  6.27430955E-16 -2.09718334E-15
 -8.21946031E-02  1.35963344E-14  2.31105915E-15 -2.03799690E-14  3.15543929E-02
  8.23884370E-13 -1.80234479E-15 -1.64303180E-13 -2.20487585E+00  1.38067618E-15
 -9.28099135E-08  6.65584910E-03  1.46397155E-16  1.79604257E-17  2.97291060E-16
  4.96401322E-16 -3.08096117E-16 -1.56733332E-15  5.97439923E-03 -2.56019642E-15
 -4.53817597E-16 -3.50635909E-15  2.08628455E-02  8.45514690E-15 -8.30684266E-16
 -1.04105576E-14 -3.95246441E-02 -5.55681415E-14 -6.00809164E-16  1.49708792E-14
  3.12830778E-01  7.62239599E-16  2.58785956E-07  3.41273914E-03 -2.37575021E-16
 -4.47699728E-17 -1.48670019E-02 -5.11480085E-03 -1.59176166E-01  4.59763252E+00
  1.05126809E-06 -5.38176144E-03  4.03605139E-03  1.48670019E-02  5.11480085E-03
  1.59176166E-01 -4.59763252E+00 -1.05126809E-06  5.38176144E-03  4.03605139E-03
  3.45198155E-06  5.90224432E-06  7.04201333E-02  7.37460742E-06 -9.89992256E-17
 -1.27245782E-05  1.31442041E-01  1.58156911E-05 -1.31637625E-15 -7.92225789E-05
  1.73128206E-01  5.38637509E-06 -2.62364658E-16 -1.78642270E-04  1.15169181E+00
  3.48773762E-05 -2.34234659E-15  7.71441507E-07  2.10323777E-16  4.36150932E-16
 -1.00409811E-06 -3.43925778E-02 -1.06573505E-06 -1.86409044E-06 -1.06266673E-01
 -2.88882032E-06  1.83615848E-16  6.43848966E-06 -1.78855141E-01 -4.45830667E-06
  4.85234917E-16  5.53339880E-06 -1.45499883E-01 -3.95402932E-06 -3.90503852E-16
  6.89265700E-05 -5.56136567E-01 -3.57955804E-05  1.47895089E-15  6.93246352E-08
 -1.25776564E-17  2.32820615E-17 -3.13606591E-07 -1.06871430E-03  9.18637297E-06
  2.37426619E-05  3.41568633E-05  2.15746213E-05  1.67585713E-02  1.21971769E-06
 -7.34787788E-07  9.18637297E-06  2.37426619E-05  3.41568633E-05  2.15746213E-05
  1.67585713E-02  1.21971769E-06  7.34787787E-07  3.13952989E-03  4.19382108E-03
 -4.61475565E-07 -5.76460061E-03 -8.32250488E-17  2.22428335E-02 -5.92957641E-06
  1.28084853E-02  1.05538623E-15 -6.21837900E-01  5.25734444E-06 -2.88882402E-01
 -2.21908995E-15 -1.57306671E+00  2.66676194E-05 -1.75627713E+00  1.02196637E-13
 -1.93141957E-02 -2.29482102E-16 -3.89659895E-16 -1.27651376E-02  1.39427800E-06
 -1.58396584E-02 -2.83132324E-02  1.03537179E-06  1.31490754E-03 -6.05635890E-16
  1.12640272E-01  1.17092321E-06  2.05881512E-02 -8.17841248E-16 -1.45072074E-02
  4.06535187E-06 -1.01303692E-01 -5.82842552E-16  2.51346191E+00 -1.03067103E-05
 -2.69165338E-01 -1.51607527E-14  3.07683951E-04  2.56577095E-17 -2.08724168E-16
  3.03097683E-04  4.82444529E-08 -1.73520448E-03  5.04932848E-02 -1.96355218E-01
 -6.14933433E-02 -1.32505324E-06 -2.65711245E-05 -8.24730698E-03 -1.73520448E-03
  5.04932848E-02 -1.96355218E-01 -6.14933433E-02 -1.32505324E-06 -2.65711245E-05
  8.24730698E-03  4.75479811E-14  9.03337100E-14  4.80445215E-15  8.83437968E-14
  3.13054306E-02 -3.67894673E-13  6.06993086E-15  6.90891986E-14  1.00044739E-01
  1.26383453E-12  2.30098114E-14  1.15995142E-12 -3.98273919E-02  3.50057979E-11
 -1.78967778E-14 -5.64606034E-12 -6.02080225E+00 -8.26537512E-14  9.26714642E-06
 -1.24319925E-02  3.56536183E-14 -4.84724091E-16  1.45413277E-14  2.70457092E-14
 -2.79373180E-15 -3.59695369E-14  3.02751981E-02 -1.31166097E-13 -4.03995841E-15
 -5.09318285E-14  6.87359592E-02  4.05857884E-14 -7.95734099E-15 -3.01047921E-14
 -5.73968093E-02 -6.96721901E-12 -5.65213044E-15  2.43496498E-12  1.01502189E+00
 -6.67579311E-15  9.73715585E-07 -5.34984353E-03  4.81270423E-15 -3.34076513E-16
  2.19244490E-02 -1.39872309E-01  1.19627592E+00  6.34697686E+00  2.24787754E-06
 -7.90911320E-03  1.47150152E-03 -2.19244490E-02  1.39872309E-01 -1.19627592E+00
 -6.34697686E+00 -2.24787754E-06  7.90911320E-03  1.47150152E-03 -4.68072989E-04
 -8.86411662E-04  1.91937460E-01 -8.90979847E-04  2.03571416E-15  3.53647430E-03
  2.44256417E-01 -7.18550064E-04  5.54720826E-15 -1.20277661E-02  9.13323360E-01
 -1.22452276E-02 -3.43487205E-16 -3.43335891E-01 -7.84066974E-01  5.47244074E-02
 -4.11764959E-13  8.74306951E-04  4.14211324E-16 -6.74283316E-16 -3.61612545E-04
 -2.28357697E-02 -1.45531061E-04 -2.70937307E-04 -1.11571238E-01  3.48820062E-04
  2.15066215E-15  1.31495235E-03 -1.60737967E-01  4.63880500E-04  4.80933088E-15
 -3.42837527E-04 -3.17922693E-01  2.66177471E-04 -2.10255583E-15  7.01663048E-02
 -2.11421420E-01 -2.47599727E-02  6.47403035E-14  8.22917023E-05  9.60332710E-18
 -2.56281804E-16 -5.18416209E-05 -1.31237651E-02  1.11978179E-03 -3.54019867E-03
  3.88666347E-02  1.19317944E-01  1.56053727E-02  1.79887474E-04  1.19603478E-04
  1.11978179E-03 -3.54019867E-03  3.88666347E-02  1.19317944E-01  1.56053727E-02
  1.79887474E-04 -1.19603478E-04  1.57178929E-02  2.97050421E-02  5.83941044E-03
  3.00183630E-02 -9.99392379E-14 -1.17555532E-01  7.41885263E-03  2.42163679E-02
 -3.06367950E-13  3.89665893E-01  2.78382905E-02  4.08772125E-01  4.17253835E-14
  1.12993548E+01 -2.32863104E-02 -1.79972341E+00  1.86555702E-11 -2.86326593E-02
 -3.11780109E-16  3.83357020E-14  1.18312769E-02 -6.92476016E-04  4.73824309E-03
  8.82339110E-03 -3.39740272E-03 -1.16934745E-02 -9.58092515E-14 -4.29249578E-02
 -4.89687193E-03 -1.57126512E-02 -2.14897778E-13  1.10274717E-02 -9.67082696E-03
 -8.76988721E-03  1.71094963E-13 -2.31587381E+00 -6.54914000E-03  8.17724571E-01
 -3.05892472E-12 -2.71485600E-03 -2.11592001E-16  1.73368127E-14  1.65631581E-03
 -3.98994447E-04 -3.62593150E-02  1.17089514E-01 -1.27032213E+00 -3.92824746E+00
  4.75876633E-04 -5.94140007E-03 -3.96286149E-03 -3.62593150E-02  1.17089514E-01
 -1.27032213E+00 -3.92824746E+00  4.75876633E-04 -5.94140007E-03  3.96286149E-03
  4.39932548E-02  7.30518663E-02 -3.95749065E-05  8.86402364E-02  8.70552537E-15
 -1.07092677E-01 -3.92611248E-05  4.72626974E-02  7.41506835E-15 -1.89687283E+00
 -3.27324851E-04  9.88514202E-01  1.17439890E-13 -2.72079302E-01 -9.47565228E-05
  4.78440292E-01 -2.46142438E-13  2.56173110E-02 -5.54804184E-16 -2.29540194E-15
 -6.45527573E-03  3.13036896E-06 -5.35501230E-03 -9.73611807E-03  1.62309815E-05
 -1.73924740E-02  1.00751726E-15  3.33609070E-02  2.37974249E-05 -4.65918526E-02
  2.11588463E-15  2.45250880E-02  5.13517300E-05 -1.76538843E-02 -3.07081974E-15
 -9.14901699E-01  1.57763444E-04  3.38232301E-01 -3.02454525E-14  1.54249142E-03
 -9.66075451E-17 -1.09379127E-15 -7.03751164E-03  3.42587911E-06  5.62210231E-02
  4.44816929E-02  2.44762075E+00 -5.90420775E-01 -2.70352739E-06 -5.95993775E-03
  1.18118362E-02  5.62210231E-02  4.44816929E-02  2.44762075E+00 -5.90420775E-01
 -2.70352739E-06 -5.95993775E-03 -1.18118362E-02 -1.00363491E-02 -1.27291594E-02
 -4.44036109E-06  3.06172175E-02  4.63180003E-15 -9.11917018E-02  4.20886793E-06
 -5.53482375E-02  2.86574094E-15  1.63145469E+00 -3.98498410E-05  3.55171994E-01
  4.44732440E-14  1.18728284E+00  2.00629001E-05 -4.28374588E-01 -8.01502310E-14
  5.08791568E-03  7.57532762E-16  3.71040599E-17 -3.00020502E-02 -3.59662580E-06
  5.51952515E-03  9.27962902E-03  7.92707526E-07 -5.68460663E-02  2.23784798E-16
 -3.06303628E-02  1.20393147E-06 -3.97018987E-02  2.56152815E-16 -9.77440655E-02
  4.07440431E-06 -3.23698936E-01  3.40788600E-16 -1.74887939E+00  7.47511394E-06
  2.46276977E+00 -1.14443829E-14 -1.00361375E-02 -3.96370229E-17 -7.24050189E-16
 -1.84501193E-02  1.85791886E-07  5.80016612E-03 -9.70981909E-02  5.22032346E-01
 -4.86241514E-01  1.39108038E-06 -1.73170761E-02  1.02483569E-02  5.80016612E-03
 -9.70981909E-02  5.22032346E-01 -4.86241514E-01  1.39108038E-06 -1.73170761E-02
 -1.02483569E-02  3.35450960E-16  1.72647761E-17 -4.37130646E-16  5.39397587E-15