 Entering Link 1 = C:\G09W\l1.exe PID=      7464.
  
 Copyright (c) 1988,1990,1992,1993,1995,1998,2003,2009,2015,
            Gaussian, Inc.  All Rights Reserved.
  
 This is part of the Gaussian(R) 09 program.  It is based on
 the Gaussian(R) 03 system (copyright 2003, Gaussian, Inc.),
 the Gaussian(R) 98 system (copyright 1998, Gaussian, Inc.),
 the Gaussian(R) 94 system (copyright 1995, Gaussian, Inc.),
 the Gaussian 92(TM) system (copyright 1992, Gaussian, Inc.),
 the Gaussian 90(TM) system (copyright 1990, Gaussian, Inc.),
 the Gaussian 88(TM) system (copyright 1988, Gaussian, Inc.),
 the Gaussian 86(TM) system (copyright 1986, Carnegie Mellon
 University), and the Gaussian 82(TM) system (copyright 1983,
 Carnegie Mellon University). Gaussian is a federally registered
 trademark of Gaussian, Inc.
  
 This software contains proprietary and confidential information,
 including trade secrets, belonging to Gaussian, Inc.
  
 This software is provided under written license and may be
 used, copied, transmitted, or stored only in accord with that
 written license.
  
 The following legend is applicable only to US Government
 contracts under FAR:
  
                    RESTRICTED RIGHTS LEGEND
  
 Use, reproduction and disclosure by the US Government is
 subject to restrictions as set forth in subparagraphs (a)
 and (c) of the Commercial Computer Software - Restricted
 Rights clause in FAR 52.227-19.
  
 Gaussian, Inc.
 340 Quinnipiac St., Bldg. 40, Wallingford CT 06492
  
  
 ---------------------------------------------------------------
 Warning -- This program may not be used in any manner that
 competes with the business of Gaussian, Inc. or will provide
 assistance to any competitor of Gaussian, Inc.  The licensee
 of this program is prohibited from giving any competitor of
 Gaussian, Inc. access to this program.  By using this program,
 the user acknowledges that Gaussian, Inc. is engaged in the
 business of creating and licensing software in the field of
 computational chemistry and represents and warrants to the
 licensee that it is not a competitor of Gaussian, Inc. and that
 it will not use this program in any manner prohibited above.
 ---------------------------------------------------------------
  

 Cite this work as:
 Gaussian 09, Revision E.01,
 M. J. Frisch, G. W. Trucks, H. B. Schlegel, G. E. Scuseria, 
 M. A. Robb, J. R. Cheeseman, G. Scalmani, V. Barone, B. Mennucci, 
 G. A. Petersson, H. Nakatsuji, M. Caricato, X. Li, H. P. Hratchian, 
 A. F. Izmaylov, J. Bloino, G. Zheng, J. L. Sonnenberg, M. Hada, 
 M. Ehara, K. Toyota, R. Fukuda, J. Hasegawa, M. Ishida, T. Nakajima, 
 Y. Honda, O. Kitao, H. Nakai, T. Vreven, J. A. Montgomery, Jr., 
 J. E. Peralta, F. Ogliaro, M. Bearpark, J. J. Heyd, E. Brothers, 
 K. N. Kudin, V. N. Staroverov, T. Keith, R. Kobayashi, J. Normand, 
 K. Raghavachari, A. Rendell, J. C. Burant, S. S. Iyengar, J. Tomasi, 
 M. Cossi, N. Rega, J. M. Millam, M. Klene, J. E. Knox, J. B. Cross, 
 V. Bakken, C. Adamo, J. Jaramillo, R. Gomperts, R. E. Stratmann, 
 O. Yazyev, A. J. Austin, R. Cammi, C. Pomelli, J. W. Ochterski, 
 R. L. Martin, K. Morokuma, V. G. Zakrzewski, G. A. Voth, 
 P. Salvador, J. J. Dannenberg, S. Dapprich, A. D. Daniels, 
 O. Farkas, J. B. Foresman, J. V. Ortiz, J. Cioslowski, 
 and D. J. Fox, Gaussian, Inc., Wallingford CT, 2013.
 
 ******************************************
 Gaussian 09:  EM64W-G09RevE.01 30-Nov-2015
                03-Oct-2016 
 ******************************************
 %mem=6GB
 %nprocshared=3
 Will use up to    3 processors via shared memory.
 %oldchk=C:\Users\epktb\Desktop\A04\hnc-mp2full-180
 %chk=C:\Users\epktb\Desktop\A04\hnc-ccsd-ccpvqz-180
 Copying data from "C:\Users\epktb\Desktop\A04\hnc-mp2full-180.chk" to current chk file "C:\Users\epktb\Desktop\A04\hnc-c
 csd-ccpvqz-180.chk".
 --------------------------------------
 # ccsd(full)/cc-pvqz gfp geom=allcheck
 --------------------------------------
 1/29=7,38=1/1;
 2/12=2,40=1/2;
 3/5=16,6=2,11=9,14=-4,16=1,24=100,25=1,30=1/1,2,3;
 4//1;
 5/5=2,38=5/2;
 8/6=4,9=120000,10=90/1,4;
 9/5=7/13;
 6/7=2,8=2,9=2,10=2/1;
 99/5=1,9=1/99;
 Structure from the checkpoint file:  "C:\Users\epktb\Desktop\A04\hnc-ccsd-ccpvqz-180.chk"
 -------
 HNC-HCN
 -------
 Charge =  0 Multiplicity = 1
 Redundant internal coordinates found in file.
 N,0,0.,0.,0.0305553042
 C,0,0.,0.,1.2009947714
 H,0,0.,0.,2.2684499244
 Recover connectivity data from disk.
                          Input orientation:                          
 ---------------------------------------------------------------------
 Center     Atomic      Atomic             Coordinates (Angstroms)
 Number     Number       Type             X           Y           Z
 ---------------------------------------------------------------------
      1          7           0        0.000000    0.000000    0.030555
      2          6           0        0.000000    0.000000    1.200995
      3          1           0        0.000000    0.000000    2.268450
 ---------------------------------------------------------------------
                    Distance matrix (angstroms):
                    1          2          3
     1  N    0.000000
     2  C    1.170439   0.000000
     3  H    2.237895   1.067455   0.000000
 Stoichiometry    CHN
 Framework group  C*V[C*(HCN)]
 Deg. of freedom     2
 Full point group                 C*V     NOp   4
 Largest Abelian subgroup         C2V     NOp   4
 Largest concise Abelian subgroup C1      NOp   1
                         Standard orientation:                         
 ---------------------------------------------------------------------
 Center     Atomic      Atomic             Coordinates (Angstroms)
 Number     Number       Type             X           Y           Z
 ---------------------------------------------------------------------
      1          7           0        0.000000    0.000000    0.661467
      2          6           0        0.000000    0.000000   -0.508973
      3          1           0        0.000000    0.000000   -1.576428
 ---------------------------------------------------------------------
 Rotational constants (GHZ):      0.0000000     43.3828392     43.3828392
 Standard basis: CC-pVQZ (5D, 7F)
 AO basis set (Overlap normalization):
 Atom N1       Shell     1 S   8     bf    1 -     1          0.000000000000          0.000000000000          1.249990588189
      0.4584000000D+05  0.1534988599D-03
      0.6868000000D+04  0.1179826628D-02
      0.1563000000D+04  0.6207746267D-02
      0.4424000000D+03  0.2538092332D-01
      0.1443000000D+03  0.8650277680D-01
      0.5218000000D+02  0.2266189482D+00
      0.2034000000D+02  0.4355021992D+00
      0.8381000000D+01  0.3465592023D+00
 Atom N1       Shell     2 S   7     bf    2 -     2          0.000000000000          0.000000000000          1.249990588189
      0.6868000000D+04 -0.1039792478D-04
      0.4424000000D+03 -0.4736517491D-03
      0.1443000000D+03 -0.2102474955D-02
      0.5218000000D+02 -0.2306147530D-01
      0.2034000000D+02 -0.9676852612D-01
      0.8381000000D+01 -0.4376637933D+00
      0.3529000000D+01 -0.5056218861D+00
 Atom N1       Shell     3 S   1     bf    3 -     3          0.000000000000          0.000000000000          1.249990588189
      0.1054000000D+01  0.1000000000D+01
 Atom N1       Shell     4 S   1     bf    4 -     4          0.000000000000          0.000000000000          1.249990588189
      0.4118000000D+00  0.1000000000D+01
 Atom N1       Shell     5 S   1     bf    5 -     5          0.000000000000          0.000000000000          1.249990588189
      0.1552000000D+00  0.1000000000D+01
 Atom N1       Shell     6 P   3     bf    6 -     8          0.000000000000          0.000000000000          1.249990588189
      0.4933000000D+02  0.3112609737D-01
      0.1137000000D+02  0.2135566435D+00
      0.3435000000D+01  0.8383625589D+00
 Atom N1       Shell     7 P   1     bf    9 -    11          0.000000000000          0.000000000000          1.249990588189
      0.1182000000D+01  0.1000000000D+01
 Atom N1       Shell     8 P   1     bf   12 -    14          0.000000000000          0.000000000000          1.249990588189
      0.4173000000D+00  0.1000000000D+01
 Atom N1       Shell     9 P   1     bf   15 -    17          0.000000000000          0.000000000000          1.249990588189
      0.1428000000D+00  0.1000000000D+01
 Atom N1       Shell    10 D   1     bf   18 -    22          0.000000000000          0.000000000000          1.249990588189
      0.2837000000D+01  0.1000000000D+01
 Atom N1       Shell    11 D   1     bf   23 -    27          0.000000000000          0.000000000000          1.249990588189
      0.9680000000D+00  0.1000000000D+01
 Atom N1       Shell    12 D   1     bf   28 -    32          0.000000000000          0.000000000000          1.249990588189
      0.3350000000D+00  0.1000000000D+01
 Atom N1       Shell    13 F   1     bf   33 -    39          0.000000000000          0.000000000000          1.249990588189
      0.2027000000D+01  0.1000000000D+01
 Atom N1       Shell    14 F   1     bf   40 -    46          0.000000000000          0.000000000000          1.249990588189
      0.6850000000D+00  0.1000000000D+01
 Atom N1       Shell    15 G   1     bf   47 -    55          0.000000000000          0.000000000000          1.249990588189
      0.1427000000D+01  0.1000000000D+01
 Atom C2       Shell    16 S   8     bf   56 -    56          0.000000000000          0.000000000000         -0.961819459839
      0.3398000000D+05  0.1468124114D-03
      0.5089000000D+04  0.1116460016D-02
      0.1157000000D+04  0.5890887108D-02
      0.3266000000D+03  0.2421725547D-01
      0.1061000000D+03  0.8317163879D-01
      0.3811000000D+02  0.2205684777D+00
      0.1475000000D+02  0.4287314969D+00
      0.6035000000D+01  0.3643614225D+00
 Atom C2       Shell    17 S   7     bf   57 -    57          0.000000000000          0.000000000000         -0.961819459839
      0.5089000000D+04 -0.1002265364D-04
      0.3266000000D+03 -0.4365894368D-03
      0.1061000000D+03 -0.1932312730D-02
      0.3811000000D+02 -0.2148394772D-01
      0.1475000000D+02 -0.9030916566D-01
      0.6035000000D+01 -0.4187915117D+00
      0.2530000000D+01 -0.5318019058D+00
 Atom C2       Shell    18 S   1     bf   58 -    58          0.000000000000          0.000000000000         -0.961819459839
      0.7355000000D+00  0.1000000000D+01
 Atom C2       Shell    19 S   1     bf   59 -    59          0.000000000000          0.000000000000         -0.961819459839
      0.2905000000D+00  0.1000000000D+01
 Atom C2       Shell    20 S   1     bf   60 -    60          0.000000000000          0.000000000000         -0.961819459839
      0.1111000000D+00  0.1000000000D+01
 Atom C2       Shell    21 P   3     bf   61 -    63          0.000000000000          0.000000000000         -0.961819459839
      0.3451000000D+02  0.3168785521D-01
      0.7915000000D+01  0.2128943073D+00
      0.2368000000D+01  0.8395867520D+00
 Atom C2       Shell    22 P   1     bf   64 -    66          0.000000000000          0.000000000000         -0.961819459839
      0.8132000000D+00  0.1000000000D+01
 Atom C2       Shell    23 P   1     bf   67 -    69          0.000000000000          0.000000000000         -0.961819459839
      0.2890000000D+00  0.1000000000D+01
 Atom C2       Shell    24 P   1     bf   70 -    72          0.000000000000          0.000000000000         -0.961819459839
      0.1007000000D+00  0.1000000000D+01
 Atom C2       Shell    25 D   1     bf   73 -    77          0.000000000000          0.000000000000         -0.961819459839
      0.1848000000D+01  0.1000000000D+01
 Atom C2       Shell    26 D   1     bf   78 -    82          0.000000000000          0.000000000000         -0.961819459839
      0.6490000000D+00  0.1000000000D+01
 Atom C2       Shell    27 D   1     bf   83 -    87          0.000000000000          0.000000000000         -0.961819459839
      0.2280000000D+00  0.1000000000D+01
 Atom C2       Shell    28 F   1     bf   88 -    94          0.000000000000          0.000000000000         -0.961819459839
      0.1419000000D+01  0.1000000000D+01
 Atom C2       Shell    29 F   1     bf   95 -   101          0.000000000000          0.000000000000         -0.961819459839
      0.4850000000D+00  0.1000000000D+01
 Atom C2       Shell    30 G   1     bf  102 -   110          0.000000000000          0.000000000000         -0.961819459839
      0.1011000000D+01  0.1000000000D+01
 Atom H3       Shell    31 S   3     bf  111 -   111          0.000000000000          0.000000000000         -2.979017358293
      0.8264000000D+02  0.2295075779D-01
      0.1241000000D+02  0.1755401181D+00
      0.2824000000D+01  0.8647035510D+00
 Atom H3       Shell    32 S   1     bf  112 -   112          0.000000000000          0.000000000000         -2.979017358293
      0.7977000000D+00  0.1000000000D+01
 Atom H3       Shell    33 S   1     bf  113 -   113          0.000000000000          0.000000000000         -2.979017358293
      0.2581000000D+00  0.1000000000D+01
 Atom H3       Shell    34 S   1     bf  114 -   114          0.000000000000          0.000000000000         -2.979017358293
      0.8989000000D-01  0.1000000000D+01
 Atom H3       Shell    35 P   1     bf  115 -   117          0.000000000000          0.000000000000         -2.979017358293
      0.2292000000D+01  0.1000000000D+01
 Atom H3       Shell    36 P   1     bf  118 -   120          0.000000000000          0.000000000000         -2.979017358293
      0.8380000000D+00  0.1000000000D+01
 Atom H3       Shell    37 P   1     bf  121 -   123          0.000000000000          0.000000000000         -2.979017358293
      0.2920000000D+00  0.1000000000D+01
 Atom H3       Shell    38 D   1     bf  124 -   128          0.000000000000          0.000000000000         -2.979017358293
      0.2062000000D+01  0.1000000000D+01
 Atom H3       Shell    39 D   1     bf  129 -   133          0.000000000000          0.000000000000         -2.979017358293
      0.6620000000D+00  0.1000000000D+01
 Atom H3       Shell    40 F   1     bf  134 -   140          0.000000000000          0.000000000000         -2.979017358293
      0.1397000000D+01  0.1000000000D+01
 There are    76 symmetry adapted cartesian basis functions of A1  symmetry.
 There are    19 symmetry adapted cartesian basis functions of A2  symmetry.
 There are    40 symmetry adapted cartesian basis functions of B1  symmetry.
 There are    40 symmetry adapted cartesian basis functions of B2  symmetry.
 There are    57 symmetry adapted basis functions of A1  symmetry.
 There are    17 symmetry adapted basis functions of A2  symmetry.
 There are    33 symmetry adapted basis functions of B1  symmetry.
 There are    33 symmetry adapted basis functions of B2  symmetry.
   140 basis functions,   215 primitive gaussians,   175 cartesian basis functions
     7 alpha electrons        7 beta electrons
       nuclear repulsion energy        23.6186300413 Hartrees.
 NAtoms=    3 NActive=    3 NUniq=    3 SFac= 1.00D+00 NAtFMM=   60 NAOKFM=F Big=F
 Integral buffers will be    131072 words long.
 Raffenetti 1 integral format.
 Two-electron integral symmetry is turned on.
 One-electron integrals computed using PRISM.
 NBasis=   140 RedAO= T EigKep=  3.85D-04  NBF=    57    17    33    33
 NBsUse=   140 1.00D-06 EigRej= -1.00D+00 NBFU=    57    17    33    33
 ExpMin= 8.99D-02 ExpMax= 4.58D+04 ExpMxC= 4.42D+02 IAcc=2 IRadAn=         4 AccDes= 0.00D+00
 Harris functional with IExCor=  205 and IRadAn=       4 diagonalized for initial guess.
 HarFok:  IExCor=  205 AccDes= 0.00D+00 IRadAn=         4 IDoV= 1 UseB2=F ITyADJ=14
 ICtDFT=  3500011 ScaDFX=  1.000000  1.000000  1.000000  1.000000
 FoFCou: FMM=F IPFlag=           0 FMFlag=      100000 FMFlg1=           0
         NFxFlg=           0 DoJE=T BraDBF=F KetDBF=T FulRan=T
         wScrn=  0.000000 ICntrl=     500 IOpCl=  0 I1Cent=   200000004 NGrid=           0
         NMat0=    1 NMatS0=      1 NMatT0=    0 NMatD0=    1 NMtDS0=    0 NMtDT0=    0
 Petite list used in FoFCou.
 Initial guess orbital symmetries:
       Occupied  (SG) (SG) (SG) (SG) (SG) (PI) (PI)
       Virtual   (PI) (PI) (SG) (SG) (PI) (PI) (SG) (SG) (PI) (PI)
                 (SG) (DLTA) (DLTA) (PI) (PI) (SG) (SG) (DLTA)
                 (DLTA) (PI) (PI) (SG) (SG) (SG) (PI) (PI) (PI)
                 (PI) (SG) (SG) (PHI) (PHI) (PI) (PI) (DLTA) (DLTA)
                 (DLTA) (DLTA) (SG) (PI) (PI) (PI) (PI) (SG) (DLTA)
                 (DLTA) (SG) (PHI) (PHI) (PI) (PI) (SG) (DLTA)
                 (DLTA) (SG) (PI) (PI) (DLTA) (DLTA) (SG) (SG)
                 (PI) (PI) (PI) (PI) (SG) (SG) (PHI) (PHI) (?A)
                 (?A) (DLTA) (DLTA) (PI) (PI) (PI) (PI) (DLTA)
                 (DLTA) (SG) (PHI) (PHI) (PI) (PI) (DLTA) (DLTA)
                 (PHI) (PHI) (SG) (?A) (?A) (SG) (PI) (PI) (SG)
                 (PHI) (PHI) (DLTA) (DLTA) (SG) (PI) (PI) (PI)
                 (PI) (DLTA) (DLTA) (SG) (PI) (PI) (PHI) (PHI)
                 (DLTA) (DLTA) (SG) (DLTA) (DLTA) (PI) (PI) (SG)
                 (DLTA) (DLTA) (PI) (PI) (SG) (SG) (PI) (PI) (SG)
                 (PI) (PI) (SG) (SG) (SG)
 The electronic state of the initial guess is 1-SG.
 Keep R1 ints in memory in symmetry-blocked form, NReq=61223581.
 Requested convergence on RMS density matrix=1.00D-08 within 128 cycles.
 Requested convergence on MAX density matrix=1.00D-06.
 Requested convergence on             energy=1.00D-06.
 No special actions if energy rises.
 SCF Done:  E(RHF) =  -92.9110831592     A.U. after   10 cycles
            NFock= 10  Conv=0.65D-08     -V/T= 2.0030
 Range of M.O.s used for correlation:     1   140
 NBasis=   140 NAE=     7 NBE=     7 NFC=     0 NFV=     0
 NROrb=    140 NOA=     7 NOB=     7 NVA=   133 NVB=   133

 **** Warning!!: The largest alpha MO coefficient is  0.21139764D+02

 Semi-Direct transformation.
 ModeAB=           2 MOrb=             7 LenV=     804602915
 LASXX=      2377004 LTotXX=     2377004 LenRXX=     2377004
 LTotAB=     2442057 MaxLAS=    15092000 LenRXY=    15092000
 NonZer=    15667260 LenScr=    24284160 LnRSAI=           0
 LnScr1=           0 LExtra=           0 Total=     41753164
 MaxDsk=          -1 SrtSym=           F ITran=            4
 JobTyp=0 Pass  1:  I=   1 to   7.
 (rs|ai) integrals will be sorted in core.
 Spin components of T(2) and E(2):
     alpha-alpha T2 =       0.1629119417D-01 E2=     -0.4839726327D-01
     alpha-beta  T2 =       0.9527260670D-01 E2=     -0.3300016405D+00
     beta-beta   T2 =       0.1629119417D-01 E2=     -0.4839726327D-01
 ANorm=    0.1062005177D+01
 E2 =    -0.4267961671D+00 EUMP2 =    -0.93337879326329D+02
 Keep R2 and R3 ints in memory in symmetry-blocked form, NReq=61112356.
 Iterations=  50 Convergence= 0.100D-06
 Iteration Nr.   1
 **********************
 DD1Dir will call FoFMem   1 times, MxPair=        56
 NAB=    28 NAA=     0 NBB=     0.
 MP4(R+Q)=  0.11896339D-01
 E3=        0.32667672D-02        EUMP3=      -0.93334612559D+02
 E4(DQ)=    0.47159583D-03        UMP4(DQ)=   -0.93334140963D+02
 E4(SDQ)=  -0.55786302D-02        UMP4(SDQ)=  -0.93340191189D+02
 DE(Corr)= -0.41129405     E(Corr)=     -93.322377207    
 NORM(A)=   0.10575922D+01
 Iteration Nr.   2
 **********************
 DD1Dir will call FoFMem   1 times, MxPair=        56
 NAB=    28 NAA=     0 NBB=     0.
 DE(Corr)= -0.42678912     E(CORR)=     -93.337872278     Delta=-1.55D-02
 NORM(A)=   0.10638840D+01
 Iteration Nr.   3
 **********************
 DD1Dir will call FoFMem   1 times, MxPair=        56
 NAB=    28 NAA=     0 NBB=     0.
 DE(Corr)= -0.42624639     E(CORR)=     -93.337329553     Delta= 5.43D-04
 NORM(A)=   0.10656472D+01
 Iteration Nr.   4
 **********************
 DD1Dir will call FoFMem   1 times, MxPair=        56
 NAB=    28 NAA=     0 NBB=     0.
 DE(Corr)= -0.42759059     E(CORR)=     -93.338673745     Delta=-1.34D-03
 NORM(A)=   0.10661377D+01
 Iteration Nr.   5
 **********************
 DD1Dir will call FoFMem   1 times, MxPair=        56
 NAB=    28 NAA=     0 NBB=     0.
 DE(Corr)= -0.42771666     E(CORR)=     -93.338799818     Delta=-1.26D-04
 NORM(A)=   0.10662293D+01
 Iteration Nr.   6
 **********************
 DD1Dir will call FoFMem   1 times, MxPair=        56
 NAB=    28 NAA=     0 NBB=     0.
 DE(Corr)= -0.42773310     E(CORR)=     -93.338816264     Delta=-1.64D-05
 NORM(A)=   0.10662278D+01
 Iteration Nr.   7
 **********************
 DD1Dir will call FoFMem   1 times, MxPair=        56
 NAB=    28 NAA=     0 NBB=     0.
 DE(Corr)= -0.42773583     E(CORR)=     -93.338818992     Delta=-2.73D-06
 NORM(A)=   0.10662268D+01
 Iteration Nr.   8
 **********************
 DD1Dir will call FoFMem   1 times, MxPair=        56
 NAB=    28 NAA=     0 NBB=     0.
 DE(Corr)= -0.42773474     E(CORR)=     -93.338817896     Delta= 1.10D-06
 NORM(A)=   0.10662268D+01
 Iteration Nr.   9
 **********************
 DD1Dir will call FoFMem   1 times, MxPair=        56
 NAB=    28 NAA=     0 NBB=     0.
 DE(Corr)= -0.42773540     E(CORR)=     -93.338818561     Delta=-6.65D-07
 NORM(A)=   0.10662271D+01
 Iteration Nr.  10
 **********************
 DD1Dir will call FoFMem   1 times, MxPair=        56
 NAB=    28 NAA=     0 NBB=     0.
 DE(Corr)= -0.42773539     E(CORR)=     -93.338818549     Delta= 1.16D-08
 NORM(A)=   0.10662273D+01
 Iteration Nr.  11
 **********************
 DD1Dir will call FoFMem   1 times, MxPair=        56
 NAB=    28 NAA=     0 NBB=     0.
 DE(Corr)= -0.42773549     E(CORR)=     -93.338818648     Delta=-9.81D-08
 NORM(A)=   0.10662274D+01
 Largest amplitude= 7.91D-02
 Discarding MO integrals.

 **********************************************************************

            Population analysis using the SCF density.

 **********************************************************************

 Orbital symmetries:
       Occupied  (SG) (SG) (SG) (SG) (SG) (PI) (PI)
       Virtual   (SG) (PI) (PI) (SG) (PI) (PI) (SG) (SG) (SG) (PI)
                 (PI) (DLTA) (DLTA) (PI) (PI) (SG) (SG) (DLTA)
                 (DLTA) (PI) (PI) (SG) (SG) (SG) (PI) (PI) (PI)
                 (PI) (SG) (SG) (PHI) (PHI) (PI) (PI) (DLTA) (DLTA)
                 (DLTA) (DLTA) (PI) (PI) (SG) (PI) (PI) (SG) (DLTA)
                 (DLTA) (SG) (PHI) (PHI) (PI) (PI) (SG) (DLTA)
                 (DLTA) (SG) (PI) (PI) (DLTA) (DLTA) (SG) (SG)
                 (PI) (PI) (PI) (PI) (SG) (SG) (PHI) (PHI) (?A)
                 (?A) (DLTA) (DLTA) (PI) (PI) (SG) (DLTA) (DLTA)
                 (PI) (PI) (PHI) (PHI) (PHI) (PHI) (PI) (PI) (DLTA)
                 (DLTA) (SG) (?A) (?A) (PI) (PI) (SG) (SG) (PHI)
                 (PHI) (DLTA) (DLTA) (SG) (PI) (PI) (DLTA) (DLTA)
                 (PI) (PI) (SG) (PI) (PI) (PHI) (PHI) (DLTA) (DLTA)
                 (SG) (PI) (PI) (DLTA) (DLTA) (SG) (DLTA) (DLTA)
                 (PI) (PI) (SG) (SG) (PI) (PI) (SG) (PI) (PI) (SG)
                 (SG) (SG)
 The electronic state is 1-SG.
 Alpha  occ. eigenvalues --  -15.60398 -11.29707  -1.22800  -0.81468  -0.58273
 Alpha  occ. eigenvalues --   -0.49147  -0.49147
 Alpha virt. eigenvalues --    0.11596   0.14758   0.14758   0.18525   0.33825
 Alpha virt. eigenvalues --    0.33825   0.34190   0.43160   0.48850   0.53707
 Alpha virt. eigenvalues --    0.53707   0.59719   0.59719   0.67256   0.67256
 Alpha virt. eigenvalues --    0.74438   0.94093   1.07184   1.07184   1.08323
 Alpha virt. eigenvalues --    1.08323   1.08613   1.20126   1.35222   1.37239
 Alpha virt. eigenvalues --    1.37239   1.48958   1.48958   1.52816   1.78369
 Alpha virt. eigenvalues --    1.87455   1.87455   1.95532   1.95532   1.95909
 Alpha virt. eigenvalues --    1.95909   2.03622   2.03622   2.32365   2.32365
 Alpha virt. eigenvalues --    2.33533   2.45986   2.45986   2.53921   2.60080
 Alpha virt. eigenvalues --    2.60080   2.75192   2.82211   2.82211   2.93889
 Alpha virt. eigenvalues --    2.93889   3.09468   3.18812   3.18812   3.22962
 Alpha virt. eigenvalues --    3.36284   3.36284   3.57177   3.57177   3.63054
 Alpha virt. eigenvalues --    3.96544   3.99331   3.99331   4.29693   4.29693
 Alpha virt. eigenvalues --    4.32984   4.92669   5.05557   5.05557   5.08239
 Alpha virt. eigenvalues --    5.08239   5.73802   5.73802   5.85604   5.85604
 Alpha virt. eigenvalues --    5.98972   6.03494   6.03494   6.04018   6.04018
 Alpha virt. eigenvalues --    6.21406   6.21406   6.33142   6.33142   6.37504
 Alpha virt. eigenvalues --    6.37504   6.39172   6.39172   6.58230   7.24137
 Alpha virt. eigenvalues --    7.24137   7.41534   7.41534   7.42813   7.55754
 Alpha virt. eigenvalues --    7.71519   7.71519   7.71667   7.71667   7.82313
 Alpha virt. eigenvalues --    7.84289   7.84289   8.28393   8.28393   8.46905
 Alpha virt. eigenvalues --    8.46905   8.66576   8.82534   8.82534   8.91539
 Alpha virt. eigenvalues --    8.91539   8.97462   8.97462   9.11647   9.16558
 Alpha virt. eigenvalues --    9.16558   9.33670   9.33670   9.42108  10.01520
 Alpha virt. eigenvalues --   10.01520  10.04272  10.04272  10.25968  10.59890
 Alpha virt. eigenvalues --   11.25231  11.25231  12.26574  12.59947  12.59947
 Alpha virt. eigenvalues --   14.33100  25.49146  32.54090
          Condensed to atoms (all electrons):
               1          2          3
     1  N    6.196704   1.035612  -0.037174
     2  C    1.035612   4.499913   0.429181
     3  H   -0.037174   0.429181   0.448144
 Mulliken charges:
               1
     1  N   -0.195142
     2  C    0.035294
     3  H    0.159849
 Sum of Mulliken charges =   0.00000
 Mulliken charges with hydrogens summed into heavy atoms:
               1
     1  N   -0.195142
     2  C    0.195142
 Electronic spatial extent (au):  <R**2>=             50.2775
 Charge=              0.0000 electrons
 Dipole moment (field-independent basis, Debye):
    X=              0.0000    Y=              0.0000    Z=             -3.2937  Tot=              3.2937
 Quadrupole moment (field-independent basis, Debye-Ang):
   XX=            -12.0134   YY=            -12.0134   ZZ=             -9.4847
   XY=              0.0000   XZ=              0.0000   YZ=              0.0000
 Traceless Quadrupole moment (field-independent basis, Debye-Ang):
   XX=             -0.8429   YY=             -0.8429   ZZ=              1.6858
   XY=              0.0000   XZ=              0.0000   YZ=              0.0000
 Octapole moment (field-independent basis, Debye-Ang**2):
  XXX=              0.0000  YYY=              0.0000  ZZZ=             -8.1242  XYY=              0.0000
  XXY=              0.0000  XXZ=             -0.4025  XZZ=              0.0000  YZZ=              0.0000
  YYZ=             -0.4025  XYZ=              0.0000
 Hexadecapole moment (field-independent basis, Debye-Ang**3):
 XXXX=            -12.4218 YYYY=            -12.4218 ZZZZ=            -35.3195 XXXY=              0.0000
 XXXZ=              0.0000 YYYX=              0.0000 YYYZ=              0.0000 ZZZX=              0.0000
 ZZZY=              0.0000 XXYY=             -4.1406 XXZZ=             -9.2475 YYZZ=             -9.2475
 XXYZ=              0.0000 YYXZ=              0.0000 ZZXY=              0.0000
 N-N= 2.361863004134D+01 E-N=-2.646701255158D+02  KE= 9.262951285681D+01
 Symmetry A1   KE= 8.726893986322D+01
 Symmetry A2   KE=-1.483436097000D-51
 Symmetry B1   KE= 2.680286496791D+00
 Symmetry B2   KE= 2.680286496791D+00
 1|1|UNPC-AS-SC101-07|SP|RCCSD-Full|CC-pVQZ|C1H1N1|EPKTB|03-Oct-2016|0|
 |# ccsd(full)/cc-pvqz gfp geom=allcheck||HNC-HCN||0,1|N,0,0.,0.,0.0305
 553042|C,0,0.,0.,1.2009947714|H,0,0.,0.,2.2684499244||Version=EM64W-G0
 9RevE.01|State=1-SG|HF=-92.9110832|MP2=-93.3378793|MP3=-93.3346126|MP4
 D=-93.3460373|MP4DQ=-93.334141|MP4SDQ=-93.3401912|CCSD=-93.3388186|RMS
 D=6.530e-009|PG=C*V [C*(H1C1N1)]||@


 I think that all right-thinking people in this
 country are sick and tired of being told that
 ordinary, decent people are fed up in this country
 with being sick and tired.  I'm certainly not!
 But I'm sick and tired of being told that I am!
                               -- Monty Python
 Job cpu time:       0 days  0 hours  0 minutes 44.0 seconds.
 File lengths (MBytes):  RWF=    332 Int=      0 D2E=      0 Chk=      2 Scr=      1
 Normal termination of Gaussian 09 at Mon Oct 03 16:39:16 2016.
