 Entering Link 1 = C:\G09W\l1.exe PID=      6632.
  
 Copyright (c) 1988,1990,1992,1993,1995,1998,2003,2009,2015,
            Gaussian, Inc.  All Rights Reserved.
  
 This is part of the Gaussian(R) 09 program.  It is based on
 the Gaussian(R) 03 system (copyright 2003, Gaussian, Inc.),
 the Gaussian(R) 98 system (copyright 1998, Gaussian, Inc.),
 the Gaussian(R) 94 system (copyright 1995, Gaussian, Inc.),
 the Gaussian 92(TM) system (copyright 1992, Gaussian, Inc.),
 the Gaussian 90(TM) system (copyright 1990, Gaussian, Inc.),
 the Gaussian 88(TM) system (copyright 1988, Gaussian, Inc.),
 the Gaussian 86(TM) system (copyright 1986, Carnegie Mellon
 University), and the Gaussian 82(TM) system (copyright 1983,
 Carnegie Mellon University). Gaussian is a federally registered
 trademark of Gaussian, Inc.
  
 This software contains proprietary and confidential information,
 including trade secrets, belonging to Gaussian, Inc.
  
 This software is provided under written license and may be
 used, copied, transmitted, or stored only in accord with that
 written license.
  
 The following legend is applicable only to US Government
 contracts under FAR:
  
                    RESTRICTED RIGHTS LEGEND
  
 Use, reproduction and disclosure by the US Government is
 subject to restrictions as set forth in subparagraphs (a)
 and (c) of the Commercial Computer Software - Restricted
 Rights clause in FAR 52.227-19.
  
 Gaussian, Inc.
 340 Quinnipiac St., Bldg. 40, Wallingford CT 06492
  
  
 ---------------------------------------------------------------
 Warning -- This program may not be used in any manner that
 competes with the business of Gaussian, Inc. or will provide
 assistance to any competitor of Gaussian, Inc.  The licensee
 of this program is prohibited from giving any competitor of
 Gaussian, Inc. access to this program.  By using this program,
 the user acknowledges that Gaussian, Inc. is engaged in the
 business of creating and licensing software in the field of
 computational chemistry and represents and warrants to the
 licensee that it is not a competitor of Gaussian, Inc. and that
 it will not use this program in any manner prohibited above.
 ---------------------------------------------------------------
  

 Cite this work as:
 Gaussian 09, Revision E.01,
 M. J. Frisch, G. W. Trucks, H. B. Schlegel, G. E. Scuseria, 
 M. A. Robb, J. R. Cheeseman, G. Scalmani, V. Barone, B. Mennucci, 
 G. A. Petersson, H. Nakatsuji, M. Caricato, X. Li, H. P. Hratchian, 
 A. F. Izmaylov, J. Bloino, G. Zheng, J. L. Sonnenberg, M. Hada, 
 M. Ehara, K. Toyota, R. Fukuda, J. Hasegawa, M. Ishida, T. Nakajima, 
 Y. Honda, O. Kitao, H. Nakai, T. Vreven, J. A. Montgomery, Jr., 
 J. E. Peralta, F. Ogliaro, M. Bearpark, J. J. Heyd, E. Brothers, 
 K. N. Kudin, V. N. Staroverov, T. Keith, R. Kobayashi, J. Normand, 
 K. Raghavachari, A. Rendell, J. C. Burant, S. S. Iyengar, J. Tomasi, 
 M. Cossi, N. Rega, J. M. Millam, M. Klene, J. E. Knox, J. B. Cross, 
 V. Bakken, C. Adamo, J. Jaramillo, R. Gomperts, R. E. Stratmann, 
 O. Yazyev, A. J. Austin, R. Cammi, C. Pomelli, J. W. Ochterski, 
 R. L. Martin, K. Morokuma, V. G. Zakrzewski, G. A. Voth, 
 P. Salvador, J. J. Dannenberg, S. Dapprich, A. D. Daniels, 
 O. Farkas, J. B. Foresman, J. V. Ortiz, J. Cioslowski, 
 and D. J. Fox, Gaussian, Inc., Wallingford CT, 2013.
 
 ******************************************
 Gaussian 09:  EM64W-G09RevE.01 30-Nov-2015
                03-Oct-2016 
 ******************************************
 %mem=6GB
 %nprocshared=3
 Will use up to    3 processors via shared memory.
 %oldchk=C:\Users\epktb\Desktop\A04\hnc-mp2full-0
 %chk=C:\Users\epktb\Desktop\A04\hnc-ccsd-ccpvqz-0
 Copying data from "C:\Users\epktb\Desktop\A04\hnc-mp2full-0.chk" to current chk file "C:\Users\epktb\Desktop\A04\hnc-ccs
 d-ccpvqz-0.chk".
 --------------------------------------
 # ccsd(full)/cc-pvqz gfp geom=allcheck
 --------------------------------------
 1/29=7,38=1/1;
 2/12=2,40=1/2;
 3/5=16,6=2,11=9,14=-4,16=1,24=100,25=1,30=1/1,2,3;
 4//1;
 5/5=2,38=5/2;
 8/6=4,9=120000,10=90/1,4;
 9/5=7/13;
 6/7=2,8=2,9=2,10=2/1;
 99/5=1,9=1/99;
 Structure from the checkpoint file:  "C:\Users\epktb\Desktop\A04\hnc-ccsd-ccpvqz-0.chk"
 -------
 HNC-HCN
 -------
 Charge =  0 Multiplicity = 1
 Redundant internal coordinates found in file.
 N,0,0.,0.,-0.1601404403
 C,0,0.,0.,1.0204345423
 H,0,0.,0.,-1.160294102
 Recover connectivity data from disk.
                          Input orientation:                          
 ---------------------------------------------------------------------
 Center     Atomic      Atomic             Coordinates (Angstroms)
 Number     Number       Type             X           Y           Z
 ---------------------------------------------------------------------
      1          7           0        0.000000    0.000000   -0.160140
      2          6           0        0.000000    0.000000    1.020435
      3          1           0        0.000000    0.000000   -1.160294
 ---------------------------------------------------------------------
                    Distance matrix (angstroms):
                    1          2          3
     1  N    0.000000
     2  C    1.180575   0.000000
     3  H    1.000154   2.180729   0.000000
 Stoichiometry    CHN
 Framework group  C*V[C*(CNH)]
 Deg. of freedom     2
 Full point group                 C*V     NOp   4
 Largest Abelian subgroup         C2V     NOp   4
 Largest concise Abelian subgroup C1      NOp   1
                         Standard orientation:                         
 ---------------------------------------------------------------------
 Center     Atomic      Atomic             Coordinates (Angstroms)
 Number     Number       Type             X           Y           Z
 ---------------------------------------------------------------------
      1          7           0        0.000000    0.000000    0.434521
      2          6           0        0.000000    0.000000   -0.746054
      3          1           0        0.000000    0.000000    1.434675
 ---------------------------------------------------------------------
 Rotational constants (GHZ):      0.0000000     44.6346099     44.6346099
 Standard basis: CC-pVQZ (5D, 7F)
 AO basis set (Overlap normalization):
 Atom N1       Shell     1 S   8     bf    1 -     1          0.000000000000          0.000000000000          0.821125990469
      0.4584000000D+05  0.1534988599D-03
      0.6868000000D+04  0.1179826628D-02
      0.1563000000D+04  0.6207746267D-02
      0.4424000000D+03  0.2538092332D-01
      0.1443000000D+03  0.8650277680D-01
      0.5218000000D+02  0.2266189482D+00
      0.2034000000D+02  0.4355021992D+00
      0.8381000000D+01  0.3465592023D+00
 Atom N1       Shell     2 S   7     bf    2 -     2          0.000000000000          0.000000000000          0.821125990469
      0.6868000000D+04 -0.1039792478D-04
      0.4424000000D+03 -0.4736517491D-03
      0.1443000000D+03 -0.2102474955D-02
      0.5218000000D+02 -0.2306147530D-01
      0.2034000000D+02 -0.9676852612D-01
      0.8381000000D+01 -0.4376637933D+00
      0.3529000000D+01 -0.5056218861D+00
 Atom N1       Shell     3 S   1     bf    3 -     3          0.000000000000          0.000000000000          0.821125990469
      0.1054000000D+01  0.1000000000D+01
 Atom N1       Shell     4 S   1     bf    4 -     4          0.000000000000          0.000000000000          0.821125990469
      0.4118000000D+00  0.1000000000D+01
 Atom N1       Shell     5 S   1     bf    5 -     5          0.000000000000          0.000000000000          0.821125990469
      0.1552000000D+00  0.1000000000D+01
 Atom N1       Shell     6 P   3     bf    6 -     8          0.000000000000          0.000000000000          0.821125990469
      0.4933000000D+02  0.3112609737D-01
      0.1137000000D+02  0.2135566435D+00
      0.3435000000D+01  0.8383625589D+00
 Atom N1       Shell     7 P   1     bf    9 -    11          0.000000000000          0.000000000000          0.821125990469
      0.1182000000D+01  0.1000000000D+01
 Atom N1       Shell     8 P   1     bf   12 -    14          0.000000000000          0.000000000000          0.821125990469
      0.4173000000D+00  0.1000000000D+01
 Atom N1       Shell     9 P   1     bf   15 -    17          0.000000000000          0.000000000000          0.821125990469
      0.1428000000D+00  0.1000000000D+01
 Atom N1       Shell    10 D   1     bf   18 -    22          0.000000000000          0.000000000000          0.821125990469
      0.2837000000D+01  0.1000000000D+01
 Atom N1       Shell    11 D   1     bf   23 -    27          0.000000000000          0.000000000000          0.821125990469
      0.9680000000D+00  0.1000000000D+01
 Atom N1       Shell    12 D   1     bf   28 -    32          0.000000000000          0.000000000000          0.821125990469
      0.3350000000D+00  0.1000000000D+01
 Atom N1       Shell    13 F   1     bf   33 -    39          0.000000000000          0.000000000000          0.821125990469
      0.2027000000D+01  0.1000000000D+01
 Atom N1       Shell    14 F   1     bf   40 -    46          0.000000000000          0.000000000000          0.821125990469
      0.6850000000D+00  0.1000000000D+01
 Atom N1       Shell    15 G   1     bf   47 -    55          0.000000000000          0.000000000000          0.821125990469
      0.1427000000D+01  0.1000000000D+01
 Atom C2       Shell    16 S   8     bf   56 -    56          0.000000000000          0.000000000000         -1.409837405889
      0.3398000000D+05  0.1468124114D-03
      0.5089000000D+04  0.1116460016D-02
      0.1157000000D+04  0.5890887108D-02
      0.3266000000D+03  0.2421725547D-01
      0.1061000000D+03  0.8317163879D-01
      0.3811000000D+02  0.2205684777D+00
      0.1475000000D+02  0.4287314969D+00
      0.6035000000D+01  0.3643614225D+00
 Atom C2       Shell    17 S   7     bf   57 -    57          0.000000000000          0.000000000000         -1.409837405889
      0.5089000000D+04 -0.1002265364D-04
      0.3266000000D+03 -0.4365894368D-03
      0.1061000000D+03 -0.1932312730D-02
      0.3811000000D+02 -0.2148394772D-01
      0.1475000000D+02 -0.9030916566D-01
      0.6035000000D+01 -0.4187915117D+00
      0.2530000000D+01 -0.5318019058D+00
 Atom C2       Shell    18 S   1     bf   58 -    58          0.000000000000          0.000000000000         -1.409837405889
      0.7355000000D+00  0.1000000000D+01
 Atom C2       Shell    19 S   1     bf   59 -    59          0.000000000000          0.000000000000         -1.409837405889
      0.2905000000D+00  0.1000000000D+01
 Atom C2       Shell    20 S   1     bf   60 -    60          0.000000000000          0.000000000000         -1.409837405889
      0.1111000000D+00  0.1000000000D+01
 Atom C2       Shell    21 P   3     bf   61 -    63          0.000000000000          0.000000000000         -1.409837405889
      0.3451000000D+02  0.3168785521D-01
      0.7915000000D+01  0.2128943073D+00
      0.2368000000D+01  0.8395867520D+00
 Atom C2       Shell    22 P   1     bf   64 -    66          0.000000000000          0.000000000000         -1.409837405889
      0.8132000000D+00  0.1000000000D+01
 Atom C2       Shell    23 P   1     bf   67 -    69          0.000000000000          0.000000000000         -1.409837405889
      0.2890000000D+00  0.1000000000D+01
 Atom C2       Shell    24 P   1     bf   70 -    72          0.000000000000          0.000000000000         -1.409837405889
      0.1007000000D+00  0.1000000000D+01
 Atom C2       Shell    25 D   1     bf   73 -    77          0.000000000000          0.000000000000         -1.409837405889
      0.1848000000D+01  0.1000000000D+01
 Atom C2       Shell    26 D   1     bf   78 -    82          0.000000000000          0.000000000000         -1.409837405889
      0.6490000000D+00  0.1000000000D+01
 Atom C2       Shell    27 D   1     bf   83 -    87          0.000000000000          0.000000000000         -1.409837405889
      0.2280000000D+00  0.1000000000D+01
 Atom C2       Shell    28 F   1     bf   88 -    94          0.000000000000          0.000000000000         -1.409837405889
      0.1419000000D+01  0.1000000000D+01
 Atom C2       Shell    29 F   1     bf   95 -   101          0.000000000000          0.000000000000         -1.409837405889
      0.4850000000D+00  0.1000000000D+01
 Atom C2       Shell    30 G   1     bf  102 -   110          0.000000000000          0.000000000000         -1.409837405889
      0.1011000000D+01  0.1000000000D+01
 Atom H3       Shell    31 S   3     bf  111 -   111          0.000000000000          0.000000000000          2.711142502053
      0.8264000000D+02  0.2295075779D-01
      0.1241000000D+02  0.1755401181D+00
      0.2824000000D+01  0.8647035510D+00
 Atom H3       Shell    32 S   1     bf  112 -   112          0.000000000000          0.000000000000          2.711142502053
      0.7977000000D+00  0.1000000000D+01
 Atom H3       Shell    33 S   1     bf  113 -   113          0.000000000000          0.000000000000          2.711142502053
      0.2581000000D+00  0.1000000000D+01
 Atom H3       Shell    34 S   1     bf  114 -   114          0.000000000000          0.000000000000          2.711142502053
      0.8989000000D-01  0.1000000000D+01
 Atom H3       Shell    35 P   1     bf  115 -   117          0.000000000000          0.000000000000          2.711142502053
      0.2292000000D+01  0.1000000000D+01
 Atom H3       Shell    36 P   1     bf  118 -   120          0.000000000000          0.000000000000          2.711142502053
      0.8380000000D+00  0.1000000000D+01
 Atom H3       Shell    37 P   1     bf  121 -   123          0.000000000000          0.000000000000          2.711142502053
      0.2920000000D+00  0.1000000000D+01
 Atom H3       Shell    38 D   1     bf  124 -   128          0.000000000000          0.000000000000          2.711142502053
      0.2062000000D+01  0.1000000000D+01
 Atom H3       Shell    39 D   1     bf  129 -   133          0.000000000000          0.000000000000          2.711142502053
      0.6620000000D+00  0.1000000000D+01
 Atom H3       Shell    40 F   1     bf  134 -   140          0.000000000000          0.000000000000          2.711142502053
      0.1397000000D+01  0.1000000000D+01
 There are    76 symmetry adapted cartesian basis functions of A1  symmetry.
 There are    19 symmetry adapted cartesian basis functions of A2  symmetry.
 There are    40 symmetry adapted cartesian basis functions of B1  symmetry.
 There are    40 symmetry adapted cartesian basis functions of B2  symmetry.
 There are    57 symmetry adapted basis functions of A1  symmetry.
 There are    17 symmetry adapted basis functions of A2  symmetry.
 There are    33 symmetry adapted basis functions of B1  symmetry.
 There are    33 symmetry adapted basis functions of B2  symmetry.
   140 basis functions,   215 primitive gaussians,   175 cartesian basis functions
     7 alpha electrons        7 beta electrons
       nuclear repulsion energy        23.9855833391 Hartrees.
 NAtoms=    3 NActive=    3 NUniq=    3 SFac= 1.00D+00 NAtFMM=   60 NAOKFM=F Big=F
 Integral buffers will be    131072 words long.
 Raffenetti 1 integral format.
 Two-electron integral symmetry is turned on.
 One-electron integrals computed using PRISM.
 NBasis=   140 RedAO= T EigKep=  3.42D-04  NBF=    57    17    33    33
 NBsUse=   140 1.00D-06 EigRej= -1.00D+00 NBFU=    57    17    33    33
 ExpMin= 8.99D-02 ExpMax= 4.58D+04 ExpMxC= 4.42D+02 IAcc=2 IRadAn=         4 AccDes= 0.00D+00
 Harris functional with IExCor=  205 and IRadAn=       4 diagonalized for initial guess.
 HarFok:  IExCor=  205 AccDes= 0.00D+00 IRadAn=         4 IDoV= 1 UseB2=F ITyADJ=14
 ICtDFT=  3500011 ScaDFX=  1.000000  1.000000  1.000000  1.000000
 FoFCou: FMM=F IPFlag=           0 FMFlag=      100000 FMFlg1=           0
         NFxFlg=           0 DoJE=T BraDBF=F KetDBF=T FulRan=T
         wScrn=  0.000000 ICntrl=     500 IOpCl=  0 I1Cent=   200000004 NGrid=           0
         NMat0=    1 NMatS0=      1 NMatT0=    0 NMatD0=    1 NMtDS0=    0 NMtDT0=    0
 Petite list used in FoFCou.
 Initial guess orbital symmetries:
       Occupied  (SG) (SG) (SG) (SG) (PI) (PI) (SG)
       Virtual   (PI) (PI) (SG) (SG) (SG) (PI) (PI) (SG) (PI) (PI)
                 (SG) (DLTA) (DLTA) (PI) (PI) (SG) (SG) (SG) (DLTA)
                 (DLTA) (PI) (PI) (SG) (PI) (PI) (PI) (PI) (SG)
                 (SG) (PHI) (PHI) (DLTA) (DLTA) (SG) (DLTA) (DLTA)
                 (PI) (PI) (SG) (PI) (PI) (SG) (DLTA) (DLTA) (PI)
                 (PI) (SG) (PI) (PI) (PHI) (PHI) (PI) (PI) (DLTA)
                 (DLTA) (SG) (SG) (SG) (DLTA) (DLTA) (SG) (PI)
                 (PI) (PI) (PI) (SG) (?A) (?A) (PHI) (PHI) (SG)
                 (PI) (PI) (DLTA) (DLTA) (PI) (PI) (PHI) (PHI)
                 (SG) (DLTA) (DLTA) (PHI) (PHI) (DLTA) (DLTA) (SG)
                 (PI) (PI) (?A) (?A) (SG) (PI) (PI) (DLTA) (DLTA)
                 (SG) (PI) (PI) (PHI) (PHI) (SG) (PI) (PI) (DLTA)
                 (DLTA) (PI) (PI) (SG) (SG) (PHI) (PHI) (DLTA)
                 (DLTA) (PI) (PI) (DLTA) (DLTA) (SG) (PI) (PI)
                 (SG) (DLTA) (DLTA) (PI) (PI) (SG) (PI) (PI) (SG)
                 (SG) (SG) (SG)
 The electronic state of the initial guess is 1-SG.
 Keep R1 ints in memory in symmetry-blocked form, NReq=61223581.
 Requested convergence on RMS density matrix=1.00D-08 within 128 cycles.
 Requested convergence on MAX density matrix=1.00D-06.
 Requested convergence on             energy=1.00D-06.
 No special actions if energy rises.
 SCF Done:  E(RHF) =  -92.8970837091     A.U. after   10 cycles
            NFock= 10  Conv=0.30D-08     -V/T= 2.0023
 Range of M.O.s used for correlation:     1   140
 NBasis=   140 NAE=     7 NBE=     7 NFC=     0 NFV=     0
 NROrb=    140 NOA=     7 NOB=     7 NVA=   133 NVB=   133

 **** Warning!!: The largest alpha MO coefficient is  0.20308869D+02

 Semi-Direct transformation.
 ModeAB=           2 MOrb=             7 LenV=     804602828
 LASXX=      2377004 LTotXX=     2377004 LenRXX=     2377004
 LTotAB=     2442057 MaxLAS=    15092000 LenRXY=    15092000
 NonZer=    15668240 LenScr=    24284160 LnRSAI=           0
 LnScr1=           0 LExtra=           0 Total=     41753164
 MaxDsk=          -1 SrtSym=           F ITran=            4
 JobTyp=0 Pass  1:  I=   1 to   7.
 (rs|ai) integrals will be sorted in core.
 Spin components of T(2) and E(2):
     alpha-alpha T2 =       0.1443500651D-01 E2=     -0.4616539324D-01
     alpha-beta  T2 =       0.8718768573D-01 E2=     -0.3200672817D+00
     beta-beta   T2 =       0.1443500651D-01 E2=     -0.4616539324D-01
 ANorm=    0.1056436320D+01
 E2 =    -0.4123980682D+00 EUMP2 =    -0.93309481777282D+02
 Keep R2 and R3 ints in memory in symmetry-blocked form, NReq=61112356.
 Iterations=  50 Convergence= 0.100D-06
 Iteration Nr.   1
 **********************
 DD1Dir will call FoFMem   1 times, MxPair=        56
 NAB=    28 NAA=     0 NBB=     0.
 MP4(R+Q)=  0.10892994D-01
 E3=       -0.38355424D-02        EUMP3=      -0.93313317320D+02
 E4(DQ)=    0.13808553D-02        UMP4(DQ)=   -0.93311936464D+02
 E4(SDQ)=  -0.39518542D-02        UMP4(SDQ)=  -0.93317269174D+02
 DE(Corr)= -0.40496569     E(Corr)=     -93.302049404    
 NORM(A)=   0.10559719D+01
 Iteration Nr.   2
 **********************
 DD1Dir will call FoFMem   1 times, MxPair=        56
 NAB=    28 NAA=     0 NBB=     0.
 DE(Corr)= -0.41792238     E(CORR)=     -93.315006085     Delta=-1.30D-02
 NORM(A)=   0.10616418D+01
 Iteration Nr.   3
 **********************
 DD1Dir will call FoFMem   1 times, MxPair=        56
 NAB=    28 NAA=     0 NBB=     0.
 DE(Corr)= -0.41764966     E(CORR)=     -93.314733371     Delta= 2.73D-04
 NORM(A)=   0.10634698D+01
 Iteration Nr.   4
 **********************
 DD1Dir will call FoFMem   1 times, MxPair=        56
 NAB=    28 NAA=     0 NBB=     0.
 DE(Corr)= -0.41889922     E(CORR)=     -93.315982933     Delta=-1.25D-03
 NORM(A)=   0.10639363D+01
 Iteration Nr.   5
 **********************
 DD1Dir will call FoFMem   1 times, MxPair=        56
 NAB=    28 NAA=     0 NBB=     0.
 DE(Corr)= -0.41903285     E(CORR)=     -93.316116558     Delta=-1.34D-04
 NORM(A)=   0.10640804D+01
 Iteration Nr.   6
 **********************
 DD1Dir will call FoFMem   1 times, MxPair=        56
 NAB=    28 NAA=     0 NBB=     0.
 DE(Corr)= -0.41904485     E(CORR)=     -93.316128564     Delta=-1.20D-05
 NORM(A)=   0.10640881D+01
 Iteration Nr.   7
 **********************
 DD1Dir will call FoFMem   1 times, MxPair=        56
 NAB=    28 NAA=     0 NBB=     0.
 DE(Corr)= -0.41904749     E(CORR)=     -93.316131201     Delta=-2.64D-06
 NORM(A)=   0.10640903D+01
 Iteration Nr.   8
 **********************
 DD1Dir will call FoFMem   1 times, MxPair=        56
 NAB=    28 NAA=     0 NBB=     0.
 DE(Corr)= -0.41904528     E(CORR)=     -93.316128987     Delta= 2.21D-06
 NORM(A)=   0.10640913D+01
 Iteration Nr.   9
 **********************
 DD1Dir will call FoFMem   1 times, MxPair=        56
 NAB=    28 NAA=     0 NBB=     0.
 DE(Corr)= -0.41904661     E(CORR)=     -93.316130322     Delta=-1.33D-06
 NORM(A)=   0.10640922D+01
 Iteration Nr.  10
 **********************
 DD1Dir will call FoFMem   1 times, MxPair=        56
 NAB=    28 NAA=     0 NBB=     0.
 DE(Corr)= -0.41904631     E(CORR)=     -93.316130019     Delta= 3.02D-07
 NORM(A)=   0.10640926D+01
 Iteration Nr.  11
 **********************
 DD1Dir will call FoFMem   1 times, MxPair=        56
 NAB=    28 NAA=     0 NBB=     0.
 DE(Corr)= -0.41904661     E(CORR)=     -93.316130315     Delta=-2.95D-07
 NORM(A)=   0.10640928D+01
 Iteration Nr.  12
 **********************
 DD1Dir will call FoFMem   1 times, MxPair=        56
 NAB=    28 NAA=     0 NBB=     0.
 DE(Corr)= -0.41904663     E(CORR)=     -93.316130339     Delta=-2.37D-08
 NORM(A)=   0.10640929D+01
 Largest amplitude= 6.47D-02
 Discarding MO integrals.

 **********************************************************************

            Population analysis using the SCF density.

 **********************************************************************

 Orbital symmetries:
       Occupied  (SG) (SG) (SG) (SG) (PI) (PI) (SG)
       Virtual   (SG) (PI) (PI) (SG) (SG) (PI) (PI) (SG) (PI) (PI)
                 (SG) (DLTA) (DLTA) (PI) (PI) (SG) (SG) (PI) (PI)
                 (SG) (DLTA) (DLTA) (SG) (PI) (PI) (SG) (PI) (PI)
                 (SG) (PHI) (PHI) (DLTA) (DLTA) (SG) (DLTA) (DLTA)
                 (PI) (PI) (SG) (PI) (PI) (SG) (DLTA) (DLTA) (PI)
                 (PI) (SG) (PI) (PI) (PHI) (PHI) (PI) (PI) (SG)
                 (DLTA) (DLTA) (SG) (SG) (DLTA) (DLTA) (SG) (PI)
                 (PI) (PI) (PI) (SG) (?A) (?A) (PHI) (PHI) (SG)
                 (PI) (PI) (DLTA) (DLTA) (PHI) (PHI) (PI) (PI)
                 (SG) (PHI) (PHI) (DLTA) (DLTA) (DLTA) (DLTA) (SG)
                 (PI) (PI) (?A) (?A) (PI) (PI) (DLTA) (DLTA) (SG)
                 (SG) (PI) (PI) (PHI) (PHI) (SG) (DLTA) (DLTA)
                 (PI) (PI) (PI) (PI) (SG) (SG) (PHI) (PHI) (DLTA)
                 (DLTA) (PI) (PI) (DLTA) (DLTA) (SG) (PI) (PI)
                 (SG) (DLTA) (DLTA) (SG) (PI) (PI) (PI) (PI) (SG)
                 (SG) (SG) (SG)
 The electronic state is 1-SG.
 Alpha  occ. eigenvalues --  -15.60477 -11.30070  -1.25895  -0.87223  -0.51661
 Alpha  occ. eigenvalues --   -0.51661  -0.49353
 Alpha virt. eigenvalues --    0.10568   0.15868   0.15868   0.23426   0.32833
 Alpha virt. eigenvalues --    0.35154   0.35154   0.41876   0.50936   0.50936
 Alpha virt. eigenvalues --    0.56070   0.62493   0.62493   0.68511   0.68511
 Alpha virt. eigenvalues --    0.69305   0.88383   0.99656   0.99656   0.99689
 Alpha virt. eigenvalues --    1.03273   1.03273   1.21288   1.32992   1.32992
 Alpha virt. eigenvalues --    1.45724   1.54869   1.54869   1.62013   1.90572
 Alpha virt. eigenvalues --    1.90572   1.97056   1.97056   2.03010   2.10861
 Alpha virt. eigenvalues --    2.10861   2.22141   2.22141   2.23455   2.27182
 Alpha virt. eigenvalues --    2.27182   2.30986   2.44118   2.44118   2.45947
 Alpha virt. eigenvalues --    2.45947   2.59938   2.74512   2.74512   2.78097
 Alpha virt. eigenvalues --    2.78097   2.97026   2.97026   3.07189   3.12157
 Alpha virt. eigenvalues --    3.12157   3.21273   3.56406   3.59783   3.59783
 Alpha virt. eigenvalues --    4.08229   4.10459   4.10459   4.47981   4.47981
 Alpha virt. eigenvalues --    4.81049   5.10975   5.10975   5.17711   5.17711
 Alpha virt. eigenvalues --    5.38965   5.79754   5.79754   5.82000   5.82000
 Alpha virt. eigenvalues --    6.02652   6.02652   6.11731   6.11731   6.21867
 Alpha virt. eigenvalues --    6.26115   6.26115   6.28127   6.28127   6.36011
 Alpha virt. eigenvalues --    6.36011   6.54968   6.62739   6.62739   7.21111
 Alpha virt. eigenvalues --    7.21111   7.26886   7.26886   7.29102   7.29102
 Alpha virt. eigenvalues --    7.30431   7.56150   7.80146   7.80146   7.84844
 Alpha virt. eigenvalues --    7.84844   7.94760   8.05829   8.05829   8.16930
 Alpha virt. eigenvalues --    8.16930   8.48385   8.48385   8.58230   8.81432
 Alpha virt. eigenvalues --    8.89240   8.89240   9.06251   9.06251   9.26574
 Alpha virt. eigenvalues --    9.26574   9.31506   9.31506   9.38731   9.48918
 Alpha virt. eigenvalues --    9.48918   9.97857  10.17138  10.17138  11.06188
 Alpha virt. eigenvalues --   11.18569  11.18569  13.22790  13.22790  13.59345
 Alpha virt. eigenvalues --   14.93184  25.14560  34.22732
          Condensed to atoms (all electrons):
               1          2          3
     1  N    6.326711   0.581584   0.410922
     2  C    0.581584   5.341979  -0.011187
     3  H    0.410922  -0.011187   0.368671
 Mulliken charges:
               1
     1  N   -0.319218
     2  C    0.087623
     3  H    0.231594
 Sum of Mulliken charges =   0.00000
 Mulliken charges with hydrogens summed into heavy atoms:
               1
     1  N   -0.087623
     2  C    0.087623
 Electronic spatial extent (au):  <R**2>=             49.6058
 Charge=              0.0000 electrons
 Dipole moment (field-independent basis, Debye):
    X=              0.0000    Y=              0.0000    Z=              2.8312  Tot=              2.8312
 Quadrupole moment (field-independent basis, Debye-Ang):
   XX=            -12.1517   YY=            -12.1517   ZZ=            -10.1427
   XY=              0.0000   XZ=              0.0000   YZ=              0.0000
 Traceless Quadrupole moment (field-independent basis, Debye-Ang):
   XX=             -0.6697   YY=             -0.6697   ZZ=              1.3393
   XY=              0.0000   XZ=              0.0000   YZ=              0.0000
 Octapole moment (field-independent basis, Debye-Ang**2):
  XXX=              0.0000  YYY=              0.0000  ZZZ=             14.7664  XYY=              0.0000
  XXY=              0.0000  XXZ=              1.2960  XZZ=              0.0000  YZZ=              0.0000
  YYZ=              1.2960  XYZ=              0.0000
 Hexadecapole moment (field-independent basis, Debye-Ang**3):
 XXXX=            -12.5396 YYYY=            -12.5396 ZZZZ=            -41.6839 XXXY=              0.0000
 XXXZ=              0.0000 YYYX=              0.0000 YYYZ=              0.0000 ZZZX=              0.0000
 ZZZY=              0.0000 XXYY=             -4.1799 XXZZ=             -9.8101 YYZZ=             -9.8101
 XXYZ=              0.0000 YYXZ=              0.0000 ZZXY=              0.0000
 N-N= 2.398558333907D+01 E-N=-2.653180197224D+02  KE= 9.267951393056D+01
 Symmetry A1   KE= 8.694710351777D+01
 Symmetry A2   KE=-6.563453640522D-52
 Symmetry B1   KE= 2.866205206391D+00
 Symmetry B2   KE= 2.866205206391D+00
 1|1|UNPC-AS-SC101-07|SP|RCCSD-Full|CC-pVQZ|C1H1N1|EPKTB|03-Oct-2016|0|
 |# ccsd(full)/cc-pvqz gfp geom=allcheck||HNC-HCN||0,1|N,0,0.,0.,-0.160
 1404403|C,0,0.,0.,1.0204345423|H,0,0.,0.,-1.160294102||Version=EM64W-G
 09RevE.01|State=1-SG|HF=-92.8970837|MP2=-93.3094818|MP3=-93.3133173|MP
 4D=-93.3228295|MP4DQ=-93.3119365|MP4SDQ=-93.3172692|CCSD=-93.3161303|R
 MSD=2.993e-009|PG=C*V [C*(C1N1H1)]||@


 A great many people think they are thinking when they
 are merely rearranging their prejudices.
                               -- William James
 Job cpu time:       0 days  0 hours  1 minutes 17.0 seconds.
 File lengths (MBytes):  RWF=    332 Int=      0 D2E=      0 Chk=      2 Scr=      1
 Normal termination of Gaussian 09 at Mon Oct 03 16:37:50 2016.
