 Entering Link 1 = C:\G09W\l1.exe PID=      6000.
  
 Copyright (c) 1988,1990,1992,1993,1995,1998,2003,2009,2015,
            Gaussian, Inc.  All Rights Reserved.
  
 This is part of the Gaussian(R) 09 program.  It is based on
 the Gaussian(R) 03 system (copyright 2003, Gaussian, Inc.),
 the Gaussian(R) 98 system (copyright 1998, Gaussian, Inc.),
 the Gaussian(R) 94 system (copyright 1995, Gaussian, Inc.),
 the Gaussian 92(TM) system (copyright 1992, Gaussian, Inc.),
 the Gaussian 90(TM) system (copyright 1990, Gaussian, Inc.),
 the Gaussian 88(TM) system (copyright 1988, Gaussian, Inc.),
 the Gaussian 86(TM) system (copyright 1986, Carnegie Mellon
 University), and the Gaussian 82(TM) system (copyright 1983,
 Carnegie Mellon University). Gaussian is a federally registered
 trademark of Gaussian, Inc.
  
 This software contains proprietary and confidential information,
 including trade secrets, belonging to Gaussian, Inc.
  
 This software is provided under written license and may be
 used, copied, transmitted, or stored only in accord with that
 written license.
  
 The following legend is applicable only to US Government
 contracts under FAR:
  
                    RESTRICTED RIGHTS LEGEND
  
 Use, reproduction and disclosure by the US Government is
 subject to restrictions as set forth in subparagraphs (a)
 and (c) of the Commercial Computer Software - Restricted
 Rights clause in FAR 52.227-19.
  
 Gaussian, Inc.
 340 Quinnipiac St., Bldg. 40, Wallingford CT 06492
  
  
 ---------------------------------------------------------------
 Warning -- This program may not be used in any manner that
 competes with the business of Gaussian, Inc. or will provide
 assistance to any competitor of Gaussian, Inc.  The licensee
 of this program is prohibited from giving any competitor of
 Gaussian, Inc. access to this program.  By using this program,
 the user acknowledges that Gaussian, Inc. is engaged in the
 business of creating and licensing software in the field of
 computational chemistry and represents and warrants to the
 licensee that it is not a competitor of Gaussian, Inc. and that
 it will not use this program in any manner prohibited above.
 ---------------------------------------------------------------
  

 Cite this work as:
 Gaussian 09, Revision E.01,
 M. J. Frisch, G. W. Trucks, H. B. Schlegel, G. E. Scuseria, 
 M. A. Robb, J. R. Cheeseman, G. Scalmani, V. Barone, B. Mennucci, 
 G. A. Petersson, H. Nakatsuji, M. Caricato, X. Li, H. P. Hratchian, 
 A. F. Izmaylov, J. Bloino, G. Zheng, J. L. Sonnenberg, M. Hada, 
 M. Ehara, K. Toyota, R. Fukuda, J. Hasegawa, M. Ishida, T. Nakajima, 
 Y. Honda, O. Kitao, H. Nakai, T. Vreven, J. A. Montgomery, Jr., 
 J. E. Peralta, F. Ogliaro, M. Bearpark, J. J. Heyd, E. Brothers, 
 K. N. Kudin, V. N. Staroverov, T. Keith, R. Kobayashi, J. Normand, 
 K. Raghavachari, A. Rendell, J. C. Burant, S. S. Iyengar, J. Tomasi, 
 M. Cossi, N. Rega, J. M. Millam, M. Klene, J. E. Knox, J. B. Cross, 
 V. Bakken, C. Adamo, J. Jaramillo, R. Gomperts, R. E. Stratmann, 
 O. Yazyev, A. J. Austin, R. Cammi, C. Pomelli, J. W. Ochterski, 
 R. L. Martin, K. Morokuma, V. G. Zakrzewski, G. A. Voth, 
 P. Salvador, J. J. Dannenberg, S. Dapprich, A. D. Daniels, 
 O. Farkas, J. B. Foresman, J. V. Ortiz, J. Cioslowski, 
 and D. J. Fox, Gaussian, Inc., Wallingford CT, 2013.
 
 ******************************************
 Gaussian 09:  EM64W-G09RevE.01 30-Nov-2015
                03-Oct-2016 
 ******************************************
 %mem=6GB
 %nprocshared=3
 Will use up to    3 processors via shared memory.
 %oldchk=C:\Users\epktb\Desktop\A04\hnc-mp2full-0
 %chk=C:\Users\epktb\Desktop\A04\hnc-mp3full-0
 Copying data from "C:\Users\epktb\Desktop\A04\hnc-mp2full-0.chk" to current chk file "C:\Users\epktb\Desktop\A04\hnc-mp3
 full-0.chk".
 ----------------------------------------
 # mp3(full)/6-311++g** gfp geom=allcheck
 ----------------------------------------
 1/29=7,38=1/1;
 2/12=2,40=1/2;
 3/5=4,6=6,7=1111,11=9,14=-4,16=1,24=100,25=1,30=1/1,2,3;
 4//1;
 5/5=2,38=5/2;
 8/6=3,9=120000,10=90/1,4;
 9/5=2/13;
 6/7=2,8=2,9=2,10=2/1;
 99/5=1,9=1/99;
 Structure from the checkpoint file:  "C:\Users\epktb\Desktop\A04\hnc-mp3full-0.chk"
 -------
 HNC-HCN
 -------
 Charge =  0 Multiplicity = 1
 Redundant internal coordinates found in file.
 N,0,0.,0.,-0.1601404403
 C,0,0.,0.,1.0204345423
 H,0,0.,0.,-1.160294102
 Recover connectivity data from disk.
                          Input orientation:                          
 ---------------------------------------------------------------------
 Center     Atomic      Atomic             Coordinates (Angstroms)
 Number     Number       Type             X           Y           Z
 ---------------------------------------------------------------------
      1          7           0        0.000000    0.000000   -0.160140
      2          6           0        0.000000    0.000000    1.020435
      3          1           0        0.000000    0.000000   -1.160294
 ---------------------------------------------------------------------
                    Distance matrix (angstroms):
                    1          2          3
     1  N    0.000000
     2  C    1.180575   0.000000
     3  H    1.000154   2.180729   0.000000
 Stoichiometry    CHN
 Framework group  C*V[C*(CNH)]
 Deg. of freedom     2
 Full point group                 C*V     NOp   4
 Largest Abelian subgroup         C2V     NOp   4
 Largest concise Abelian subgroup C1      NOp   1
                         Standard orientation:                         
 ---------------------------------------------------------------------
 Center     Atomic      Atomic             Coordinates (Angstroms)
 Number     Number       Type             X           Y           Z
 ---------------------------------------------------------------------
      1          7           0        0.000000    0.000000    0.434521
      2          6           0        0.000000    0.000000   -0.746054
      3          1           0        0.000000    0.000000    1.434675
 ---------------------------------------------------------------------
 Rotational constants (GHZ):      0.0000000     44.6346099     44.6346099
 Standard basis: 6-311++G(d,p) (5D, 7F)
 AO basis set (Overlap normalization):
 Atom N1       Shell     1 S   6     bf    1 -     1          0.000000000000          0.000000000000          0.821125990469
      0.6293480000D+04  0.1969788147D-02
      0.9490440000D+03  0.1496128592D-01
      0.2187760000D+03  0.7350053084D-01
      0.6369160000D+02  0.2489367658D+00
      0.1882820000D+02  0.6024594331D+00
      0.2720230000D+01  0.2562017589D+00
 Atom N1       Shell     2 SP   3    bf    2 -     5          0.000000000000          0.000000000000          0.821125990469
      0.3063310000D+02  0.1119060795D+00  0.3831191864D-01
      0.7026140000D+01  0.9216666549D+00  0.2374031155D+00
      0.2112050000D+01 -0.2569191826D-02  0.8175923978D+00
 Atom N1       Shell     3 SP   1    bf    6 -     9          0.000000000000          0.000000000000          0.821125990469
      0.6840090000D+00  0.1000000000D+01  0.1000000000D+01
 Atom N1       Shell     4 SP   1    bf   10 -    13          0.000000000000          0.000000000000          0.821125990469
      0.2008780000D+00  0.1000000000D+01  0.1000000000D+01
 Atom N1       Shell     5 SP   1    bf   14 -    17          0.000000000000          0.000000000000          0.821125990469
      0.6390000000D-01  0.1000000000D+01  0.1000000000D+01
 Atom N1       Shell     6 D   1     bf   18 -    22          0.000000000000          0.000000000000          0.821125990469
      0.9130000000D+00  0.1000000000D+01
 Atom C2       Shell     7 S   6     bf   23 -    23          0.000000000000          0.000000000000         -1.409837405889
      0.4563240000D+04  0.1966650249D-02
      0.6820240000D+03  0.1523060193D-01
      0.1549730000D+03  0.7612690966D-01
      0.4445530000D+02  0.2608010331D+00
      0.1302900000D+02  0.6164620782D+00
      0.1827730000D+01  0.2210060280D+00
 Atom C2       Shell     8 SP   3    bf   24 -    27          0.000000000000          0.000000000000         -1.409837405889
      0.2096420000D+02  0.1146600807D+00  0.4024869267D-01
      0.4803310000D+01  0.9199996477D+00  0.2375939567D+00
      0.1459330000D+01 -0.3030682134D-02  0.8158538515D+00
 Atom C2       Shell     9 SP   1    bf   28 -    31          0.000000000000          0.000000000000         -1.409837405889
      0.4834560000D+00  0.1000000000D+01  0.1000000000D+01
 Atom C2       Shell    10 SP   1    bf   32 -    35          0.000000000000          0.000000000000         -1.409837405889
      0.1455850000D+00  0.1000000000D+01  0.1000000000D+01
 Atom C2       Shell    11 SP   1    bf   36 -    39          0.000000000000          0.000000000000         -1.409837405889
      0.4380000000D-01  0.1000000000D+01  0.1000000000D+01
 Atom C2       Shell    12 D   1     bf   40 -    44          0.000000000000          0.000000000000         -1.409837405889
      0.6260000000D+00  0.1000000000D+01
 Atom H3       Shell    13 S   3     bf   45 -    45          0.000000000000          0.000000000000          2.711142502053
      0.3386500000D+02  0.2549381454D-01
      0.5094790000D+01  0.1903731086D+00
      0.1158790000D+01  0.8521614860D+00
 Atom H3       Shell    14 S   1     bf   46 -    46          0.000000000000          0.000000000000          2.711142502053
      0.3258400000D+00  0.1000000000D+01
 Atom H3       Shell    15 S   1     bf   47 -    47          0.000000000000          0.000000000000          2.711142502053
      0.1027410000D+00  0.1000000000D+01
 Atom H3       Shell    16 S   1     bf   48 -    48          0.000000000000          0.000000000000          2.711142502053
      0.3600000000D-01  0.1000000000D+01
 Atom H3       Shell    17 P   1     bf   49 -    51          0.000000000000          0.000000000000          2.711142502053
      0.7500000000D+00  0.1000000000D+01
 There are    29 symmetry adapted cartesian basis functions of A1  symmetry.
 There are     2 symmetry adapted cartesian basis functions of A2  symmetry.
 There are    11 symmetry adapted cartesian basis functions of B1  symmetry.
 There are    11 symmetry adapted cartesian basis functions of B2  symmetry.
 There are    27 symmetry adapted basis functions of A1  symmetry.
 There are     2 symmetry adapted basis functions of A2  symmetry.
 There are    11 symmetry adapted basis functions of B1  symmetry.
 There are    11 symmetry adapted basis functions of B2  symmetry.
    51 basis functions,    81 primitive gaussians,    53 cartesian basis functions
     7 alpha electrons        7 beta electrons
       nuclear repulsion energy        23.9855833391 Hartrees.
 NAtoms=    3 NActive=    3 NUniq=    3 SFac= 1.00D+00 NAtFMM=   60 NAOKFM=F Big=F
 Integral buffers will be    131072 words long.
 Raffenetti 1 integral format.
 Two-electron integral symmetry is turned on.
 One-electron integrals computed using PRISM.
 NBasis=    51 RedAO= T EigKep=  2.57D-03  NBF=    27     2    11    11
 NBsUse=    51 1.00D-06 EigRej= -1.00D+00 NBFU=    27     2    11    11
 ExpMin= 3.60D-02 ExpMax= 6.29D+03 ExpMxC= 9.49D+02 IAcc=3 IRadAn=         5 AccDes= 0.00D+00
 Harris functional with IExCor=  205 and IRadAn=       5 diagonalized for initial guess.
 HarFok:  IExCor=  205 AccDes= 0.00D+00 IRadAn=         5 IDoV= 1 UseB2=F ITyADJ=14
 ICtDFT=  3500011 ScaDFX=  1.000000  1.000000  1.000000  1.000000
 FoFCou: FMM=F IPFlag=           0 FMFlag=      100000 FMFlg1=           0
         NFxFlg=           0 DoJE=T BraDBF=F KetDBF=T FulRan=T
         wScrn=  0.000000 ICntrl=     500 IOpCl=  0 I1Cent=   200000004 NGrid=           0
         NMat0=    1 NMatS0=      1 NMatT0=    0 NMatD0=    1 NMtDS0=    0 NMtDT0=    0
 Petite list used in FoFCou.
 Initial guess orbital symmetries:
       Occupied  (SG) (SG) (SG) (SG) (PI) (PI) (SG)
       Virtual   (PI) (PI) (SG) (SG) (PI) (PI) (SG) (SG) (PI) (PI)
                 (SG) (SG) (SG) (SG) (PI) (PI) (SG) (PI) (PI) (SG)
                 (SG) (SG) (PI) (PI) (DLTA) (DLTA) (PI) (PI) (SG)
                 (DLTA) (DLTA) (SG) (PI) (PI) (SG) (PI) (PI) (SG)
                 (SG) (PI) (PI) (SG) (SG) (SG)
 The electronic state of the initial guess is 1-SG.
 Keep R1 ints in memory in symmetry-blocked form, NReq=1746623.
 Requested convergence on RMS density matrix=1.00D-08 within 128 cycles.
 Requested convergence on MAX density matrix=1.00D-06.
 Requested convergence on             energy=1.00D-06.
 No special actions if energy rises.
 SCF Done:  E(RHF) =  -92.8823471761     A.U. after   11 cycles
            NFock= 11  Conv=0.11D-08     -V/T= 2.0023
 Range of M.O.s used for correlation:     1    51
 NBasis=    51 NAE=     7 NBE=     7 NFC=     0 NFV=     0
 NROrb=     51 NOA=     7 NOB=     7 NVA=    44 NVB=    44

 **** Warning!!: The largest alpha MO coefficient is  0.11395910D+02

 Semi-Direct transformation.
 ModeAB=           2 MOrb=             7 LenV=     805104111
 LASXX=        36672 LTotXX=       36672 LenRXX=       36672
 LTotAB=       40838 MaxLAS=      510867 LenRXY=      510867
 NonZer=      539784 LenScr=     1571840 LnRSAI=           0
 LnScr1=           0 LExtra=           0 Total=      2119379
 MaxDsk=          -1 SrtSym=           F ITran=            3
 JobTyp=0 Pass  1:  I=   1 to   7.
 (rs|ai) integrals will be sorted in core.
 Spin components of T(2) and E(2):
     alpha-alpha T2 =       0.1317845921D-01 E2=     -0.3877537704D-01
     alpha-beta  T2 =       0.7812126199D-01 E2=     -0.2509607942D+00
     beta-beta   T2 =       0.1317845921D-01 E2=     -0.3877537704D-01
 ANorm=    0.1050941569D+01
 E2 =    -0.3285115483D+00 EUMP2 =    -0.93210858724409D+02
 Keep R2 and R3 ints in memory in symmetry-blocked form, NReq=1705586.
 DD1Dir will call FoFMem   1 times, MxPair=        56
 NAB=    28 NAA=     0 NBB=     0.
 E3=       -0.57312208D-02        EUMP3=      -0.93216589945D+02
 Largest amplitude= 3.89D-02
 Discarding MO integrals.

 **********************************************************************

            Population analysis using the SCF density.

 **********************************************************************

 Orbital symmetries:
       Occupied  (SG) (SG) (SG) (SG) (PI) (PI) (SG)
       Virtual   (SG) (SG) (PI) (PI) (SG) (PI) (PI) (SG) (PI) (PI)
                 (SG) (SG) (SG) (SG) (PI) (PI) (SG) (PI) (PI) (SG)
                 (SG) (SG) (PI) (PI) (DLTA) (DLTA) (PI) (PI) (SG)
                 (DLTA) (DLTA) (SG) (PI) (PI) (SG) (PI) (PI) (SG)
                 (SG) (PI) (PI) (SG) (SG) (SG)
 The electronic state is 1-SG.
 Alpha  occ. eigenvalues --  -15.60921 -11.30656  -1.26405  -0.87567  -0.51831
 Alpha  occ. eigenvalues --   -0.51831  -0.49464
 Alpha virt. eigenvalues --    0.03807   0.10141   0.10797   0.10797   0.13723
 Alpha virt. eigenvalues --    0.16531   0.16531   0.21818   0.25924   0.25924
 Alpha virt. eigenvalues --    0.28516   0.36756   0.54821   0.64978   0.73885
 Alpha virt. eigenvalues --    0.73885   0.99673   1.01198   1.01198   1.10483
 Alpha virt. eigenvalues --    1.23880   1.37961   1.43628   1.43628   1.53627
 Alpha virt. eigenvalues --    1.53627   1.94496   1.94496   2.21389   2.33048
 Alpha virt. eigenvalues --    2.33048   2.58975   2.95064   2.95064   2.95790
 Alpha virt. eigenvalues --    3.26686   3.26686   3.65165   4.04431   4.32099
 Alpha virt. eigenvalues --    4.32099   5.26352  25.09765  37.10752
          Condensed to atoms (all electrons):
               1          2          3
     1  N    6.367516   0.493611   0.382831
     2  C    0.493611   5.635532  -0.046902
     3  H    0.382831  -0.046902   0.337873
 Mulliken charges:
               1
     1  N   -0.243958
     2  C   -0.082240
     3  H    0.326199
 Sum of Mulliken charges =   0.00000
 Mulliken charges with hydrogens summed into heavy atoms:
               1
     1  N    0.082240
     2  C   -0.082240
 Electronic spatial extent (au):  <R**2>=             49.8434
 Charge=              0.0000 electrons
 Dipole moment (field-independent basis, Debye):
    X=              0.0000    Y=              0.0000    Z=              2.8248  Tot=              2.8248
 Quadrupole moment (field-independent basis, Debye-Ang):
   XX=            -12.2543   YY=            -12.2543   ZZ=            -10.2572
   XY=              0.0000   XZ=              0.0000   YZ=              0.0000
 Traceless Quadrupole moment (field-independent basis, Debye-Ang):
   XX=             -0.6657   YY=             -0.6657   ZZ=              1.3314
   XY=              0.0000   XZ=              0.0000   YZ=              0.0000
 Octapole moment (field-independent basis, Debye-Ang**2):
  XXX=              0.0000  YYY=              0.0000  ZZZ=             14.9316  XYY=              0.0000
  XXY=              0.0000  XXZ=              1.2915  XZZ=              0.0000  YZZ=              0.0000
  YYZ=              1.2915  XYZ=              0.0000
 Hexadecapole moment (field-independent basis, Debye-Ang**3):
 XXXX=            -12.9758 YYYY=            -12.9758 ZZZZ=            -42.3970 XXXY=              0.0000
 XXXZ=              0.0000 YYYX=              0.0000 YYYZ=              0.0000 ZZZX=              0.0000
 ZZZY=              0.0000 XXYY=             -4.3253 XXZZ=            -10.0494 YYZZ=            -10.0494
 XXYZ=              0.0000 YYXZ=              0.0000 ZZXY=              0.0000
 N-N= 2.398558333907D+01 E-N=-2.652335292798D+02  KE= 9.267118859585D+01
 Symmetry A1   KE= 8.695797856390D+01
 Symmetry A2   KE=-4.663303642434D-51
 Symmetry B1   KE= 2.856605015978D+00
 Symmetry B2   KE= 2.856605015978D+00
 1|1|UNPC-AS-SC101-07|SP|RMP3-Full|6-311++G(d,p)|C1H1N1|EPKTB|03-Oct-20
 16|0||# mp3(full)/6-311++g** gfp geom=allcheck||HNC-HCN||0,1|N,0,0.,0.
 ,-0.1601404403|C,0,0.,0.,1.0204345423|H,0,0.,0.,-1.160294102||Version=
 EM64W-G09RevE.01|State=1-SG|HF=-92.8823472|MP2=-93.2108587|MP3=-93.216
 5899|RMSD=1.079e-009|PG=C*V [C*(C1N1H1)]||@


 Spring appears, and we are once more children.
                                  -- Anonymous
 Job cpu time:       0 days  0 hours  0 minutes  2.0 seconds.
 File lengths (MBytes):  RWF=     23 Int=      0 D2E=      0 Chk=      1 Scr=      1
 Normal termination of Gaussian 09 at Mon Oct 03 16:25:16 2016.
