 Entering Link 1 = C:\G09W\l1.exe PID=      5580.
  
 Copyright (c) 1988,1990,1992,1993,1995,1998,2003,2009,2015,
            Gaussian, Inc.  All Rights Reserved.
  
 This is part of the Gaussian(R) 09 program.  It is based on
 the Gaussian(R) 03 system (copyright 2003, Gaussian, Inc.),
 the Gaussian(R) 98 system (copyright 1998, Gaussian, Inc.),
 the Gaussian(R) 94 system (copyright 1995, Gaussian, Inc.),
 the Gaussian 92(TM) system (copyright 1992, Gaussian, Inc.),
 the Gaussian 90(TM) system (copyright 1990, Gaussian, Inc.),
 the Gaussian 88(TM) system (copyright 1988, Gaussian, Inc.),
 the Gaussian 86(TM) system (copyright 1986, Carnegie Mellon
 University), and the Gaussian 82(TM) system (copyright 1983,
 Carnegie Mellon University). Gaussian is a federally registered
 trademark of Gaussian, Inc.
  
 This software contains proprietary and confidential information,
 including trade secrets, belonging to Gaussian, Inc.
  
 This software is provided under written license and may be
 used, copied, transmitted, or stored only in accord with that
 written license.
  
 The following legend is applicable only to US Government
 contracts under FAR:
  
                    RESTRICTED RIGHTS LEGEND
  
 Use, reproduction and disclosure by the US Government is
 subject to restrictions as set forth in subparagraphs (a)
 and (c) of the Commercial Computer Software - Restricted
 Rights clause in FAR 52.227-19.
  
 Gaussian, Inc.
 340 Quinnipiac St., Bldg. 40, Wallingford CT 06492
  
  
 ---------------------------------------------------------------
 Warning -- This program may not be used in any manner that
 competes with the business of Gaussian, Inc. or will provide
 assistance to any competitor of Gaussian, Inc.  The licensee
 of this program is prohibited from giving any competitor of
 Gaussian, Inc. access to this program.  By using this program,
 the user acknowledges that Gaussian, Inc. is engaged in the
 business of creating and licensing software in the field of
 computational chemistry and represents and warrants to the
 licensee that it is not a competitor of Gaussian, Inc. and that
 it will not use this program in any manner prohibited above.
 ---------------------------------------------------------------
  

 Cite this work as:
 Gaussian 09, Revision E.01,
 M. J. Frisch, G. W. Trucks, H. B. Schlegel, G. E. Scuseria, 
 M. A. Robb, J. R. Cheeseman, G. Scalmani, V. Barone, B. Mennucci, 
 G. A. Petersson, H. Nakatsuji, M. Caricato, X. Li, H. P. Hratchian, 
 A. F. Izmaylov, J. Bloino, G. Zheng, J. L. Sonnenberg, M. Hada, 
 M. Ehara, K. Toyota, R. Fukuda, J. Hasegawa, M. Ishida, T. Nakajima, 
 Y. Honda, O. Kitao, H. Nakai, T. Vreven, J. A. Montgomery, Jr., 
 J. E. Peralta, F. Ogliaro, M. Bearpark, J. J. Heyd, E. Brothers, 
 K. N. Kudin, V. N. Staroverov, T. Keith, R. Kobayashi, J. Normand, 
 K. Raghavachari, A. Rendell, J. C. Burant, S. S. Iyengar, J. Tomasi, 
 M. Cossi, N. Rega, J. M. Millam, M. Klene, J. E. Knox, J. B. Cross, 
 V. Bakken, C. Adamo, J. Jaramillo, R. Gomperts, R. E. Stratmann, 
 O. Yazyev, A. J. Austin, R. Cammi, C. Pomelli, J. W. Ochterski, 
 R. L. Martin, K. Morokuma, V. G. Zakrzewski, G. A. Voth, 
 P. Salvador, J. J. Dannenberg, S. Dapprich, A. D. Daniels, 
 O. Farkas, J. B. Foresman, J. V. Ortiz, J. Cioslowski, 
 and D. J. Fox, Gaussian, Inc., Wallingford CT, 2013.
 
 ******************************************
 Gaussian 09:  EM64W-G09RevE.01 30-Nov-2015
                03-Oct-2016 
 ******************************************
 %mem=6GB
 %nprocshared=3
 Will use up to    3 processors via shared memory.
 %oldchk=C:\Users\epktb\Desktop\A04\hnc-mp2full-ts
 %chk=C:\Users\epktb\Desktop\A04\hnc-ccsd-ccpvqz-ts
 Copying data from "C:\Users\epktb\Desktop\A04\hnc-mp2full-ts.chk" to current chk file "C:\Users\epktb\Desktop\A04\hnc-cc
 sd-ccpvqz-ts.chk".
 --------------------------------------
 # ccsd(full)/cc-pvqz gfp geom=allcheck
 --------------------------------------
 1/29=7,38=1/1;
 2/12=2,40=1/2;
 3/5=16,6=2,11=9,14=-4,16=1,24=100,25=1,30=1/1,2,3;
 4//1;
 5/5=2,38=5/2;
 8/6=4,9=120000,10=90/1,4;
 9/5=7/13;
 6/7=2,8=2,9=2,10=2/1;
 99/5=1,9=1/99;
 Structure from the checkpoint file:  "C:\Users\epktb\Desktop\A04\hnc-ccsd-ccpvqz-ts.chk"
 -------
 HNC-HCN
 -------
 Charge =  0 Multiplicity = 1
 Redundant internal coordinates found in file.
 N,0,0.0030623042,0.,-0.0940100991
 C,0,-0.028243367,0.,1.0966228473
 H,0,1.1084695911,0.,0.8063742563
 Recover connectivity data from disk.
                          Input orientation:                          
 ---------------------------------------------------------------------
 Center     Atomic      Atomic             Coordinates (Angstroms)
 Number     Number       Type             X           Y           Z
 ---------------------------------------------------------------------
      1          7           0        0.003062    0.000000   -0.094010
      2          6           0       -0.028243    0.000000    1.096623
      3          1           0        1.108470    0.000000    0.806374
 ---------------------------------------------------------------------
                    Distance matrix (angstroms):
                    1          2          3
     1  N    0.000000
     2  C    1.191044   0.000000
     3  H    1.425699   1.173184   0.000000
 Stoichiometry    CHN
 Framework group  CS[SG(CHN)]
 Deg. of freedom     3
 Full point group                 CS      NOp   2
 Largest Abelian subgroup         CS      NOp   2
 Largest concise Abelian subgroup C1      NOp   1
                         Standard orientation:                         
 ---------------------------------------------------------------------
 Center     Atomic      Atomic             Coordinates (Angstroms)
 Number     Number       Type             X           Y           Z
 ---------------------------------------------------------------------
      1          7           0        0.080621   -0.572663    0.000000
      2          6           0        0.080621    0.618381    0.000000
      3          1           0       -1.048070    0.298355    0.000000
 ---------------------------------------------------------------------
 Rotational constants (GHZ):    414.0360280     54.4426498     48.1157831
 Standard basis: CC-pVQZ (5D, 7F)
 AO basis set (Overlap normalization):
 Atom N1       Shell     1 S   8     bf    1 -     1          0.152351243178         -1.082176662489          0.000000000000
      0.4584000000D+05  0.1534988599D-03
      0.6868000000D+04  0.1179826628D-02
      0.1563000000D+04  0.6207746267D-02
      0.4424000000D+03  0.2538092332D-01
      0.1443000000D+03  0.8650277680D-01
      0.5218000000D+02  0.2266189482D+00
      0.2034000000D+02  0.4355021992D+00
      0.8381000000D+01  0.3465592023D+00
 Atom N1       Shell     2 S   7     bf    2 -     2          0.152351243178         -1.082176662489          0.000000000000
      0.6868000000D+04 -0.1039792478D-04
      0.4424000000D+03 -0.4736517491D-03
      0.1443000000D+03 -0.2102474955D-02
      0.5218000000D+02 -0.2306147530D-01
      0.2034000000D+02 -0.9676852612D-01
      0.8381000000D+01 -0.4376637933D+00
      0.3529000000D+01 -0.5056218861D+00
 Atom N1       Shell     3 S   1     bf    3 -     3          0.152351243178         -1.082176662489          0.000000000000
      0.1054000000D+01  0.1000000000D+01
 Atom N1       Shell     4 S   1     bf    4 -     4          0.152351243178         -1.082176662489          0.000000000000
      0.4118000000D+00  0.1000000000D+01
 Atom N1       Shell     5 S   1     bf    5 -     5          0.152351243178         -1.082176662489          0.000000000000
      0.1552000000D+00  0.1000000000D+01
 Atom N1       Shell     6 P   3     bf    6 -     8          0.152351243178         -1.082176662489          0.000000000000
      0.4933000000D+02  0.3112609737D-01
      0.1137000000D+02  0.2135566435D+00
      0.3435000000D+01  0.8383625589D+00
 Atom N1       Shell     7 P   1     bf    9 -    11          0.152351243178         -1.082176662489          0.000000000000
      0.1182000000D+01  0.1000000000D+01
 Atom N1       Shell     8 P   1     bf   12 -    14          0.152351243178         -1.082176662489          0.000000000000
      0.4173000000D+00  0.1000000000D+01
 Atom N1       Shell     9 P   1     bf   15 -    17          0.152351243178         -1.082176662489          0.000000000000
      0.1428000000D+00  0.1000000000D+01
 Atom N1       Shell    10 D   1     bf   18 -    22          0.152351243178         -1.082176662489          0.000000000000
      0.2837000000D+01  0.1000000000D+01
 Atom N1       Shell    11 D   1     bf   23 -    27          0.152351243178         -1.082176662489          0.000000000000
      0.9680000000D+00  0.1000000000D+01
 Atom N1       Shell    12 D   1     bf   28 -    32          0.152351243178         -1.082176662489          0.000000000000
      0.3350000000D+00  0.1000000000D+01
 Atom N1       Shell    13 F   1     bf   33 -    39          0.152351243178         -1.082176662489          0.000000000000
      0.2027000000D+01  0.1000000000D+01
 Atom N1       Shell    14 F   1     bf   40 -    46          0.152351243178         -1.082176662489          0.000000000000
      0.6850000000D+00  0.1000000000D+01
 Atom N1       Shell    15 G   1     bf   47 -    55          0.152351243178         -1.082176662489          0.000000000000
      0.1427000000D+01  0.1000000000D+01
 Atom C2       Shell    16 S   8     bf   56 -    56          0.152351243178          1.168571141256          0.000000000000
      0.3398000000D+05  0.1468124114D-03
      0.5089000000D+04  0.1116460016D-02
      0.1157000000D+04  0.5890887108D-02
      0.3266000000D+03  0.2421725547D-01
      0.1061000000D+03  0.8317163879D-01
      0.3811000000D+02  0.2205684777D+00
      0.1475000000D+02  0.4287314969D+00
      0.6035000000D+01  0.3643614225D+00
 Atom C2       Shell    17 S   7     bf   57 -    57          0.152351243178          1.168571141256          0.000000000000
      0.5089000000D+04 -0.1002265364D-04
      0.3266000000D+03 -0.4365894368D-03
      0.1061000000D+03 -0.1932312730D-02
      0.3811000000D+02 -0.2148394772D-01
      0.1475000000D+02 -0.9030916566D-01
      0.6035000000D+01 -0.4187915117D+00
      0.2530000000D+01 -0.5318019058D+00
 Atom C2       Shell    18 S   1     bf   58 -    58          0.152351243178          1.168571141256          0.000000000000
      0.7355000000D+00  0.1000000000D+01
 Atom C2       Shell    19 S   1     bf   59 -    59          0.152351243178          1.168571141256          0.000000000000
      0.2905000000D+00  0.1000000000D+01
 Atom C2       Shell    20 S   1     bf   60 -    60          0.152351243178          1.168571141256          0.000000000000
      0.1111000000D+00  0.1000000000D+01
 Atom C2       Shell    21 P   3     bf   61 -    63          0.152351243178          1.168571141256          0.000000000000
      0.3451000000D+02  0.3168785521D-01
      0.7915000000D+01  0.2128943073D+00
      0.2368000000D+01  0.8395867520D+00
 Atom C2       Shell    22 P   1     bf   64 -    66          0.152351243178          1.168571141256          0.000000000000
      0.8132000000D+00  0.1000000000D+01
 Atom C2       Shell    23 P   1     bf   67 -    69          0.152351243178          1.168571141256          0.000000000000
      0.2890000000D+00  0.1000000000D+01
 Atom C2       Shell    24 P   1     bf   70 -    72          0.152351243178          1.168571141256          0.000000000000
      0.1007000000D+00  0.1000000000D+01
 Atom C2       Shell    25 D   1     bf   73 -    77          0.152351243178          1.168571141256          0.000000000000
      0.1848000000D+01  0.1000000000D+01
 Atom C2       Shell    26 D   1     bf   78 -    82          0.152351243178          1.168571141256          0.000000000000
      0.6490000000D+00  0.1000000000D+01
 Atom C2       Shell    27 D   1     bf   83 -    87          0.152351243178          1.168571141256          0.000000000000
      0.2280000000D+00  0.1000000000D+01
 Atom C2       Shell    28 F   1     bf   88 -    94          0.152351243178          1.168571141256          0.000000000000
      0.1419000000D+01  0.1000000000D+01
 Atom C2       Shell    29 F   1     bf   95 -   101          0.152351243178          1.168571141256          0.000000000000
      0.4850000000D+00  0.1000000000D+01
 Atom C2       Shell    30 G   1     bf  102 -   110          0.152351243178          1.168571141256          0.000000000000
      0.1011000000D+01  0.1000000000D+01
 Atom H3       Shell    31 S   3     bf  111 -   111         -1.980566161320          0.563809789887          0.000000000000
      0.8264000000D+02  0.2295075779D-01
      0.1241000000D+02  0.1755401181D+00
      0.2824000000D+01  0.8647035510D+00
 Atom H3       Shell    32 S   1     bf  112 -   112         -1.980566161320          0.563809789887          0.000000000000
      0.7977000000D+00  0.1000000000D+01
 Atom H3       Shell    33 S   1     bf  113 -   113         -1.980566161320          0.563809789887          0.000000000000
      0.2581000000D+00  0.1000000000D+01
 Atom H3       Shell    34 S   1     bf  114 -   114         -1.980566161320          0.563809789887          0.000000000000
      0.8989000000D-01  0.1000000000D+01
 Atom H3       Shell    35 P   1     bf  115 -   117         -1.980566161320          0.563809789887          0.000000000000
      0.2292000000D+01  0.1000000000D+01
 Atom H3       Shell    36 P   1     bf  118 -   120         -1.980566161320          0.563809789887          0.000000000000
      0.8380000000D+00  0.1000000000D+01
 Atom H3       Shell    37 P   1     bf  121 -   123         -1.980566161320          0.563809789887          0.000000000000
      0.2920000000D+00  0.1000000000D+01
 Atom H3       Shell    38 D   1     bf  124 -   128         -1.980566161320          0.563809789887          0.000000000000
      0.2062000000D+01  0.1000000000D+01
 Atom H3       Shell    39 D   1     bf  129 -   133         -1.980566161320          0.563809789887          0.000000000000
      0.6620000000D+00  0.1000000000D+01
 Atom H3       Shell    40 F   1     bf  134 -   140         -1.980566161320          0.563809789887          0.000000000000
      0.1397000000D+01  0.1000000000D+01
 There are   116 symmetry adapted cartesian basis functions of A'  symmetry.
 There are    59 symmetry adapted cartesian basis functions of A"  symmetry.
 There are    90 symmetry adapted basis functions of A'  symmetry.
 There are    50 symmetry adapted basis functions of A"  symmetry.
   140 basis functions,   215 primitive gaussians,   175 cartesian basis functions
     7 alpha electrons        7 beta electrons
       nuclear repulsion energy        23.9650218436 Hartrees.
 NAtoms=    3 NActive=    3 NUniq=    3 SFac= 1.00D+00 NAtFMM=   60 NAOKFM=F Big=F
 Integral buffers will be    131072 words long.
 Raffenetti 1 integral format.
 Two-electron integral symmetry is turned on.
 One-electron integrals computed using PRISM.
 NBasis=   140 RedAO= T EigKep=  3.52D-04  NBF=    90    50
 NBsUse=   140 1.00D-06 EigRej= -1.00D+00 NBFU=    90    50
 ExpMin= 8.99D-02 ExpMax= 4.58D+04 ExpMxC= 4.42D+02 IAcc=2 IRadAn=         4 AccDes= 0.00D+00
 Harris functional with IExCor=  205 and IRadAn=       4 diagonalized for initial guess.
 HarFok:  IExCor=  205 AccDes= 0.00D+00 IRadAn=         4 IDoV= 1 UseB2=F ITyADJ=14
 ICtDFT=  3500011 ScaDFX=  1.000000  1.000000  1.000000  1.000000
 FoFCou: FMM=F IPFlag=           0 FMFlag=      100000 FMFlg1=           0
         NFxFlg=           0 DoJE=T BraDBF=F KetDBF=T FulRan=T
         wScrn=  0.000000 ICntrl=     500 IOpCl=  0 I1Cent=   200000004 NGrid=           0
         NMat0=    1 NMatS0=      1 NMatT0=    0 NMatD0=    1 NMtDS0=    0 NMtDT0=    0
 Petite list used in FoFCou.
 Initial guess orbital symmetries:
       Occupied  (A') (A') (A') (A') (A') (A") (A')
       Virtual   (A') (A") (A') (A') (A') (A') (A") (A') (A') (A')
                 (A") (A") (A') (A') (A") (A') (A') (A') (A") (A')
                 (A") (A') (A') (A') (A") (A') (A") (A') (A') (A')
                 (A") (A') (A') (A") (A") (A') (A') (A") (A') (A")
                 (A') (A") (A') (A') (A") (A') (A") (A') (A') (A')
                 (A') (A") (A") (A') (A') (A") (A') (A') (A") (A")
                 (A') (A') (A') (A") (A') (A') (A') (A") (A') (A')
                 (A") (A") (A') (A") (A") (A') (A') (A') (A") (A")
                 (A') (A') (A") (A') (A") (A') (A') (A') (A") (A')
                 (A") (A') (A") (A') (A") (A') (A') (A") (A') (A')
                 (A") (A') (A") (A') (A') (A') (A") (A") (A') (A")
                 (A') (A') (A") (A') (A') (A") (A') (A") (A') (A")
                 (A") (A') (A") (A') (A') (A') (A') (A') (A") (A')
                 (A') (A') (A')
 The electronic state of the initial guess is 1-A'.
 Keep R1 ints in memory in symmetry-blocked form, NReq=73396225.
 Requested convergence on RMS density matrix=1.00D-08 within 128 cycles.
 Requested convergence on MAX density matrix=1.00D-06.
 Requested convergence on             energy=1.00D-06.
 No special actions if energy rises.
 SCF Done:  E(RHF) =  -92.8375512078     A.U. after   13 cycles
            NFock= 13  Conv=0.22D-08     -V/T= 2.0016
 Range of M.O.s used for correlation:     1   140
 NBasis=   140 NAE=     7 NBE=     7 NFC=     0 NFV=     0
 NROrb=    140 NOA=     7 NOB=     7 NVA=   133 NVB=   133

 **** Warning!!: The largest alpha MO coefficient is  0.14027748D+02

 Semi-Direct transformation.
 ModeAB=           2 MOrb=             7 LenV=     804604952
 LASXX=      4687957 LTotXX=     4687957 LenRXX=     4687957
 LTotAB=     4801316 MaxLAS=    15092000 LenRXY=    15092000
 NonZer=    15668240 LenScr=    24284160 LnRSAI=           0
 LnScr1=           0 LExtra=           0 Total=     44064117
 MaxDsk=          -1 SrtSym=           F ITran=            4
 JobTyp=0 Pass  1:  I=   1 to   7.
 (rs|ai) integrals will be sorted in core.
 Spin components of T(2) and E(2):
     alpha-alpha T2 =       0.1558577354D-01 E2=     -0.4719729214D-01
     alpha-beta  T2 =       0.9121377731D-01 E2=     -0.3218921185D+00
     beta-beta   T2 =       0.1558577354D-01 E2=     -0.4719729214D-01
 ANorm=    0.1059426885D+01
 E2 =    -0.4162867027D+00 EUMP2 =    -0.93253837910581D+02
 Keep R2 and R3 ints in memory in symmetry-blocked form, NReq=73668393.
 Iterations=  50 Convergence= 0.100D-06
 Iteration Nr.   1
 **********************
 DD1Dir will call FoFMem   1 times, MxPair=        56
 NAB=    28 NAA=     0 NBB=     0.
 MP4(R+Q)=  0.11615951D-01
 E3=       -0.32835045D-02        EUMP3=      -0.93257121415D+02
 E4(DQ)=    0.12884957D-02        UMP4(DQ)=   -0.93255832919D+02
 E4(SDQ)=  -0.55828318D-02        UMP4(SDQ)=  -0.93262704247D+02
 DE(Corr)= -0.40777229     E(Corr)=     -93.245323502    
 NORM(A)=   0.10593066D+01
 Iteration Nr.   2
 **********************
 DD1Dir will call FoFMem   1 times, MxPair=        56
 NAB=    28 NAA=     0 NBB=     0.
 DE(Corr)= -0.42251198     E(CORR)=     -93.260063187     Delta=-1.47D-02
 NORM(A)=   0.10667432D+01
 Iteration Nr.   3
 **********************
 DD1Dir will call FoFMem   1 times, MxPair=        56
 NAB=    28 NAA=     0 NBB=     0.
 DE(Corr)= -0.42239728     E(CORR)=     -93.259948485     Delta= 1.15D-04
 NORM(A)=   0.10708064D+01
 Iteration Nr.   4
 **********************
 DD1Dir will call FoFMem   1 times, MxPair=        56
 NAB=    28 NAA=     0 NBB=     0.
 DE(Corr)= -0.42434287     E(CORR)=     -93.261894079     Delta=-1.95D-03
 NORM(A)=   0.10727339D+01
 Iteration Nr.   5
 **********************
 DD1Dir will call FoFMem   1 times, MxPair=        56
 NAB=    28 NAA=     0 NBB=     0.
 DE(Corr)= -0.42468651     E(CORR)=     -93.262237722     Delta=-3.44D-04
 NORM(A)=   0.10735175D+01
 Iteration Nr.   6
 **********************
 DD1Dir will call FoFMem   1 times, MxPair=        56
 NAB=    28 NAA=     0 NBB=     0.
 DE(Corr)= -0.42476392     E(CORR)=     -93.262315132     Delta=-7.74D-05
 NORM(A)=   0.10735918D+01
 Iteration Nr.   7
 **********************
 DD1Dir will call FoFMem   1 times, MxPair=        56
 NAB=    28 NAA=     0 NBB=     0.
 DE(Corr)= -0.42477124     E(CORR)=     -93.262322444     Delta=-7.31D-06
 NORM(A)=   0.10736366D+01
 Iteration Nr.   8
 **********************
 DD1Dir will call FoFMem   1 times, MxPair=        56
 NAB=    28 NAA=     0 NBB=     0.
 DE(Corr)= -0.42476228     E(CORR)=     -93.262313490     Delta= 8.95D-06
 NORM(A)=   0.10736413D+01
 Iteration Nr.   9
 **********************
 DD1Dir will call FoFMem   1 times, MxPair=        56
 NAB=    28 NAA=     0 NBB=     0.
 DE(Corr)= -0.42477154     E(CORR)=     -93.262322745     Delta=-9.25D-06
 NORM(A)=   0.10736448D+01
 Iteration Nr.  10
 **********************
 DD1Dir will call FoFMem   1 times, MxPair=        56
 NAB=    28 NAA=     0 NBB=     0.
 DE(Corr)= -0.42476852     E(CORR)=     -93.262319724     Delta= 3.02D-06
 NORM(A)=   0.10736472D+01
 Iteration Nr.  11
 **********************
 DD1Dir will call FoFMem   1 times, MxPair=        56
 NAB=    28 NAA=     0 NBB=     0.
 DE(Corr)= -0.42477062     E(CORR)=     -93.262321828     Delta=-2.10D-06
 NORM(A)=   0.10736491D+01
 Iteration Nr.  12
 **********************
 DD1Dir will call FoFMem   1 times, MxPair=        56
 NAB=    28 NAA=     0 NBB=     0.
 DE(Corr)= -0.42477084     E(CORR)=     -93.262322048     Delta=-2.20D-07
 NORM(A)=   0.10736511D+01
 Iteration Nr.  13
 **********************
 DD1Dir will call FoFMem   1 times, MxPair=        56
 NAB=    28 NAA=     0 NBB=     0.
 DE(Corr)= -0.42477123     E(CORR)=     -93.262322435     Delta=-3.87D-07
 NORM(A)=   0.10736521D+01
 Iteration Nr.  14
 **********************
 DD1Dir will call FoFMem   1 times, MxPair=        56
 NAB=    28 NAA=     0 NBB=     0.
 DE(Corr)= -0.42477145     E(CORR)=     -93.262322658     Delta=-2.23D-07
 NORM(A)=   0.10736529D+01
 Iteration Nr.  15
 **********************
 DD1Dir will call FoFMem   1 times, MxPair=        56
 NAB=    28 NAA=     0 NBB=     0.
 DE(Corr)= -0.42477153     E(CORR)=     -93.262322738     Delta=-7.95D-08
 NORM(A)=   0.10736532D+01
 Largest amplitude= 7.32D-02
 Discarding MO integrals.

 **********************************************************************

            Population analysis using the SCF density.

 **********************************************************************

 Orbital symmetries:
       Occupied  (A') (A') (A') (A') (A') (A") (A')
       Virtual   (A') (A') (A") (A') (A') (A') (A") (A') (A') (A')
                 (A") (A") (A') (A') (A') (A") (A') (A") (A') (A")
                 (A') (A') (A') (A') (A") (A') (A') (A") (A') (A')
                 (A") (A') (A') (A") (A') (A") (A') (A") (A') (A")
                 (A') (A") (A') (A') (A') (A") (A") (A') (A') (A')
                 (A') (A") (A') (A") (A') (A") (A') (A") (A') (A")
                 (A') (A') (A') (A') (A") (A') (A') (A") (A') (A')
                 (A") (A") (A') (A") (A") (A') (A') (A') (A") (A")
                 (A') (A') (A') (A") (A") (A') (A') (A') (A") (A")
                 (A') (A') (A') (A") (A") (A') (A') (A") (A') (A')
                 (A") (A') (A') (A") (A') (A") (A') (A") (A') (A")
                 (A') (A") (A') (A') (A") (A') (A') (A") (A') (A")
                 (A") (A') (A") (A') (A') (A') (A') (A') (A") (A')
                 (A') (A') (A')
 The electronic state is 1-A'.
 Alpha  occ. eigenvalues --  -15.65581 -11.29553  -1.30245  -0.71166  -0.62316
 Alpha  occ. eigenvalues --   -0.53219  -0.49700
 Alpha virt. eigenvalues --    0.08884   0.13884   0.14772   0.21314   0.29769
 Alpha virt. eigenvalues --    0.33766   0.34512   0.41637   0.45747   0.50616
 Alpha virt. eigenvalues --    0.51795   0.53728   0.68375   0.71945   0.76893
 Alpha virt. eigenvalues --    0.79884   0.85167   0.88227   0.88450   1.04061
 Alpha virt. eigenvalues --    1.05804   1.08371   1.17668   1.27846   1.29445
 Alpha virt. eigenvalues --    1.31805   1.46150   1.52112   1.63461   1.78754
 Alpha virt. eigenvalues --    1.86159   1.96125   2.00587   2.01143   2.07919
 Alpha virt. eigenvalues --    2.10913   2.11354   2.15785   2.16925   2.20101
 Alpha virt. eigenvalues --    2.24159   2.41386   2.48219   2.50364   2.53886
 Alpha virt. eigenvalues --    2.54719   2.58003   2.69279   2.77989   2.88365
 Alpha virt. eigenvalues --    2.96804   3.01889   3.09529   3.11090   3.27372
 Alpha virt. eigenvalues --    3.34837   3.36041   3.38490   3.39261   3.49676
 Alpha virt. eigenvalues --    3.55175   3.70988   3.97172   4.12032   4.13354
 Alpha virt. eigenvalues --    4.33419   4.55031   5.11870   5.22201   5.30123
 Alpha virt. eigenvalues --    5.48104   5.59103   5.72920   5.74434   5.96253
 Alpha virt. eigenvalues --    5.98374   6.00715   6.02236   6.08126   6.17949
 Alpha virt. eigenvalues --    6.21394   6.28339   6.30588   6.31750   6.34083
 Alpha virt. eigenvalues --    6.41848   6.55472   6.64397   6.80180   7.03019
 Alpha virt. eigenvalues --    7.04879   7.17511   7.30688   7.37438   7.46623
 Alpha virt. eigenvalues --    7.52905   7.61560   7.61724   7.71477   7.80625
 Alpha virt. eigenvalues --    8.15441   8.21785   8.29770   8.34685   8.42946
 Alpha virt. eigenvalues --    8.43587   8.53646   8.61323   8.70611   8.71814
 Alpha virt. eigenvalues --    8.82525   8.87679   8.89696   8.97089   9.00051
 Alpha virt. eigenvalues --    9.03218   9.15738   9.28762   9.44786   9.57254
 Alpha virt. eigenvalues --    9.79626   9.82753   9.97055   9.99122  10.29697
 Alpha virt. eigenvalues --   10.97695  11.04123  11.38447  11.45969  11.79980
 Alpha virt. eigenvalues --   12.29875  24.44808  32.25130
          Condensed to atoms (all electrons):
               1          2          3
     1  N    6.459494   0.559478   0.076111
     2  C    0.559478   5.269665   0.277034
     3  H    0.076111   0.277034   0.445595
 Mulliken charges:
               1
     1  N   -0.095083
     2  C   -0.106177
     3  H    0.201260
 Sum of Mulliken charges =   0.00000
 Mulliken charges with hydrogens summed into heavy atoms:
               1
     1  N   -0.095083
     2  C    0.095083
 Electronic spatial extent (au):  <R**2>=             48.1920
 Charge=              0.0000 electrons
 Dipole moment (field-independent basis, Debye):
    X=             -1.3203    Y=              0.1048    Z=              0.0000  Tot=              1.3245
 Quadrupole moment (field-independent basis, Debye-Ang):
   XX=             -9.8553   YY=            -14.4781   ZZ=            -12.3304
   XY=             -0.5654   XZ=              0.0000   YZ=              0.0000
 Traceless Quadrupole moment (field-independent basis, Debye-Ang):
   XX=              2.3659   YY=             -2.2568   ZZ=             -0.1092
   XY=             -0.5654   XZ=              0.0000   YZ=              0.0000
 Octapole moment (field-independent basis, Debye-Ang**2):
  XXX=             -2.7355  YYY=             -3.4795  ZZZ=              0.0000  XYY=             -0.3726
  XXY=             -0.6513  XXZ=              0.0000  XZZ=             -0.2734  YZZ=             -0.4899
  YYZ=              0.0000  XYZ=              0.0000
 Hexadecapole moment (field-independent basis, Debye-Ang**3):
 XXXX=            -13.1440 YYYY=            -44.7246 ZZZZ=            -12.7736 XXXY=             -0.5104
 XXXZ=              0.0000 YYYX=              0.1534 YYYZ=              0.0000 ZZZX=              0.0000
 ZZZY=              0.0000 XXYY=             -9.2989 XXZZ=             -4.8219 YYZZ=             -8.8940
 XXYZ=              0.0000 YYXZ=              0.0000 ZZXY=              0.0973
 N-N= 2.396502184355D+01 E-N=-2.650619442365D+02  KE= 9.269240324952D+01
 Symmetry A'   KE= 8.985632883163D+01
 Symmetry A"   KE= 2.836074417893D+00
 1|1|UNPC-AS-SC101-07|SP|RCCSD-Full|CC-pVQZ|C1H1N1|EPKTB|03-Oct-2016|0|
 |# ccsd(full)/cc-pvqz gfp geom=allcheck||HNC-HCN||0,1|N,0,0.0030623042
 ,0.,-0.0940100991|C,0,-0.028243367,0.,1.0966228473|H,0,1.1084695911,0.
 ,0.8063742563||Version=EM64W-G09RevE.01|State=1-A'|HF=-92.8375512|MP2=
 -93.2538379|MP3=-93.2571214|MP4D=-93.2674489|MP4DQ=-93.2558329|MP4SDQ=
 -93.2627042|CCSD=-93.2623227|RMSD=2.232e-009|PG=CS [SG(C1H1N1)]||@


 There are more things in heaven and earth, Horatio,
 than are dreamt of in your philosophy.
                   -- Hamlet, Act I, Scene 5
 Job cpu time:       0 days  0 hours  1 minutes 37.0 seconds.
 File lengths (MBytes):  RWF=    494 Int=      0 D2E=      0 Chk=      2 Scr=      1
 Normal termination of Gaussian 09 at Mon Oct 03 16:42:28 2016.
