 Entering Gaussian System, Link 0=g09
 Initial command:
 /cluster/software/gaussian/gaussian-09-D.01/g09/l1.exe "/local/scratch/maxb2/Gau-2502.inp" -scrdir="/local/scratch/maxb2/"
 Entering Link 1 = /cluster/software/gaussian/gaussian-09-D.01/g09/l1.exe PID=      2503.
  
 Copyright (c) 1988,1990,1992,1993,1995,1998,2003,2009,2013,
            Gaussian, Inc.  All Rights Reserved.
  
 This is part of the Gaussian(R) 09 program.  It is based on
 the Gaussian(R) 03 system (copyright 2003, Gaussian, Inc.),
 the Gaussian(R) 98 system (copyright 1998, Gaussian, Inc.),
 the Gaussian(R) 94 system (copyright 1995, Gaussian, Inc.),
 the Gaussian 92(TM) system (copyright 1992, Gaussian, Inc.),
 the Gaussian 90(TM) system (copyright 1990, Gaussian, Inc.),
 the Gaussian 88(TM) system (copyright 1988, Gaussian, Inc.),
 the Gaussian 86(TM) system (copyright 1986, Carnegie Mellon
 University), and the Gaussian 82(TM) system (copyright 1983,
 Carnegie Mellon University). Gaussian is a federally registered
 trademark of Gaussian, Inc.
  
 This software contains proprietary and confidential information,
 including trade secrets, belonging to Gaussian, Inc.
  
 This software is provided under written license and may be
 used, copied, transmitted, or stored only in accord with that
 written license.
  
 The following legend is applicable only to US Government
 contracts under FAR:
  
                    RESTRICTED RIGHTS LEGEND
  
 Use, reproduction and disclosure by the US Government is
 subject to restrictions as set forth in subparagraphs (a)
 and (c) of the Commercial Computer Software - Restricted
 Rights clause in FAR 52.227-19.
  
 Gaussian, Inc.
 340 Quinnipiac St., Bldg. 40, Wallingford CT 06492
  
  
 ---------------------------------------------------------------
 Warning -- This program may not be used in any manner that
 competes with the business of Gaussian, Inc. or will provide
 assistance to any competitor of Gaussian, Inc.  The licensee
 of this program is prohibited from giving any competitor of
 Gaussian, Inc. access to this program.  By using this program,
 the user acknowledges that Gaussian, Inc. is engaged in the
 business of creating and licensing software in the field of
 computational chemistry and represents and warrants to the
 licensee that it is not a competitor of Gaussian, Inc. and that
 it will not use this program in any manner prohibited above.
 ---------------------------------------------------------------
  

 Cite this work as:
 Gaussian 09, Revision D.01,
 M. J. Frisch, G. W. Trucks, H. B. Schlegel, G. E. Scuseria, 
 M. A. Robb, J. R. Cheeseman, G. Scalmani, V. Barone, B. Mennucci, 
 G. A. Petersson, H. Nakatsuji, M. Caricato, X. Li, H. P. Hratchian, 
 A. F. Izmaylov, J. Bloino, G. Zheng, J. L. Sonnenberg, M. Hada, 
 M. Ehara, K. Toyota, R. Fukuda, J. Hasegawa, M. Ishida, T. Nakajima, 
 Y. Honda, O. Kitao, H. Nakai, T. Vreven, J. A. Montgomery, Jr., 
 J. E. Peralta, F. Ogliaro, M. Bearpark, J. J. Heyd, E. Brothers, 
 K. N. Kudin, V. N. Staroverov, T. Keith, R. Kobayashi, J. Normand, 
 K. Raghavachari, A. Rendell, J. C. Burant, S. S. Iyengar, J. Tomasi, 
 M. Cossi, N. Rega, J. M. Millam, M. Klene, J. E. Knox, J. B. Cross, 
 V. Bakken, C. Adamo, J. Jaramillo, R. Gomperts, R. E. Stratmann, 
 O. Yazyev, A. J. Austin, R. Cammi, C. Pomelli, J. W. Ochterski, 
 R. L. Martin, K. Morokuma, V. G. Zakrzewski, G. A. Voth, 
 P. Salvador, J. J. Dannenberg, S. Dapprich, A. D. Daniels, 
 O. Farkas, J. B. Foresman, J. V. Ortiz, J. Cioslowski, 
 and D. J. Fox, Gaussian, Inc., Wallingford CT, 2013.
 
 ******************************************
 Gaussian 09:  ES64L-G09RevD.01 24-Apr-2013
                26-Sep-2016 
 ******************************************
 %rwf=/home/maxb2/scratch/HNC22/
 %int=/home/maxb2/scratch/HNC22/
 %d2e=/home/maxb2/scratch/HNC22/
 %nosave
 %mem=6GB
 %nprocshared=2
 Will use up to    2 processors via shared memory.
 %chk=HNC6311Gs
 ------------------------------------------
 # opt=(modredundant,tight) RHF/6-311g* gfp
 ------------------------------------------
 1/7=10,18=120,19=15,38=1/1,3;
 2/9=110,12=2,17=6,18=5,40=1/2;
 3/5=4,6=6,7=1,11=1,16=1,24=100,25=1,30=1,71=1,116=1/1,2,3;
 4//1;
 5/5=2,38=5/2;
 6/7=2,8=2,9=2,10=2,28=1/1;
 7//1,2,3,16;
 1/7=10,18=20,19=15/3(2);
 2/9=110/2;
 99//99;
 2/9=110/2;
 3/5=4,6=6,7=1,11=1,16=1,25=1,30=1,71=1,116=1/1,2,3;
 4/5=5,16=3,69=1/1;
 5/5=2,38=5/2;
 7//1,2,3,16;
 1/7=10,18=20,19=15/3(-5);
 2/9=110/2;
 6/7=2,8=2,9=2,10=2,19=2,28=1/1;
 99/9=1/99;
 -------
 HNC-HCN
 -------
 Symbolic Z-matrix:
 Charge =  0 Multiplicity = 1
 N
 C                    1    B1
 H                    2    B2       1    A1
       Variables:
  B1                    1.                       
  B2                    2.3                      
  A1                   10.                       
 
 Add virtual bond connecting atoms H3         and N1         Dist= 2.51D+00.
 The following ModRedundant input section has been read:
 A       1       2       3 S  30 5.3000                                        
 

 GradGradGradGradGradGradGradGradGradGradGradGradGradGradGradGradGradGrad
 Berny optimization.
 Initialization pass.
                           ----------------------------
                           !    Initial Parameters    !
                           ! (Angstroms and Degrees)  !
 --------------------------                            --------------------------
 ! Name  Definition              Value          Derivative Info.                !
 --------------------------------------------------------------------------------
 ! R1    R(1,2)                  1.0            estimate D2E/DX2                !
 ! R2    R(1,3)                  1.3266         estimate D2E/DX2                !
 ! A1    A(2,1,3)              162.4786         estimate D2E/DX2                !
 ! A2    A(1,2,3)                10.0           Scan                            !
 --------------------------------------------------------------------------------
 Trust Radius=3.00D-01 FncErr=1.00D-07 GrdErr=1.00D-07
 Number of optimizations in scan=  31
 Number of steps in this run=     20 maximum allowed number of steps=    100.
 GradGradGradGradGradGradGradGradGradGradGradGradGradGradGradGradGradGrad

                          Input orientation:                          
 ---------------------------------------------------------------------
 Center     Atomic      Atomic             Coordinates (Angstroms)
 Number     Number       Type             X           Y           Z
 ---------------------------------------------------------------------
      1          7           0        0.000000    0.000000    0.000000
      2          6           0        0.000000    0.000000    1.000000
      3          1           0        0.399391    0.000000   -1.265058
 ---------------------------------------------------------------------
                    Distance matrix (angstroms):
                    1          2          3
     1  N    0.000000
     2  C    1.000000   0.000000
     3  H    1.326606   2.300000   0.000000
 Stoichiometry    CHN
 Framework group  CS[SG(CHN)]
 Deg. of freedom     3
 Full point group                 CS      NOp   2
 Largest Abelian subgroup         CS      NOp   2
 Largest concise Abelian subgroup C1      NOp   1
                         Standard orientation:                         
 ---------------------------------------------------------------------
 Center     Atomic      Atomic             Coordinates (Angstroms)
 Number     Number       Type             X           Y           Z
 ---------------------------------------------------------------------
      1          7           0        0.028528    0.338210    0.000000
      2          6           0        0.028528   -0.661790    0.000000
      3          1           0       -0.370863    1.603268    0.000000
 ---------------------------------------------------------------------
 Rotational constants (GHZ):   4751.4500828     53.7478820     53.1466925
 Standard basis: 6-311G(d) (5D, 7F)
 AO basis set (Overlap normalization):
 Atom N1       Shell     1 S   6     bf    1 -     1          0.053909946308          0.639124568051          0.000000000000
      0.6293480000D+04  0.1969788147D-02
      0.9490440000D+03  0.1496128592D-01
      0.2187760000D+03  0.7350053084D-01
      0.6369160000D+02  0.2489367658D+00
      0.1882820000D+02  0.6024594331D+00
      0.2720230000D+01  0.2562017589D+00
 Atom N1       Shell     2 SP   3    bf    2 -     5          0.053909946308          0.639124568051          0.000000000000
      0.3063310000D+02  0.1119060795D+00  0.3831191864D-01
      0.7026140000D+01  0.9216666549D+00  0.2374031155D+00
      0.2112050000D+01 -0.2569191826D-02  0.8175923978D+00
 Atom N1       Shell     3 SP   1    bf    6 -     9          0.053909946308          0.639124568051          0.000000000000
      0.6840090000D+00  0.1000000000D+01  0.1000000000D+01
 Atom N1       Shell     4 SP   1    bf   10 -    13          0.053909946308          0.639124568051          0.000000000000
      0.2008780000D+00  0.1000000000D+01  0.1000000000D+01
 Atom N1       Shell     5 D   1     bf   14 -    18          0.053909946308          0.639124568051          0.000000000000
      0.9130000000D+00  0.1000000000D+01
 Atom C2       Shell     6 S   6     bf   19 -    19          0.053909946308         -1.250601564835          0.000000000000
      0.4563240000D+04  0.1966650249D-02
      0.6820240000D+03  0.1523060193D-01
      0.1549730000D+03  0.7612690966D-01
      0.4445530000D+02  0.2608010331D+00
      0.1302900000D+02  0.6164620782D+00
      0.1827730000D+01  0.2210060280D+00
 Atom C2       Shell     7 SP   3    bf   20 -    23          0.053909946308         -1.250601564835          0.000000000000
      0.2096420000D+02  0.1146600807D+00  0.4024869267D-01
      0.4803310000D+01  0.9199996477D+00  0.2375939567D+00
      0.1459330000D+01 -0.3030682134D-02  0.8158538515D+00
 Atom C2       Shell     8 SP   1    bf   24 -    27          0.053909946308         -1.250601564835          0.000000000000
      0.4834560000D+00  0.1000000000D+01  0.1000000000D+01
 Atom C2       Shell     9 SP   1    bf   28 -    31          0.053909946308         -1.250601564835          0.000000000000
      0.1455850000D+00  0.1000000000D+01  0.1000000000D+01
 Atom C2       Shell    10 D   1     bf   32 -    36          0.053909946308         -1.250601564835          0.000000000000
      0.6260000000D+00  0.1000000000D+01
 Atom H3       Shell    11 S   3     bf   37 -    37         -0.700829302002          3.029737412657          0.000000000000
      0.3386500000D+02  0.2549381454D-01
      0.5094790000D+01  0.1903731086D+00
      0.1158790000D+01  0.8521614860D+00
 Atom H3       Shell    12 S   1     bf   38 -    38         -0.700829302002          3.029737412657          0.000000000000
      0.3258400000D+00  0.1000000000D+01
 Atom H3       Shell    13 S   1     bf   39 -    39         -0.700829302002          3.029737412657          0.000000000000
      0.1027410000D+00  0.1000000000D+01
 There are    31 symmetry adapted cartesian basis functions of A'  symmetry.
 There are    10 symmetry adapted cartesian basis functions of A"  symmetry.
 There are    29 symmetry adapted basis functions of A'  symmetry.
 There are    10 symmetry adapted basis functions of A"  symmetry.
    39 basis functions,    69 primitive gaussians,    41 cartesian basis functions
     7 alpha electrons        7 beta electrons
       nuclear repulsion energy        26.3981731013 Hartrees.
 NAtoms=    3 NActive=    3 NUniq=    3 SFac= 1.00D+00 NAtFMM=   60 NAOKFM=F Big=F
 Integral buffers will be    131072 words long.
 Raffenetti 1 integral format.
 Two-electron integral symmetry is turned on.
 One-electron integrals computed using PRISM.
 NBasis=    39 RedAO= T EigKep=  5.45D-03  NBF=    29    10
 NBsUse=    39 1.00D-06 EigRej= -1.00D+00 NBFU=    29    10
 ExpMin= 1.03D-01 ExpMax= 6.29D+03 ExpMxC= 9.49D+02 IAcc=1 IRadAn=         1 AccDes= 0.00D+00
 Harris functional with IExCor=  205 and IRadAn=       1 diagonalized for initial guess.
 HarFok:  IExCor=  205 AccDes= 0.00D+00 IRadAn=         1 IDoV= 1 UseB2=F ITyADJ=14
 ICtDFT=  3500011 ScaDFX=  1.000000  1.000000  1.000000  1.000000
 FoFCou: FMM=F IPFlag=           0 FMFlag=      100000 FMFlg1=           0
         NFxFlg=           0 DoJE=T BraDBF=F KetDBF=T FulRan=T
         wScrn=  0.000000 ICntrl=     500 IOpCl=  0 I1Cent=   200000004 NGrid=           0
         NMat0=    1 NMatS0=      1 NMatT0=    0 NMatD0=    1 NMtDS0=    0 NMtDT0=    0
 Petite list used in FoFCou.
 Initial guess orbital symmetries:
       Occupied  (A') (A') (A') (A') (A") (A') (A')
       Virtual   (A') (A") (A') (A') (A') (A") (A') (A') (A') (A")
                 (A') (A') (A') (A") (A') (A") (A') (A') (A") (A')
                 (A') (A") (A') (A') (A") (A') (A') (A") (A') (A')
                 (A') (A')
 The electronic state of the initial guess is 1-A'.
 Keep R1 ints in memory in symmetry-blocked form, NReq=1161156.
 Requested convergence on RMS density matrix=1.00D-08 within 128 cycles.
 Requested convergence on MAX density matrix=1.00D-06.
 Requested convergence on             energy=1.00D-06.
 No special actions if energy rises.
 SCF Done:  E(RHF) =  -92.7354223614     A.U. after   12 cycles
            NFock= 12  Conv=0.55D-08     -V/T= 1.9915

 **********************************************************************

            Population analysis using the SCF density.

 **********************************************************************

 Orbital symmetries:
       Occupied  (A') (A') (A') (A') (A') (A") (A')
       Virtual   (A') (A') (A") (A') (A') (A') (A") (A') (A') (A")
                 (A') (A') (A') (A") (A') (A") (A') (A') (A") (A')
                 (A') (A") (A') (A') (A") (A') (A') (A") (A') (A')
                 (A') (A')
 The electronic state is 1-A'.
 Alpha  occ. eigenvalues --  -15.58535 -11.20710  -1.32507  -0.75696  -0.56829
 Alpha  occ. eigenvalues --   -0.56731  -0.44087
 Alpha virt. eigenvalues --    0.05968   0.25087   0.26639   0.34331   0.45253
 Alpha virt. eigenvalues --    0.59826   0.59883   0.64373   0.87809   0.90255
 Alpha virt. eigenvalues --    0.99196   1.26449   1.49402   1.54127   1.54158
 Alpha virt. eigenvalues --    1.82049   1.84238   2.35376   2.42741   2.42993
 Alpha virt. eigenvalues --    2.59556   3.03013   3.03580   3.08230   3.11143
 Alpha virt. eigenvalues --    3.13308   3.63458   4.32270   4.33145   5.08340
 Alpha virt. eigenvalues --   25.29519  37.47118
          Condensed to atoms (all electrons):
               1          2          3
     1  N    6.673472   0.580121   0.255022
     2  C    0.580121   5.366439   0.008402
     3  H    0.255022   0.008402   0.273000
 Mulliken charges:
               1
     1  N   -0.508615
     2  C    0.045038
     3  H    0.463576
 Sum of Mulliken charges =   0.00000
 Mulliken charges with hydrogens summed into heavy atoms:
               1
     1  N   -0.045038
     2  C    0.045038
 Electronic spatial extent (au):  <R**2>=             45.7812
 Charge=              0.0000 electrons
 Dipole moment (field-independent basis, Debye):
    X=             -0.8939    Y=              4.2772    Z=              0.0000  Tot=              4.3696
 Quadrupole moment (field-independent basis, Debye-Ang):
   XX=            -11.4369   YY=             -8.8200   ZZ=            -11.7946
   XY=             -1.3850   XZ=              0.0000   YZ=              0.0000
 Traceless Quadrupole moment (field-independent basis, Debye-Ang):
   XX=             -0.7531   YY=              1.8638   ZZ=             -1.1108
   XY=             -1.3850   XZ=              0.0000   YZ=              0.0000
 Octapole moment (field-independent basis, Debye-Ang**2):
  XXX=             -0.6348  YYY=             17.9443  ZZZ=              0.0000  XYY=             -2.7253
  XXY=              1.8983  XXZ=              0.0000  XZZ=             -0.1660  YZZ=              1.3344
  YYZ=              0.0000  XYZ=              0.0000
 Hexadecapole moment (field-independent basis, Debye-Ang**3):
 XXXX=            -11.5276 YYYY=            -30.2719 ZZZZ=            -11.1935 XXXY=              0.7575
 XXXZ=              0.0000 YYYX=             -3.0349 YYYZ=              0.0000 ZZZX=              0.0000
 ZZZY=              0.0000 XXYY=             -8.1033 XXZZ=             -3.7962 YYZZ=             -9.0359
 XXYZ=              0.0000 YYXZ=              0.0000 ZZXY=              0.3321
 N-N= 2.639817310127D+01 E-N=-2.708981895335D+02  KE= 9.353288320017D+01
 Symmetry A'   KE= 9.044588197952D+01
 Symmetry A"   KE= 3.087001220659D+00
 Calling FoFJK, ICntrl=      2127 FMM=F ISym2X=1 I1Cent= 0 IOpClX= 0 NMat=1 NMatS=1 NMatT=0.
 ***** Axes restored to original set *****
 -------------------------------------------------------------------
 Center     Atomic                   Forces (Hartrees/Bohr)
 Number     Number              X              Y              Z
 -------------------------------------------------------------------
      1        7           0.055468788    0.000000000   -0.758407987
      2        6          -0.007275853    0.000000000    0.623975757
      3        1          -0.048192935    0.000000000    0.134432231
 -------------------------------------------------------------------
 Cartesian Forces:  Max     0.758407987 RMS     0.331336138

 GradGradGradGradGradGradGradGradGradGradGradGradGradGradGradGradGradGrad
 Berny optimization.
 FormGI is forming the generalized inverse of G from B-inverse, IUseBI=4.
 Internal  Forces:  Max     0.622861183 RMS     0.319712603
 Search for a local minimum.
 Step number   1 out of a maximum of   20 on scan point     1 out of    31
 All quantities printed in internal units (Hartrees-Bohrs-Radians)
 Mixed Optimization -- RFO/linear search
 Second derivative matrix not updated -- first step.
 The second derivative matrix:
                          R1        R2        A1        A2
           R1           3.32740
           R2           0.00000   0.17328
           A1           0.00000   0.00000   0.16000
           A2           0.00000   0.00000   0.00000   0.16000
 ITU=  0
     Eigenvalues ---    0.17325   3.312051000.000001000.00000
 RFO step:  Lambda=-1.69433659D-01 EMin= 1.73245494D-01
 Linear search not attempted -- first point.
 Maximum step size (   0.300) exceeded in Quadratic search.
    -- Step size scaled by   0.666
 Iteration  1 RMS(Cart)=  0.07302360 RMS(Int)=  0.03749007
 Iteration  2 RMS(Cart)=  0.03054138 RMS(Int)=  0.00066315
 Iteration  3 RMS(Cart)=  0.00002335 RMS(Int)=  0.00066246
 Iteration  4 RMS(Cart)=  0.00000000 RMS(Int)=  0.00066246
 Iteration  1 RMS(Cart)=  0.00021398 RMS(Int)=  0.00051716
 Iteration  2 RMS(Cart)=  0.00016706 RMS(Int)=  0.00055968
 Iteration  3 RMS(Cart)=  0.00013042 RMS(Int)=  0.00064238
 Iteration  4 RMS(Cart)=  0.00010182 RMS(Int)=  0.00072736
 Iteration  5 RMS(Cart)=  0.00007949 RMS(Int)=  0.00080223
 Iteration  6 RMS(Cart)=  0.00006205 RMS(Int)=  0.00086450
 Iteration  7 RMS(Cart)=  0.00004844 RMS(Int)=  0.00091497
 Iteration  8 RMS(Cart)=  0.00003781 RMS(Int)=  0.00095532
 Iteration  9 RMS(Cart)=  0.00002952 RMS(Int)=  0.00098732
 Iteration 10 RMS(Cart)=  0.00002304 RMS(Int)=  0.00101257
 Iteration 11 RMS(Cart)=  0.00001799 RMS(Int)=  0.00103244
 Iteration 12 RMS(Cart)=  0.00001404 RMS(Int)=  0.00104805
 Iteration 13 RMS(Cart)=  0.00001096 RMS(Int)=  0.00106028
 Iteration 14 RMS(Cart)=  0.00000856 RMS(Int)=  0.00106986
 Iteration 15 RMS(Cart)=  0.00000668 RMS(Int)=  0.00107735
 Iteration 16 RMS(Cart)=  0.00000521 RMS(Int)=  0.00108322
 Iteration 17 RMS(Cart)=  0.00000407 RMS(Int)=  0.00108780
 Iteration 18 RMS(Cart)=  0.00000318 RMS(Int)=  0.00109138
 Iteration 19 RMS(Cart)=  0.00000248 RMS(Int)=  0.00109418
 Iteration 20 RMS(Cart)=  0.00000194 RMS(Int)=  0.00109636
 Iteration 21 RMS(Cart)=  0.00000151 RMS(Int)=  0.00109807
 Iteration 22 RMS(Cart)=  0.00000118 RMS(Int)=  0.00109940
 Iteration 23 RMS(Cart)=  0.00000092 RMS(Int)=  0.00110044
 ClnCor:  largest displacement from symmetrization is 2.22D-16 for atom     2.
 Variable       Old X    -DE/DX   Delta X   Delta X   Delta X     New X
                                 (Linear)    (Quad)   (Total)
    R1        1.88973   0.62286   0.00000   0.11847   0.11825   2.00798
    R2        2.50692  -0.14186   0.00000  -0.27468  -0.27448   2.23244
    A1        2.83579  -0.00220   0.00000  -0.02274  -0.02555   2.81024
    A2        0.17453  -0.02790   0.00000   0.00000   0.00000   0.17453
         Item               Value     Threshold  Converged?
 Maximum Force            0.619478     0.000015     NO 
 RMS     Force            0.367752     0.000010     NO 
 Maximum Displacement     0.144493     0.000060     NO 
 RMS     Displacement     0.099616     0.000040     NO 
 Predicted change in Energy=-8.280581D-02
 GradGradGradGradGradGradGradGradGradGradGradGradGradGradGradGradGradGrad

                          Input orientation:                          
 ---------------------------------------------------------------------
 Center     Atomic      Atomic             Coordinates (Angstroms)
 Number     Number       Type             X           Y           Z
 ---------------------------------------------------------------------
      1          7           0        0.005118    0.000000   -0.069512
      2          6           0        0.010655    0.000000    0.993050
      3          1           0        0.383618    0.000000   -1.188595
 ---------------------------------------------------------------------
                    Distance matrix (angstroms):
                    1          2          3
     1  N    0.000000
     2  C    1.062577   0.000000
     3  H    1.181359   2.213296   0.000000
 Stoichiometry    CHN
 Framework group  CS[SG(CHN)]
 Deg. of freedom     3
 Full point group                 CS      NOp   2
 Largest Abelian subgroup         CS      NOp   2
 Largest concise Abelian subgroup C1      NOp   1
                         Standard orientation:                         
 ---------------------------------------------------------------------
 Center     Atomic      Atomic             Coordinates (Angstroms)
 Number     Number       Type             X           Y           Z
 ---------------------------------------------------------------------
      1          7           0        0.027452    0.375598    0.000000
      2          6           0        0.027452   -0.686979    0.000000
      3          1           0       -0.356874    1.492693    0.000000
 ---------------------------------------------------------------------
 Rotational constants (GHZ):   4756.1289246     51.3581415     50.8094851
 Standard basis: 6-311G(d) (5D, 7F)
 There are    31 symmetry adapted cartesian basis functions of A'  symmetry.
 There are    10 symmetry adapted cartesian basis functions of A"  symmetry.
 There are    29 symmetry adapted basis functions of A'  symmetry.
 There are    10 symmetry adapted basis functions of A"  symmetry.
    39 basis functions,    69 primitive gaussians,    41 cartesian basis functions
     7 alpha electrons        7 beta electrons
       nuclear repulsion energy        25.4866666522 Hartrees.
 NAtoms=    3 NActive=    3 NUniq=    3 SFac= 1.00D+00 NAtFMM=   60 NAOKFM=F Big=F
 Integral buffers will be    131072 words long.
 Raffenetti 1 integral format.
 Two-electron integral symmetry is turned on.
 One-electron integrals computed using PRISM.
 NBasis=    39 RedAO= T EigKep=  6.55D-03  NBF=    29    10
 NBsUse=    39 1.00D-06 EigRej= -1.00D+00 NBFU=    29    10
 Initial guess from the checkpoint file:  "HNC6311Gs.chk"
 B after Tr=     0.000000    0.000000    0.000000
         Rot=    0.999999    0.000000    0.000000   -0.001626 Ang=  -0.19 deg.
 Initial guess orbital symmetries:
       Occupied  (A') (A') (A') (A') (A') (A") (A')
       Virtual   (A') (A') (A') (A') (A') (A') (A') (A') (A') (A')
                 (A') (A') (A') (A') (A') (A') (A') (A') (A') (A')
                 (A') (A') (A') (A") (A") (A") (A") (A") (A") (A")
                 (A") (A")
 ExpMin= 1.03D-01 ExpMax= 6.29D+03 ExpMxC= 9.49D+02 IAcc=1 IRadAn=         1 AccDes= 0.00D+00
 Harris functional with IExCor=  205 and IRadAn=       1 diagonalized for initial guess.
 HarFok:  IExCor=  205 AccDes= 0.00D+00 IRadAn=         1 IDoV= 1 UseB2=F ITyADJ=14
 ICtDFT=  3500011 ScaDFX=  1.000000  1.000000  1.000000  1.000000
 FoFCou: FMM=F IPFlag=           0 FMFlag=      100000 FMFlg1=           0
         NFxFlg=           0 DoJE=T BraDBF=F KetDBF=T FulRan=T
         wScrn=  0.000000 ICntrl=     500 IOpCl=  0 I1Cent=   200000004 NGrid=           0
         NMat0=    1 NMatS0=      1 NMatT0=    0 NMatD0=    1 NMtDS0=    0 NMtDT0=    0
 Petite list used in FoFCou.
 Keep R1 ints in memory in symmetry-blocked form, NReq=1161198.
 Requested convergence on RMS density matrix=1.00D-08 within 128 cycles.
 Requested convergence on MAX density matrix=1.00D-06.
 Requested convergence on             energy=1.00D-06.
 No special actions if energy rises.
 SCF Done:  E(RHF) =  -92.8256582389     A.U. after   12 cycles
            NFock= 12  Conv=0.86D-08     -V/T= 1.9964
 Calling FoFJK, ICntrl=      2127 FMM=F ISym2X=1 I1Cent= 0 IOpClX= 0 NMat=1 NMatS=1 NMatT=0.
 ***** Axes restored to original set *****
 -------------------------------------------------------------------
 Center     Atomic                   Forces (Hartrees/Bohr)
 Number     Number              X              Y              Z
 -------------------------------------------------------------------
      1        7           0.048833062    0.000000000   -0.414450912
      2        6          -0.004627382    0.000000000    0.301146891
      3        1          -0.044205680    0.000000000    0.113304021
 -------------------------------------------------------------------
 Cartesian Forces:  Max     0.414450912 RMS     0.176275363

 GradGradGradGradGradGradGradGradGradGradGradGradGradGradGradGradGradGrad
 Berny optimization.
 Using GEDIIS/GDIIS optimizer.
 FormGI is forming the generalized inverse of G from B-inverse, IUseBI=4.
 Internal  Forces:  Max     0.300353929 RMS     0.162136879
 Search for a local minimum.
 Step number   2 out of a maximum of   20 on scan point     1 out of    31
 All quantities printed in internal units (Hartrees-Bohrs-Radians)
 Mixed Optimization -- RFO/linear search
 Update second derivatives using D2CorX and points    1    2
 DE= -9.02D-02 DEPred=-8.28D-02 R= 1.09D+00
 TightC=F SS=  1.41D+00  RLast= 3.00D-01 DXNew= 5.0454D-01 8.9987D-01
 Trust test= 1.09D+00 RLast= 3.00D-01 DXMaxT set to 5.05D-01
 The second derivative matrix:
                          R1        R2        A1        A2
           R1           3.09512
           R2           0.15934   0.14545
           A1          -0.00918  -0.00090   0.16027
           A2          -0.06939   0.00453   0.00106   0.16204
 ITU=  1  0
 Use linear search instead of GDIIS.
 Linear search step of   0.546 exceeds DXMaxT=   0.505 but not scaled.
 Quartic linear search produced a step of  1.82117.
 Iteration  1 RMS(Cart)=  0.08478441 RMS(Int)=  0.15058712
 Iteration  2 RMS(Cart)=  0.07860953 RMS(Int)=  0.05050996
 Iteration  3 RMS(Cart)=  0.04089635 RMS(Int)=  0.00425565
 Iteration  4 RMS(Cart)=  0.00011281 RMS(Int)=  0.00425300
 Iteration  5 RMS(Cart)=  0.00000013 RMS(Int)=  0.00425300
 Iteration  1 RMS(Cart)=  0.00117076 RMS(Int)=  0.00356474
 Iteration  2 RMS(Cart)=  0.00098052 RMS(Int)=  0.00380006
 Iteration  3 RMS(Cart)=  0.00082104 RMS(Int)=  0.00430788
 Iteration  4 RMS(Cart)=  0.00068738 RMS(Int)=  0.00488593
 Iteration  5 RMS(Cart)=  0.00057540 RMS(Int)=  0.00544321
 Iteration  6 RMS(Cart)=  0.00048161 RMS(Int)=  0.00594659
 Iteration  7 RMS(Cart)=  0.00040306 RMS(Int)=  0.00638759
 Iteration  8 RMS(Cart)=  0.00033730 RMS(Int)=  0.00676770
 Iteration  9 RMS(Cart)=  0.00028225 RMS(Int)=  0.00709226
 Iteration 10 RMS(Cart)=  0.00023617 RMS(Int)=  0.00736776
 Iteration 11 RMS(Cart)=  0.00019760 RMS(Int)=  0.00760072
 Iteration 12 RMS(Cart)=  0.00016532 RMS(Int)=  0.00779719
 Iteration 13 RMS(Cart)=  0.00013831 RMS(Int)=  0.00796257
 Iteration 14 RMS(Cart)=  0.00011572 RMS(Int)=  0.00810158
 Iteration 15 RMS(Cart)=  0.00009681 RMS(Int)=  0.00821832
 Iteration 16 RMS(Cart)=  0.00008099 RMS(Int)=  0.00831627
 Iteration 17 RMS(Cart)=  0.00006775 RMS(Int)=  0.00839842
 Iteration 18 RMS(Cart)=  0.00005667 RMS(Int)=  0.00846726
 Iteration 19 RMS(Cart)=  0.00004741 RMS(Int)=  0.00852495
 Iteration 20 RMS(Cart)=  0.00003966 RMS(Int)=  0.00857327
 Iteration 21 RMS(Cart)=  0.00003318 RMS(Int)=  0.00861374
 Iteration 22 RMS(Cart)=  0.00002775 RMS(Int)=  0.00864761
 Iteration 23 RMS(Cart)=  0.00002322 RMS(Int)=  0.00867597
 Iteration 24 RMS(Cart)=  0.00001942 RMS(Int)=  0.00869971
 Iteration 25 RMS(Cart)=  0.00001624 RMS(Int)=  0.00871958
 Iteration 26 RMS(Cart)=  0.00001359 RMS(Int)=  0.00873620
 Iteration 27 RMS(Cart)=  0.00001137 RMS(Int)=  0.00875011
 Iteration 28 RMS(Cart)=  0.00000951 RMS(Int)=  0.00876176
 Iteration 29 RMS(Cart)=  0.00000795 RMS(Int)=  0.00877149
 Iteration 30 RMS(Cart)=  0.00000665 RMS(Int)=  0.00877964
 Iteration 31 RMS(Cart)=  0.00000557 RMS(Int)=  0.00878646
 Iteration 32 RMS(Cart)=  0.00000466 RMS(Int)=  0.00879216
 Iteration 33 RMS(Cart)=  0.00000389 RMS(Int)=  0.00879694
 Iteration 34 RMS(Cart)=  0.00000326 RMS(Int)=  0.00880093
 Iteration 35 RMS(Cart)=  0.00000272 RMS(Int)=  0.00880427
 Iteration 36 RMS(Cart)=  0.00000228 RMS(Int)=  0.00880706
 Iteration 37 RMS(Cart)=  0.00000191 RMS(Int)=  0.00880940
 Iteration 38 RMS(Cart)=  0.00000159 RMS(Int)=  0.00881135
 Iteration 39 RMS(Cart)=  0.00000133 RMS(Int)=  0.00881299
 Iteration 40 RMS(Cart)=  0.00000112 RMS(Int)=  0.00881435
 Iteration 41 RMS(Cart)=  0.00000093 RMS(Int)=  0.00881550
 ClnCor:  largest displacement from symmetrization is 2.48D-16 for atom     3.
 Variable       Old X    -DE/DX   Delta X   Delta X   Delta X     New X
                                 (Linear)    (Quad)   (Total)
    R1        2.00798   0.30035   0.21536   0.00000   0.21329   2.22127
    R2        2.23244  -0.12081  -0.49987   0.00000  -0.49720   1.73524
    A1        2.81024   0.00273  -0.04653   0.00000  -0.06732   2.74291
    A2        0.17453  -0.01842  -0.00001   0.00000   0.00000   0.17453
         Item               Value     Threshold  Converged?
 Maximum Force            0.297633     0.000015     NO 
 RMS     Force            0.185838     0.000010     NO 
 Maximum Displacement     0.265710     0.000060     NO 
 RMS     Displacement     0.182438     0.000040     NO 
 Predicted change in Energy=-5.199582D-02
 GradGradGradGradGradGradGradGradGradGradGradGradGradGradGradGradGradGrad

                          Input orientation:                          
 ---------------------------------------------------------------------
 Center     Atomic      Atomic             Coordinates (Angstroms)
 Number     Number       Type             X           Y           Z
 ---------------------------------------------------------------------
      1          7           0        0.012576    0.000000   -0.196183
      2          6           0        0.031295    0.000000    0.979113
      3          1           0        0.355520    0.000000   -1.047988
 ---------------------------------------------------------------------
                    Distance matrix (angstroms):
                    1          2          3
     1  N    0.000000
     2  C    1.175445   0.000000
     3  H    0.918249   2.052866   0.000000
 Stoichiometry    CHN
 Framework group  CS[SG(CHN)]
 Deg. of freedom     3
 Full point group                 CS      NOp   2
 Largest Abelian subgroup         CS      NOp   2
 Largest concise Abelian subgroup C1      NOp   1
                         Standard orientation:                         
 ---------------------------------------------------------------------
 Center     Atomic      Atomic             Coordinates (Angstroms)
 Number     Number       Type             X           Y           Z
 ---------------------------------------------------------------------
      1          7           0        0.025462    0.443317    0.000000
      2          6           0        0.025462   -0.732128    0.000000
      3          1           0       -0.331004    1.289552    0.000000
 ---------------------------------------------------------------------
 Rotational constants (GHZ):   4968.2235394     46.7026426     46.2677136
 Standard basis: 6-311G(d) (5D, 7F)
 There are    31 symmetry adapted cartesian basis functions of A'  symmetry.
 There are    10 symmetry adapted cartesian basis functions of A"  symmetry.
 There are    29 symmetry adapted basis functions of A'  symmetry.
 There are    10 symmetry adapted basis functions of A"  symmetry.
    39 basis functions,    69 primitive gaussians,    41 cartesian basis functions
     7 alpha electrons        7 beta electrons
       nuclear repulsion energy        24.4887784815 Hartrees.
 NAtoms=    3 NActive=    3 NUniq=    3 SFac= 1.00D+00 NAtFMM=   60 NAOKFM=F Big=F
 Integral buffers will be    131072 words long.
 Raffenetti 1 integral format.
 Two-electron integral symmetry is turned on.
 One-electron integrals computed using PRISM.
 NBasis=    39 RedAO= T EigKep=  8.99D-03  NBF=    29    10
 NBsUse=    39 1.00D-06 EigRej= -1.00D+00 NBFU=    29    10
 Initial guess from the checkpoint file:  "HNC6311Gs.chk"
 B after Tr=     0.000000    0.000000    0.000000
         Rot=    0.999996    0.000000    0.000000   -0.002926 Ang=  -0.34 deg.
 Initial guess orbital symmetries:
       Occupied  (A') (A') (A') (A') (A') (A") (A')
       Virtual   (A') (A') (A') (A') (A') (A') (A') (A') (A') (A')
                 (A') (A') (A') (A') (A') (A') (A') (A') (A') (A')
                 (A') (A') (A') (A") (A") (A") (A") (A") (A") (A")
                 (A") (A")
 ExpMin= 1.03D-01 ExpMax= 6.29D+03 ExpMxC= 9.49D+02 IAcc=1 IRadAn=         1 AccDes= 0.00D+00
 Harris functional with IExCor=  205 and IRadAn=       1 diagonalized for initial guess.
 HarFok:  IExCor=  205 AccDes= 0.00D+00 IRadAn=         1 IDoV= 1 UseB2=F ITyADJ=14
 ICtDFT=  3500011 ScaDFX=  1.000000  1.000000  1.000000  1.000000
 FoFCou: FMM=F IPFlag=           0 FMFlag=      100000 FMFlg1=           0
         NFxFlg=           0 DoJE=T BraDBF=F KetDBF=T FulRan=T
         wScrn=  0.000000 ICntrl=     500 IOpCl=  0 I1Cent=   200000004 NGrid=           0
         NMat0=    1 NMatS0=      1 NMatT0=    0 NMatD0=    1 NMtDS0=    0 NMtDT0=    0
 Petite list used in FoFCou.
 Keep R1 ints in memory in symmetry-blocked form, NReq=1161168.
 Requested convergence on RMS density matrix=1.00D-08 within 128 cycles.
 Requested convergence on MAX density matrix=1.00D-06.
 Requested convergence on             energy=1.00D-06.
 No special actions if energy rises.
 SCF Done:  E(RHF) =  -92.8695335714     A.U. after   13 cycles
            NFock= 13  Conv=0.72D-08     -V/T= 1.9994
 Calling FoFJK, ICntrl=      2127 FMM=F ISym2X=1 I1Cent= 0 IOpClX= 0 NMat=1 NMatS=1 NMatT=0.
 ***** Axes restored to original set *****
 -------------------------------------------------------------------
 Center     Atomic                   Forces (Hartrees/Bohr)
 Number     Number              X              Y              Z
 -------------------------------------------------------------------
      1        7          -0.021968011    0.000000000    0.138521798
      2        6          -0.005688797    0.000000000   -0.053237865
      3        1           0.027656809    0.000000000   -0.085283933
 -------------------------------------------------------------------
 Cartesian Forces:  Max     0.138521798 RMS     0.058286422

 GradGradGradGradGradGradGradGradGradGradGradGradGradGradGradGradGradGrad
 Berny optimization.
 Using GEDIIS/GDIIS optimizer.
 FormGI is forming the generalized inverse of G from B-inverse, IUseBI=4.
 Internal  Forces:  Max     0.089306636 RMS     0.052325884
 Search for a local minimum.
 Step number   3 out of a maximum of   20 on scan point     1 out of    31
 All quantities printed in internal units (Hartrees-Bohrs-Radians)
 Mixed Optimization -- RFO/linear search
 Update second derivatives using D2CorX and points    2    3
 The second derivative matrix:
                          R1        R2        A1        A2
           R1           1.43742
           R2          -0.09758   0.37987
           A1           0.02281   0.00637   0.15967
           A2          -0.04089   0.02417   0.00064   0.16239
 ITU=  0  1  0
 Use linear search instead of GDIIS.
     Eigenvalues ---    0.36986   1.425151000.000001000.00000
 RFO step:  Lambda=-2.45198216D-03 EMin= 3.69862165D-01
 Quartic linear search produced a step of -0.24834.
 Iteration  1 RMS(Cart)=  0.07130148 RMS(Int)=  0.00098517
 Iteration  2 RMS(Cart)=  0.00064401 RMS(Int)=  0.00051561
 Iteration  3 RMS(Cart)=  0.00000041 RMS(Int)=  0.00051561
 Iteration  1 RMS(Cart)=  0.00015321 RMS(Int)=  0.00042057
 Iteration  2 RMS(Cart)=  0.00012562 RMS(Int)=  0.00045055
 Iteration  3 RMS(Cart)=  0.00010300 RMS(Int)=  0.00051320
 Iteration  4 RMS(Cart)=  0.00008445 RMS(Int)=  0.00058230
 Iteration  5 RMS(Cart)=  0.00006925 RMS(Int)=  0.00064712
 Iteration  6 RMS(Cart)=  0.00005678 RMS(Int)=  0.00070424
 Iteration  7 RMS(Cart)=  0.00004656 RMS(Int)=  0.00075314
 Iteration  8 RMS(Cart)=  0.00003818 RMS(Int)=  0.00079435
 Iteration  9 RMS(Cart)=  0.00003130 RMS(Int)=  0.00082880
 Iteration 10 RMS(Cart)=  0.00002567 RMS(Int)=  0.00085742
 Iteration 11 RMS(Cart)=  0.00002105 RMS(Int)=  0.00088112
 Iteration 12 RMS(Cart)=  0.00001726 RMS(Int)=  0.00090069
 Iteration 13 RMS(Cart)=  0.00001415 RMS(Int)=  0.00091683
 Iteration 14 RMS(Cart)=  0.00001161 RMS(Int)=  0.00093013
 Iteration 15 RMS(Cart)=  0.00000952 RMS(Int)=  0.00094106
 Iteration 16 RMS(Cart)=  0.00000780 RMS(Int)=  0.00095006
 Iteration 17 RMS(Cart)=  0.00000640 RMS(Int)=  0.00095744
 Iteration 18 RMS(Cart)=  0.00000525 RMS(Int)=  0.00096351
 Iteration 19 RMS(Cart)=  0.00000430 RMS(Int)=  0.00096850
 Iteration 20 RMS(Cart)=  0.00000353 RMS(Int)=  0.00097259
 Iteration 21 RMS(Cart)=  0.00000289 RMS(Int)=  0.00097595
 Iteration 22 RMS(Cart)=  0.00000237 RMS(Int)=  0.00097870
 Iteration 23 RMS(Cart)=  0.00000195 RMS(Int)=  0.00098096
 Iteration 24 RMS(Cart)=  0.00000160 RMS(Int)=  0.00098282
 Iteration 25 RMS(Cart)=  0.00000131 RMS(Int)=  0.00098434
 Iteration 26 RMS(Cart)=  0.00000107 RMS(Int)=  0.00098559
 Iteration 27 RMS(Cart)=  0.00000088 RMS(Int)=  0.00098661
 ClnCor:  largest displacement from symmetrization is 1.11D-16 for atom     3.
 Variable       Old X    -DE/DX   Delta X   Delta X   Delta X     New X
                                 (Linear)    (Quad)   (Total)
    R1        2.22127  -0.05322  -0.05297   0.03321  -0.01954   2.20173
    R2        1.73524   0.08931   0.12347   0.05644   0.17966   1.91490
    A1        2.74291   0.01178   0.01672   0.00402   0.02313   2.76604
    A2        0.17453   0.00236   0.00000   0.00000   0.00001   0.17454
         Item               Value     Threshold  Converged?
 Maximum Force            0.088615     0.000015     NO 
 RMS     Force            0.060327     0.000010     NO 
 Maximum Displacement     0.113878     0.000060     NO 
 RMS     Displacement     0.071593     0.000040     NO 
 Predicted change in Energy=-1.055072D-02
 GradGradGradGradGradGradGradGradGradGradGradGradGradGradGradGradGradGrad

                          Input orientation:                          
 ---------------------------------------------------------------------
 Center     Atomic      Atomic             Coordinates (Angstroms)
 Number     Number       Type             X           Y           Z
 ---------------------------------------------------------------------
      1          7           0        0.008309    0.000000   -0.160911
      2          6           0        0.023088    0.000000    1.004103
      3          1           0        0.367994    0.000000   -1.108250
 ---------------------------------------------------------------------
                    Distance matrix (angstroms):
                    1          2          3
     1  N    0.000000
     2  C    1.165107   0.000000
     3  H    1.013323   2.140325   0.000000
 Stoichiometry    CHN
 Framework group  CS[SG(CHN)]
 Deg. of freedom     3
 Full point group                 CS      NOp   2
 Largest Abelian subgroup         CS      NOp   2
 Largest concise Abelian subgroup C1      NOp   1
                         Standard orientation:                         
 ---------------------------------------------------------------------
 Center     Atomic      Atomic             Coordinates (Angstroms)
 Number     Number       Type             X           Y           Z
 ---------------------------------------------------------------------
      1          7           0        0.026548    0.431996    0.000000
      2          6           0        0.026548   -0.733111    0.000000
      3          1           0       -0.345125    1.374696    0.000000
 ---------------------------------------------------------------------
 Rotational constants (GHZ):   4696.0414829     46.2592389     45.8079986
 Standard basis: 6-311G(d) (5D, 7F)
 There are    31 symmetry adapted cartesian basis functions of A'  symmetry.
 There are    10 symmetry adapted cartesian basis functions of A"  symmetry.
 There are    29 symmetry adapted basis functions of A'  symmetry.
 There are    10 symmetry adapted basis functions of A"  symmetry.
    39 basis functions,    69 primitive gaussians,    41 cartesian basis functions
     7 alpha electrons        7 beta electrons
       nuclear repulsion energy        24.2148648494 Hartrees.
 NAtoms=    3 NActive=    3 NUniq=    3 SFac= 1.00D+00 NAtFMM=   60 NAOKFM=F Big=F
 Integral buffers will be    131072 words long.
 Raffenetti 1 integral format.
 Two-electron integral symmetry is turned on.
 One-electron integrals computed using PRISM.
 NBasis=    39 RedAO= T EigKep=  8.82D-03  NBF=    29    10
 NBsUse=    39 1.00D-06 EigRej= -1.00D+00 NBFU=    29    10
 Initial guess from the checkpoint file:  "HNC6311Gs.chk"
 B after Tr=     0.000000    0.000000    0.000000
         Rot=    1.000000    0.000000    0.000000    0.000832 Ang=   0.10 deg.
 Initial guess orbital symmetries:
       Occupied  (A') (A') (A') (A') (A') (A") (A')
       Virtual   (A') (A') (A') (A') (A') (A') (A') (A') (A') (A')
                 (A') (A') (A') (A') (A') (A') (A') (A') (A') (A')
                 (A') (A') (A') (A") (A") (A") (A") (A") (A") (A")
                 (A") (A")
 ExpMin= 1.03D-01 ExpMax= 6.29D+03 ExpMxC= 9.49D+02 IAcc=1 IRadAn=         1 AccDes= 0.00D+00
 Harris functional with IExCor=  205 and IRadAn=       1 diagonalized for initial guess.
 HarFok:  IExCor=  205 AccDes= 0.00D+00 IRadAn=         1 IDoV= 1 UseB2=F ITyADJ=14
 ICtDFT=  3500011 ScaDFX=  1.000000  1.000000  1.000000  1.000000
 FoFCou: FMM=F IPFlag=           0 FMFlag=      100000 FMFlg1=           0
         NFxFlg=           0 DoJE=T BraDBF=F KetDBF=T FulRan=T
         wScrn=  0.000000 ICntrl=     500 IOpCl=  0 I1Cent=   200000004 NGrid=           0
         NMat0=    1 NMatS0=      1 NMatT0=    0 NMatD0=    1 NMtDS0=    0 NMtDT0=    0
 Petite list used in FoFCou.
 Keep R1 ints in memory in symmetry-blocked form, NReq=1161168.
 Requested convergence on RMS density matrix=1.00D-08 within 128 cycles.
 Requested convergence on MAX density matrix=1.00D-06.
 Requested convergence on             energy=1.00D-06.
 No special actions if energy rises.
 SCF Done:  E(RHF) =  -92.8750074460     A.U. after   12 cycles
            NFock= 12  Conv=0.36D-08     -V/T= 2.0011
 Calling FoFJK, ICntrl=      2127 FMM=F ISym2X=1 I1Cent= 0 IOpClX= 0 NMat=1 NMatS=1 NMatT=0.
 ***** Axes restored to original set *****
 -------------------------------------------------------------------
 Center     Atomic                   Forces (Hartrees/Bohr)
 Number     Number              X              Y              Z
 -------------------------------------------------------------------
      1        7           0.018834097    0.000000000    0.003709894
      2        6          -0.004385356    0.000000000   -0.028741851
      3        1          -0.014448741    0.000000000    0.025031957
 -------------------------------------------------------------------
 Cartesian Forces:  Max     0.028741851 RMS     0.015089278

 GradGradGradGradGradGradGradGradGradGradGradGradGradGradGradGradGradGrad
 Berny optimization.
 Using GEDIIS/GDIIS optimizer.
 FormGI is forming the generalized inverse of G from B-inverse, IUseBI=4.
 Internal  Forces:  Max     0.028945800 RMS     0.020654917
 Search for a local minimum.
 Step number   4 out of a maximum of   20 on scan point     1 out of    31
 All quantities printed in internal units (Hartrees-Bohrs-Radians)
 Mixed Optimization -- RFO/linear search
 Update second derivatives using D2CorX and points    2    3    4
 DE= -5.47D-03 DEPred=-1.06D-02 R= 5.19D-01
 TightC=F SS=  1.41D+00  RLast= 1.82D-01 DXNew= 8.4853D-01 5.4659D-01
 Trust test= 5.19D-01 RLast= 1.82D-01 DXMaxT set to 5.47D-01
 The second derivative matrix:
                          R1        R2        A1        A2
           R1           1.59618
           R2           0.03465   0.65763
           A1           0.02977   0.00814   0.15895
           A2          -0.03951   0.02834   0.00017   0.16228
 ITU=  1  0  1  0
 Use linear search instead of GDIIS.
     Eigenvalues ---    0.65190   1.581271000.000001000.00000
 RFO step:  Lambda=-7.88903237D-04 EMin= 6.51901150D-01
 Quartic linear search produced a step of -0.25304.
 Iteration  1 RMS(Cart)=  0.02482012 RMS(Int)=  0.00010588
 Iteration  2 RMS(Cart)=  0.00003303 RMS(Int)=  0.00009634
 Iteration  3 RMS(Cart)=  0.00000000 RMS(Int)=  0.00009634
 Iteration  1 RMS(Cart)=  0.00002845 RMS(Int)=  0.00008017
 Iteration  2 RMS(Cart)=  0.00002341 RMS(Int)=  0.00008581
 Iteration  3 RMS(Cart)=  0.00001926 RMS(Int)=  0.00009767
 Iteration  4 RMS(Cart)=  0.00001585 RMS(Int)=  0.00011082
 Iteration  5 RMS(Cart)=  0.00001304 RMS(Int)=  0.00012321
 Iteration  6 RMS(Cart)=  0.00001073 RMS(Int)=  0.00013418
 Iteration  7 RMS(Cart)=  0.00000883 RMS(Int)=  0.00014360
 Iteration  8 RMS(Cart)=  0.00000727 RMS(Int)=  0.00015158
 Iteration  9 RMS(Cart)=  0.00000598 RMS(Int)=  0.00015827
 Iteration 10 RMS(Cart)=  0.00000492 RMS(Int)=  0.00016385
 Iteration 11 RMS(Cart)=  0.00000405 RMS(Int)=  0.00016849
 Iteration 12 RMS(Cart)=  0.00000333 RMS(Int)=  0.00017233
 Iteration 13 RMS(Cart)=  0.00000274 RMS(Int)=  0.00017551
 Iteration 14 RMS(Cart)=  0.00000226 RMS(Int)=  0.00017814
 Iteration 15 RMS(Cart)=  0.00000186 RMS(Int)=  0.00018031
 Iteration 16 RMS(Cart)=  0.00000153 RMS(Int)=  0.00018210
 Iteration 17 RMS(Cart)=  0.00000126 RMS(Int)=  0.00018358
 Iteration 18 RMS(Cart)=  0.00000103 RMS(Int)=  0.00018480
 Iteration 19 RMS(Cart)=  0.00000085 RMS(Int)=  0.00018580
 ClnCor:  largest displacement from symmetrization is 2.75D-15 for atom     3.
 Variable       Old X    -DE/DX   Delta X   Delta X   Delta X     New X
                                 (Linear)    (Quad)   (Total)
    R1        2.20173  -0.02895   0.00494  -0.02195  -0.01697   2.18476
    R2        1.91490  -0.02836  -0.04546  -0.00460  -0.05011   1.86479
    A1        2.76604   0.00722  -0.00585   0.00154  -0.00386   2.76218
    A2        0.17454  -0.00351   0.00000   0.00000   0.00000   0.17454
         Item               Value     Threshold  Converged?
 Maximum Force            0.029632     0.000015     NO 
 RMS     Force            0.023367     0.000010     NO 
 Maximum Displacement     0.038355     0.000060     NO 
 RMS     Displacement     0.024780     0.000040     NO 
 Predicted change in Energy=-7.946111D-04
 GradGradGradGradGradGradGradGradGradGradGradGradGradGradGradGradGradGrad

                          Input orientation:                          
 ---------------------------------------------------------------------
 Center     Atomic      Atomic             Coordinates (Angstroms)
 Number     Number       Type             X           Y           Z
 ---------------------------------------------------------------------
      1          7           0        0.010253    0.000000   -0.166565
      2          6           0        0.025570    0.000000    0.989461
      3          1           0        0.363568    0.000000   -1.087953
 ---------------------------------------------------------------------
                    Distance matrix (angstroms):
                    1          2          3
     1  N    0.000000
     2  C    1.156128   0.000000
     3  H    0.986806   2.104731   0.000000
 Stoichiometry    CHN
 Framework group  CS[SG(CHN)]
 Deg. of freedom     3
 Full point group                 CS      NOp   2
 Largest Abelian subgroup         CS      NOp   2
 Largest concise Abelian subgroup C1      NOp   1
                         Standard orientation:                         
 ---------------------------------------------------------------------
 Center     Atomic      Atomic             Coordinates (Angstroms)
 Number     Number       Type             X           Y           Z
 ---------------------------------------------------------------------
      1          7           0        0.026107    0.430010    0.000000
      2          6           0        0.026107   -0.726118    0.000000
      3          1           0       -0.339385    1.346636    0.000000
 ---------------------------------------------------------------------
 Rotational constants (GHZ):   4831.7243544     47.2187900     46.7618029
 Standard basis: 6-311G(d) (5D, 7F)
 There are    31 symmetry adapted cartesian basis functions of A'  symmetry.
 There are    10 symmetry adapted cartesian basis functions of A"  symmetry.
 There are    29 symmetry adapted basis functions of A'  symmetry.
 There are    10 symmetry adapted basis functions of A"  symmetry.
    39 basis functions,    69 primitive gaussians,    41 cartesian basis functions
     7 alpha electrons        7 beta electrons
       nuclear repulsion energy        24.4863391890 Hartrees.
 NAtoms=    3 NActive=    3 NUniq=    3 SFac= 1.00D+00 NAtFMM=   60 NAOKFM=F Big=F
 Integral buffers will be    131072 words long.
 Raffenetti 1 integral format.
 Two-electron integral symmetry is turned on.
 One-electron integrals computed using PRISM.
 NBasis=    39 RedAO= T EigKep=  8.54D-03  NBF=    29    10
 NBsUse=    39 1.00D-06 EigRej= -1.00D+00 NBFU=    29    10
 Initial guess from the checkpoint file:  "HNC6311Gs.chk"
 B after Tr=     0.000000    0.000000    0.000000
         Rot=    1.000000    0.000000    0.000000   -0.000149 Ang=  -0.02 deg.
 Initial guess orbital symmetries:
       Occupied  (A') (A') (A') (A') (A') (A") (A')
       Virtual   (A') (A') (A') (A') (A') (A') (A') (A') (A') (A')
                 (A') (A') (A') (A') (A') (A') (A') (A') (A') (A')
                 (A') (A') (A') (A") (A") (A") (A") (A") (A") (A")
                 (A") (A")
 ExpMin= 1.03D-01 ExpMax= 6.29D+03 ExpMxC= 9.49D+02 IAcc=1 IRadAn=         1 AccDes= 0.00D+00
 Harris functional with IExCor=  205 and IRadAn=       1 diagonalized for initial guess.
 HarFok:  IExCor=  205 AccDes= 0.00D+00 IRadAn=         1 IDoV= 1 UseB2=F ITyADJ=14
 ICtDFT=  3500011 ScaDFX=  1.000000  1.000000  1.000000  1.000000
 FoFCou: FMM=F IPFlag=           0 FMFlag=      100000 FMFlg1=           0
         NFxFlg=           0 DoJE=T BraDBF=F KetDBF=T FulRan=T
         wScrn=  0.000000 ICntrl=     500 IOpCl=  0 I1Cent=   200000004 NGrid=           0
         NMat0=    1 NMatS0=      1 NMatT0=    0 NMatD0=    1 NMtDS0=    0 NMtDT0=    0
 Petite list used in FoFCou.
 Keep R1 ints in memory in symmetry-blocked form, NReq=1161168.
 Requested convergence on RMS density matrix=1.00D-08 within 128 cycles.
 Requested convergence on MAX density matrix=1.00D-06.
 Requested convergence on             energy=1.00D-06.
 No special actions if energy rises.
 SCF Done:  E(RHF) =  -92.8760807695     A.U. after   10 cycles
            NFock= 10  Conv=0.96D-08     -V/T= 2.0000
 Calling FoFJK, ICntrl=      2127 FMM=F ISym2X=1 I1Cent= 0 IOpClX= 0 NMat=1 NMatS=1 NMatT=0.
 ***** Axes restored to original set *****
 -------------------------------------------------------------------
 Center     Atomic                   Forces (Hartrees/Bohr)
 Number     Number              X              Y              Z
 -------------------------------------------------------------------
      1        7           0.010946463    0.000000000    0.007358436
      2        6          -0.004839828    0.000000000   -0.007785358
      3        1          -0.006106635    0.000000000    0.000426922
 -------------------------------------------------------------------
 Cartesian Forces:  Max     0.010946463 RMS     0.005729850

 GradGradGradGradGradGradGradGradGradGradGradGradGradGradGradGradGradGrad
 Berny optimization.
 Using GEDIIS/GDIIS optimizer.
 FormGI is forming the generalized inverse of G from B-inverse, IUseBI=4.
 Internal  Forces:  Max     0.008632850 RMS     0.006292887
 Search for a local minimum.
 Step number   5 out of a maximum of   20 on scan point     1 out of    31
 All quantities printed in internal units (Hartrees-Bohrs-Radians)
 Mixed Optimization -- RFO/linear search
 Update second derivatives using D2CorX and points    2    3    4    5
 DE= -1.07D-03 DEPred=-7.95D-04 R= 1.35D+00
 TightC=F SS=  1.41D+00  RLast= 5.30D-02 DXNew= 9.1925D-01 1.5914D-01
 Trust test= 1.35D+00 RLast= 5.30D-02 DXMaxT set to 5.47D-01
 The second derivative matrix:
                          R1        R2        A1        A2
           R1           1.50738
           R2          -0.09475   0.54969
           A1           0.02679   0.00679   0.15882
           A2          -0.06083   0.01611  -0.00051   0.16273
 ITU=  1  1  0  1  0
 Use linear search instead of GDIIS.
     Eigenvalues ---    0.53836   1.496551000.000001000.00000
 RFO step:  Lambda=-3.05683623D-05 EMin= 5.38361488D-01
 Quartic linear search produced a step of  0.12377.
 Iteration  1 RMS(Cart)=  0.00321525 RMS(Int)=  0.00000266
 Iteration  2 RMS(Cart)=  0.00000016 RMS(Int)=  0.00000265
 Iteration  1 RMS(Cart)=  0.00000007 RMS(Int)=  0.00000021
 ClnCor:  largest displacement from symmetrization is 2.22D-16 for atom     2.
 Variable       Old X    -DE/DX   Delta X   Delta X   Delta X     New X
                                 (Linear)    (Quad)   (Total)
    R1        2.18476  -0.00801  -0.00210  -0.00390  -0.00600   2.17876
    R2        1.86479  -0.00239  -0.00620   0.00311  -0.00309   1.86170
    A1        2.76218   0.00863  -0.00048   0.00072   0.00024   2.76241
    A2        0.17454  -0.00374   0.00000   0.00000   0.00000   0.17453
         Item               Value     Threshold  Converged?
 Maximum Force            0.008770     0.000015     NO 
 RMS     Force            0.005152     0.000010     NO 
 Maximum Displacement     0.004919     0.000060     NO 
 RMS     Displacement     0.003215     0.000040     NO 
 Predicted change in Energy=-2.957240D-05
 GradGradGradGradGradGradGradGradGradGradGradGradGradGradGradGradGradGrad

                          Input orientation:                          
 ---------------------------------------------------------------------
 Center     Atomic      Atomic             Coordinates (Angstroms)
 Number     Number       Type             X           Y           Z
 ---------------------------------------------------------------------
      1          7           0        0.010538    0.000000   -0.165992
      2          6           0        0.025770    0.000000    0.986858
      3          1           0        0.363083    0.000000   -1.085924
 ---------------------------------------------------------------------
                    Distance matrix (angstroms):
                    1          2          3
     1  N    0.000000
     2  C    1.152950   0.000000
     3  H    0.985172   2.100048   0.000000
 Stoichiometry    CHN
 Framework group  CS[SG(CHN)]
 Deg. of freedom     3
 Full point group                 CS      NOp   2
 Largest Abelian subgroup         CS      NOp   2
 Largest concise Abelian subgroup C1      NOp   1
                         Standard orientation:                         
 ---------------------------------------------------------------------
 Center     Atomic      Atomic             Coordinates (Angstroms)
 Number     Number       Type             X           Y           Z
 ---------------------------------------------------------------------
      1          7           0        0.026048    0.428751    0.000000
      2          6           0        0.026048   -0.724200    0.000000
      3          1           0       -0.338621    1.343944    0.000000
 ---------------------------------------------------------------------
 Rotational constants (GHZ):   4854.9721387     47.4655620     47.0059989
 Standard basis: 6-311G(d) (5D, 7F)
 There are    31 symmetry adapted cartesian basis functions of A'  symmetry.
 There are    10 symmetry adapted cartesian basis functions of A"  symmetry.
 There are    29 symmetry adapted basis functions of A'  symmetry.
 There are    10 symmetry adapted basis functions of A"  symmetry.
    39 basis functions,    69 primitive gaussians,    41 cartesian basis functions
     7 alpha electrons        7 beta electrons
       nuclear repulsion energy        24.5489137064 Hartrees.
 NAtoms=    3 NActive=    3 NUniq=    3 SFac= 1.00D+00 NAtFMM=   60 NAOKFM=F Big=F
 Integral buffers will be    131072 words long.
 Raffenetti 1 integral format.
 Two-electron integral symmetry is turned on.
 One-electron integrals computed using PRISM.
 NBasis=    39 RedAO= T EigKep=  8.46D-03  NBF=    29    10
 NBsUse=    39 1.00D-06 EigRej= -1.00D+00 NBFU=    29    10
 Initial guess from the checkpoint file:  "HNC6311Gs.chk"
 B after Tr=     0.000000    0.000000    0.000000
         Rot=    1.000000    0.000000    0.000000    0.000010 Ang=   0.00 deg.
 Initial guess orbital symmetries:
       Occupied  (A') (A') (A') (A') (A') (A") (A')
       Virtual   (A') (A') (A') (A') (A') (A') (A') (A') (A') (A')
                 (A') (A') (A') (A') (A') (A') (A') (A') (A') (A')
                 (A') (A') (A') (A") (A") (A") (A") (A") (A") (A")
                 (A") (A")
 Keep R1 ints in memory in symmetry-blocked form, NReq=1161168.
 Requested convergence on RMS density matrix=1.00D-08 within 128 cycles.
 Requested convergence on MAX density matrix=1.00D-06.
 Requested convergence on             energy=1.00D-06.
 No special actions if energy rises.
 SCF Done:  E(RHF) =  -92.8761124182     A.U. after    9 cycles
            NFock=  9  Conv=0.99D-08     -V/T= 1.9998
 Calling FoFJK, ICntrl=      2127 FMM=F ISym2X=1 I1Cent= 0 IOpClX= 0 NMat=1 NMatS=1 NMatT=0.
 ***** Axes restored to original set *****
 -------------------------------------------------------------------
 Center     Atomic                   Forces (Hartrees/Bohr)
 Number     Number              X              Y              Z
 -------------------------------------------------------------------
      1        7           0.010563753    0.000000000    0.001174045
      2        6          -0.004892450    0.000000000    0.000027157
      3        1          -0.005671303    0.000000000   -0.001201202
 -------------------------------------------------------------------
 Cartesian Forces:  Max     0.010563753 RMS     0.004352708

 GradGradGradGradGradGradGradGradGradGradGradGradGradGradGradGradGradGrad
 Berny optimization.
 Using GEDIIS/GDIIS optimizer.
 FormGI is forming the generalized inverse of G from B-inverse, IUseBI=4.
 Internal  Forces:  Max     0.008792206 RMS     0.004857016
 Search for a local minimum.
 Step number   6 out of a maximum of   20 on scan point     1 out of    31
 All quantities printed in internal units (Hartrees-Bohrs-Radians)
 Mixed Optimization -- En-DIIS/RFO-DIIS
 Update second derivatives using D2CorX and points    2    3    4    5    6
 DE= -3.16D-05 DEPred=-2.96D-05 R= 1.07D+00
 TightC=F SS=  1.41D+00  RLast= 6.76D-03 DXNew= 9.1925D-01 2.0271D-02
 Trust test= 1.07D+00 RLast= 6.76D-03 DXMaxT set to 5.47D-01
 The second derivative matrix:
                          R1        R2        A1        A2
           R1           1.30269
           R2          -0.00590   0.56024
           A1           0.03015   0.00515   0.15840
           A2          -0.06478   0.01900  -0.00055   0.16385
 ITU=  1  1  1  0  1
 Use linear search instead of GDIIS.
     Eigenvalues ---    0.55644   1.286811000.000001000.00000
 RFO step:  Lambda=-4.14543844D-07 EMin= 5.56443285D-01
 Quartic linear search produced a step of  0.10585.
 Iteration  1 RMS(Cart)=  0.00029250 RMS(Int)=  0.00000002
 Iteration  2 RMS(Cart)=  0.00000001 RMS(Int)=  0.00000002
 Iteration  1 RMS(Cart)=  0.00000015 RMS(Int)=  0.00000041
 ClnCor:  largest displacement from symmetrization is 1.40D-15 for atom     3.
 Variable       Old X    -DE/DX   Delta X   Delta X   Delta X     New X
                                 (Linear)    (Quad)   (Total)
    R1        2.17876  -0.00022  -0.00064  -0.00018  -0.00081   2.17795
    R2        1.86170  -0.00070  -0.00033   0.00081   0.00049   1.86219
    A1        2.76241   0.00879   0.00003   0.00011   0.00013   2.76255
    A2        0.17453  -0.00406   0.00000   0.00000   0.00000   0.17453
         Item               Value     Threshold  Converged?
 Maximum Force            0.001041     0.000015     NO 
 RMS     Force            0.000625     0.000010     NO 
 Maximum Displacement     0.000447     0.000060     NO 
 RMS     Displacement     0.000292     0.000040     NO 
 Predicted change in Energy=-5.030760D-07
 GradGradGradGradGradGradGradGradGradGradGradGradGradGradGradGradGradGrad

                          Input orientation:                          
 ---------------------------------------------------------------------
 Center     Atomic      Atomic             Coordinates (Angstroms)
 Number     Number       Type             X           Y           Z
 ---------------------------------------------------------------------
      1          7           0        0.010551    0.000000   -0.165755
      2          6           0        0.025755    0.000000    0.986664
      3          1           0        0.363085    0.000000   -1.085967
 ---------------------------------------------------------------------
                    Distance matrix (angstroms):
                    1          2          3
     1  N    0.000000
     2  C    1.152519   0.000000
     3  H    0.985428   2.099902   0.000000
 Stoichiometry    CHN
 Framework group  CS[SG(CHN)]
 Deg. of freedom     3
 Full point group                 CS      NOp   2
 Largest Abelian subgroup         CS      NOp   2
 Largest concise Abelian subgroup C1      NOp   1
                         Standard orientation:                         
 ---------------------------------------------------------------------
 Center     Atomic      Atomic             Coordinates (Angstroms)
 Number     Number       Type             X           Y           Z
 ---------------------------------------------------------------------
      1          7           0        0.026046    0.428545    0.000000
      2          6           0        0.026046   -0.723974    0.000000
      3          1           0       -0.338597    1.344026    0.000000
 ---------------------------------------------------------------------
 Rotational constants (GHZ):   4856.4896546     47.4930276     47.0330775
 Standard basis: 6-311G(d) (5D, 7F)
 There are    31 symmetry adapted cartesian basis functions of A'  symmetry.
 There are    10 symmetry adapted cartesian basis functions of A"  symmetry.
 There are    29 symmetry adapted basis functions of A'  symmetry.
 There are    10 symmetry adapted basis functions of A"  symmetry.
    39 basis functions,    69 primitive gaussians,    41 cartesian basis functions
     7 alpha electrons        7 beta electrons
       nuclear repulsion energy        24.5552451809 Hartrees.
 NAtoms=    3 NActive=    3 NUniq=    3 SFac= 1.00D+00 NAtFMM=   60 NAOKFM=F Big=F
 Integral buffers will be    131072 words long.
 Raffenetti 1 integral format.
 Two-electron integral symmetry is turned on.
 One-electron integrals computed using PRISM.
 NBasis=    39 RedAO= T EigKep=  8.45D-03  NBF=    29    10
 NBsUse=    39 1.00D-06 EigRej= -1.00D+00 NBFU=    29    10
 Initial guess from the checkpoint file:  "HNC6311Gs.chk"
 B after Tr=     0.000000    0.000000    0.000000
         Rot=    1.000000    0.000000    0.000000    0.000005 Ang=   0.00 deg.
 Initial guess orbital symmetries:
       Occupied  (A') (A') (A') (A') (A') (A") (A')
       Virtual   (A') (A') (A') (A') (A') (A') (A') (A') (A') (A')
                 (A') (A') (A') (A') (A') (A') (A') (A') (A') (A')
                 (A') (A') (A') (A") (A") (A") (A") (A") (A") (A")
                 (A") (A")
 Keep R1 ints in memory in symmetry-blocked form, NReq=1161168.
 Requested convergence on RMS density matrix=1.00D-08 within 128 cycles.
 Requested convergence on MAX density matrix=1.00D-06.
 Requested convergence on             energy=1.00D-06.
 No special actions if energy rises.
 SCF Done:  E(RHF) =  -92.8761129129     A.U. after    8 cycles
            NFock=  8  Conv=0.35D-08     -V/T= 1.9998
 Calling FoFJK, ICntrl=      2127 FMM=F ISym2X=1 I1Cent= 0 IOpClX= 0 NMat=1 NMatS=1 NMatT=0.
 ***** Axes restored to original set *****
 -------------------------------------------------------------------
 Center     Atomic                   Forces (Hartrees/Bohr)
 Number     Number              X              Y              Z
 -------------------------------------------------------------------
      1        7           0.010680766    0.000000000   -0.000169657
      2        6          -0.004893047    0.000000000    0.001104979
      3        1          -0.005787719    0.000000000   -0.000935322
 -------------------------------------------------------------------
 Cartesian Forces:  Max     0.010680766 RMS     0.004392455

 GradGradGradGradGradGradGradGradGradGradGradGradGradGradGradGradGradGrad
 Berny optimization.
 Using GEDIIS/GDIIS optimizer.
 FormGI is forming the generalized inverse of G from B-inverse, IUseBI=4.
 Internal  Forces:  Max     0.008791063 RMS     0.004899751
 Search for a local minimum.
 Step number   7 out of a maximum of   20 on scan point     1 out of    31
 All quantities printed in internal units (Hartrees-Bohrs-Radians)
 Mixed Optimization -- En-DIIS/RFO-DIIS
 Swapping is turned off.
 Update second derivatives using D2CorX and points    3    4    5    6    7
 DE= -4.95D-07 DEPred=-5.03D-07 R= 9.83D-01
 Trust test= 9.83D-01 RLast= 9.57D-04 DXMaxT set to 5.47D-01
 The second derivative matrix:
                          R1        R2        A1        A2
           R1           1.31313
           R2          -0.01986   0.55487
           A1           0.02760   0.00543   0.15838
           A2          -0.06437   0.02119  -0.00032   0.16390
 ITU=  0  1  1  1  0
     Eigenvalues ---    0.55098   1.297581000.000001000.00000
 En-DIIS/RFO-DIIS IScMMF=        0 using points:     7    6
 RFO step:  Lambda=-3.03722082D-06.
 DidBck=F Rises=F RFO-DIIS coefs:    0.97732    0.02268
 Iteration  1 RMS(Cart)=  0.00000686 RMS(Int)=  0.00000187
 Iteration  2 RMS(Cart)=  0.00000000 RMS(Int)=  0.00000187
 Iteration  1 RMS(Cart)=  0.00000066 RMS(Int)=  0.00000188
 ClnCor:  largest displacement from symmetrization is 1.40D-15 for atom     3.
 Variable       Old X    -DE/DX   Delta X   Delta X   Delta X     New X
                                 (Linear)    (Quad)   (Total)
    R1        2.17795   0.00086   0.00002   0.00000   0.00002   2.17796
    R2        1.86219  -0.00099  -0.00001   0.00000  -0.00001   1.86218
    A1        2.76255   0.00879   0.00000   0.00001   0.00000   2.76255
    A2        0.17453  -0.00413   0.00000   0.00000   0.00000   0.17453
         Item               Value     Threshold  Converged?
 Maximum Force            0.000022     0.000015     NO 
 RMS     Force            0.000013     0.000010     NO 
 Maximum Displacement     0.000009     0.000060     YES
 RMS     Displacement     0.000007     0.000040     YES
 Predicted change in Energy=-6.190537D-08
 GradGradGradGradGradGradGradGradGradGradGradGradGradGradGradGradGradGrad

                          Input orientation:                          
 ---------------------------------------------------------------------
 Center     Atomic      Atomic             Coordinates (Angstroms)
 Number     Number       Type             X           Y           Z
 ---------------------------------------------------------------------
      1          7           0        0.010553    0.000000   -0.165760
      2          6           0        0.025755    0.000000    0.986668
      3          1           0        0.363083    0.000000   -1.085966
 ---------------------------------------------------------------------
                    Distance matrix (angstroms):
                    1          2          3
     1  N    0.000000
     2  C    1.152529   0.000000
     3  H    0.985422   2.099906   0.000000
 Stoichiometry    CHN
 Framework group  CS[SG(CHN)]
 Deg. of freedom     3
 Full point group                 CS      NOp   2
 Largest Abelian subgroup         CS      NOp   2
 Largest concise Abelian subgroup C1      NOp   1
                         Standard orientation:                         
 ---------------------------------------------------------------------
 Center     Atomic      Atomic             Coordinates (Angstroms)
 Number     Number       Type             X           Y           Z
 ---------------------------------------------------------------------
      1          7           0        0.026046    0.428550    0.000000
      2          6           0        0.026046   -0.723979    0.000000
      3          1           0       -0.338592    1.344026    0.000000
 ---------------------------------------------------------------------
 Rotational constants (GHZ):   4856.6033413     47.4924222     47.0324944
 Standard basis: 6-311G(d) (5D, 7F)
 There are    31 symmetry adapted cartesian basis functions of A'  symmetry.
 There are    10 symmetry adapted cartesian basis functions of A"  symmetry.
 There are    29 symmetry adapted basis functions of A'  symmetry.
 There are    10 symmetry adapted basis functions of A"  symmetry.
    39 basis functions,    69 primitive gaussians,    41 cartesian basis functions
     7 alpha electrons        7 beta electrons
       nuclear repulsion energy        24.5551115286 Hartrees.
 NAtoms=    3 NActive=    3 NUniq=    3 SFac= 1.00D+00 NAtFMM=   60 NAOKFM=F Big=F
 Integral buffers will be    131072 words long.
 Raffenetti 1 integral format.
 Two-electron integral symmetry is turned on.
 One-electron integrals computed using PRISM.
 NBasis=    39 RedAO= T EigKep=  8.45D-03  NBF=    29    10
 NBsUse=    39 1.00D-06 EigRej= -1.00D+00 NBFU=    29    10
 Initial guess from the checkpoint file:  "HNC6311Gs.chk"
 B after Tr=     0.000000    0.000000    0.000000
         Rot=    1.000000    0.000000    0.000000    0.000000 Ang=   0.00 deg.
 Initial guess orbital symmetries:
       Occupied  (A') (A') (A') (A') (A') (A") (A')
       Virtual   (A') (A') (A') (A') (A') (A') (A') (A') (A') (A')
                 (A') (A') (A') (A') (A') (A') (A') (A') (A') (A')
                 (A') (A') (A') (A") (A") (A") (A") (A") (A") (A")
                 (A") (A")
 Keep R1 ints in memory in symmetry-blocked form, NReq=1161168.
 Requested convergence on RMS density matrix=1.00D-08 within 128 cycles.
 Requested convergence on MAX density matrix=1.00D-06.
 Requested convergence on             energy=1.00D-06.
 No special actions if energy rises.
 SCF Done:  E(RHF) =  -92.8761129748     A.U. after    4 cycles
            NFock=  4  Conv=0.74D-08     -V/T= 1.9998
 Calling FoFJK, ICntrl=      2127 FMM=F ISym2X=1 I1Cent= 0 IOpClX= 0 NMat=1 NMatS=1 NMatT=0.
 ***** Axes restored to original set *****
 -------------------------------------------------------------------
 Center     Atomic                   Forces (Hartrees/Bohr)
 Number     Number              X              Y              Z
 -------------------------------------------------------------------
      1        7           0.010677814    0.000000000   -0.000139550
      2        6          -0.004892958    0.000000000    0.001081341
      3        1          -0.005784856    0.000000000   -0.000941791
 -------------------------------------------------------------------
 Cartesian Forces:  Max     0.010677814 RMS     0.004390609

 GradGradGradGradGradGradGradGradGradGradGradGradGradGradGradGradGradGrad
 Berny optimization.
 Using GEDIIS/GDIIS optimizer.
 FormGI is forming the generalized inverse of G from B-inverse, IUseBI=4.
 Internal  Forces:  Max     0.008790987 RMS     0.004898040
 Search for a local minimum.
 Step number   8 out of a maximum of   20 on scan point     1 out of    31
 All quantities printed in internal units (Hartrees-Bohrs-Radians)
 Mixed Optimization -- En-DIIS/RFO-DIIS
 Swapping is turned off.
 Update second derivatives using D2CorX and points    4    5    6    8
 DE= -6.19D-08 DEPred=-6.19D-08 R= 1.00D+00
 Trust test= 1.00D+00 RLast= 2.17D-05 DXMaxT set to 5.47D-01
 The second derivative matrix:
                          R1        R2        A1        A2
           R1           1.31253
           R2          -0.02138   0.55212
           A1           0.02938   0.00675   0.15854
           A2          -0.06607   0.01913  -0.00047   0.16392
 ITU=  0  0  1  1  1
     Eigenvalues ---    0.54850   1.296671000.000001000.00000
 En-DIIS/RFO-DIIS IScMMF=        0 using points:     8    7    6
 RFO step:  Lambda=-3.03462272D-06.
 DidBck=F Rises=F RFO-DIIS coefs:    2.82675   -1.78655   -0.04020
 Iteration  1 RMS(Cart)=  0.00000753 RMS(Int)=  0.00000187
 Iteration  2 RMS(Cart)=  0.00000000 RMS(Int)=  0.00000187
 Iteration  1 RMS(Cart)=  0.00000187 RMS(Int)=  0.00000529
 Iteration  2 RMS(Cart)=  0.00000154 RMS(Int)=  0.00000566
 Iteration  3 RMS(Cart)=  0.00000127 RMS(Int)=  0.00000644
 Iteration  4 RMS(Cart)=  0.00000104 RMS(Int)=  0.00000731
 Iteration  5 RMS(Cart)=  0.00000086 RMS(Int)=  0.00000812
 ClnCor:  largest displacement from symmetrization is 1.83D-15 for atom     3.
 Variable       Old X    -DE/DX   Delta X   Delta X   Delta X     New X
                                 (Linear)    (Quad)   (Total)
    R1        2.17796   0.00084   0.00000   0.00000   0.00000   2.17796
    R2        1.86218  -0.00098   0.00000   0.00000   0.00000   1.86218
    A1        2.76255   0.00879   0.00001   0.00001   0.00000   2.76255
    A2        0.17453  -0.00413   0.00000   0.00000   0.00000   0.17453
         Item               Value     Threshold  Converged?
 Maximum Force            0.000001     0.000015     YES
 RMS     Force            0.000001     0.000010     YES
 Maximum Displacement     0.000001     0.000060     YES
 RMS     Displacement     0.000001     0.000040     YES
 Predicted change in Energy=-2.298648D-08
 Optimization completed.
    -- Stationary point found.
                           ----------------------------
                           !   Optimized Parameters   !
                           ! (Angstroms and Degrees)  !
 --------------------------                            --------------------------
 ! Name  Definition              Value          Derivative Info.                !
 --------------------------------------------------------------------------------
 ! R1    R(1,2)                  1.1525         -DE/DX =    0.0008              !
 ! R2    R(1,3)                  0.9854         -DE/DX =   -0.001               !
 ! A1    A(2,1,3)              158.2824         -DE/DX =    0.0088              !
 ! A2    A(1,2,3)                9.9998         -DE/DX =   -0.0041              !
 --------------------------------------------------------------------------------
 Iteration  1 RMS(Cart)=  0.01485980 RMS(Int)=  0.04193780
 Iteration  2 RMS(Cart)=  0.00024164 RMS(Int)=  0.04193674
 Iteration  3 RMS(Cart)=  0.00000207 RMS(Int)=  0.04193674
 Iteration  4 RMS(Cart)=  0.00000002 RMS(Int)=  0.04193674
 Iteration  1 RMS(Cart)=  0.01230765 RMS(Int)=  0.03444342
 Iteration  2 RMS(Cart)=  0.01017781 RMS(Int)=  0.03687260
 Iteration  3 RMS(Cart)=  0.00839938 RMS(Int)=  0.04199072
 Iteration  4 RMS(Cart)=  0.00691898 RMS(Int)=  0.04765409
 Iteration  5 RMS(Cart)=  0.00569030 RMS(Int)=  0.05297168
 Iteration  6 RMS(Cart)=  0.00467327 RMS(Int)=  0.05765590
 Iteration  7 RMS(Cart)=  0.00383345 RMS(Int)=  0.06166017
 Iteration  8 RMS(Cart)=  0.00314138 RMS(Int)=  0.06502858
 Iteration  9 RMS(Cart)=  0.00257208 RMS(Int)=  0.06783540
 Iteration 10 RMS(Cart)=  0.00210446 RMS(Int)=  0.07016027
 Iteration 11 RMS(Cart)=  0.00172085 RMS(Int)=  0.07207824
 Iteration 12 RMS(Cart)=  0.00140649 RMS(Int)=  0.07365611
 Iteration 13 RMS(Cart)=  0.00114909 RMS(Int)=  0.07495158
 Iteration 14 RMS(Cart)=  0.00093848 RMS(Int)=  0.07601361
 Iteration 15 RMS(Cart)=  0.00076627 RMS(Int)=  0.07688329
 Iteration 16 RMS(Cart)=  0.00062552 RMS(Int)=  0.07759485
 Iteration 17 RMS(Cart)=  0.00051053 RMS(Int)=  0.07817665
 Iteration 18 RMS(Cart)=  0.00041662 RMS(Int)=  0.07865210
 Iteration 19 RMS(Cart)=  0.00033994 RMS(Int)=  0.07904049
 Iteration 20 RMS(Cart)=  0.00027735 RMS(Int)=  0.07935764
 Iteration 21 RMS(Cart)=  0.00022626 RMS(Int)=  0.07961657
 Iteration 22 RMS(Cart)=  0.00018457 RMS(Int)=  0.07982792
 Iteration 23 RMS(Cart)=  0.00015055 RMS(Int)=  0.08000039
 Iteration 24 RMS(Cart)=  0.00012280 RMS(Int)=  0.08014113
 Iteration 25 RMS(Cart)=  0.00010016 RMS(Int)=  0.08025595
 Iteration 26 RMS(Cart)=  0.00008169 RMS(Int)=  0.08034963
 Iteration 27 RMS(Cart)=  0.00006663 RMS(Int)=  0.08042604
 Iteration 28 RMS(Cart)=  0.00005434 RMS(Int)=  0.08048838
 Iteration 29 RMS(Cart)=  0.00004432 RMS(Int)=  0.08053922
 Iteration 30 RMS(Cart)=  0.00003614 RMS(Int)=  0.08058069
 Iteration 31 RMS(Cart)=  0.00002948 RMS(Int)=  0.08061452
 Iteration 32 RMS(Cart)=  0.00002404 RMS(Int)=  0.08064210
 Iteration 33 RMS(Cart)=  0.00001960 RMS(Int)=  0.08066460
 Iteration 34 RMS(Cart)=  0.00001599 RMS(Int)=  0.08068295
 Iteration 35 RMS(Cart)=  0.00001304 RMS(Int)=  0.08069792
 Iteration 36 RMS(Cart)=  0.00001063 RMS(Int)=  0.08071012
 Iteration 37 RMS(Cart)=  0.00000867 RMS(Int)=  0.08072008
 Iteration 38 RMS(Cart)=  0.00000707 RMS(Int)=  0.08072819
 Iteration 39 RMS(Cart)=  0.00000577 RMS(Int)=  0.08073481
 Iteration 40 RMS(Cart)=  0.00000470 RMS(Int)=  0.08074021
 Iteration 41 RMS(Cart)=  0.00000384 RMS(Int)=  0.08074461
 Iteration 42 RMS(Cart)=  0.00000313 RMS(Int)=  0.08074821
 Iteration 43 RMS(Cart)=  0.00000255 RMS(Int)=  0.08075113
 Iteration 44 RMS(Cart)=  0.00000208 RMS(Int)=  0.08075352
 Iteration 45 RMS(Cart)=  0.00000170 RMS(Int)=  0.08075547
 Iteration 46 RMS(Cart)=  0.00000138 RMS(Int)=  0.08075706
 Iteration 47 RMS(Cart)=  0.00000113 RMS(Int)=  0.08075835
 Iteration 48 RMS(Cart)=  0.00000092 RMS(Int)=  0.08075941
 GradGradGradGradGradGradGradGradGradGradGradGradGradGradGradGradGradGrad

                          Input orientation:                          
 ---------------------------------------------------------------------
 Center     Atomic      Atomic             Coordinates (Angstroms)
 Number     Number       Type             X           Y           Z
 ---------------------------------------------------------------------
      1          7           0       -0.056787    0.000000   -0.169425
      2          6           0        0.059755    0.000000    0.965164
      3          1           0        0.396423    0.000000   -1.060796
 ---------------------------------------------------------------------
                    Distance matrix (angstroms):
                    1          2          3
     1  N    0.000000
     2  C    1.140559   0.000000
     3  H    0.999971   2.053743   0.000000
 Stoichiometry    CHN
 Framework group  CS[SG(CHN)]
 Deg. of freedom     3
 Full point group                 CS      NOp   2
 Largest Abelian subgroup         CS      NOp   2
 Largest concise Abelian subgroup C1      NOp   1
                         Standard orientation:                         
[...]
 No special actions if energy rises.
 SCF Done:  E(RHF) =  -92.8954365213     A.U. after    9 cycles
            NFock=  9  Conv=0.39D-08     -V/T= 1.9998
 Calling FoFJK, ICntrl=      2127 FMM=F ISym2X=1 I1Cent= 0 IOpClX= 0 NMat=1 NMatS=1 NMatT=0.
 ***** Axes restored to original set *****
 -------------------------------------------------------------------
 Center     Atomic                   Forces (Hartrees/Bohr)
 Number     Number              X              Y              Z
 -------------------------------------------------------------------
      1        7           0.001465433    0.000000000    0.007393731
      2        6          -0.004376497    0.000000000   -0.014873796
      3        1           0.002911064    0.000000000    0.007480065
 -------------------------------------------------------------------
 Cartesian Forces:  Max     0.014873796 RMS     0.006338804

 GradGradGradGradGradGradGradGradGradGradGradGradGradGradGradGradGradGrad
 Berny optimization.
 Using GEDIIS/GDIIS optimizer.
 FormGI is forming the generalized inverse of G from B-inverse, IUseBI=4.
 Internal  Forces:  Max     0.012989215 RMS     0.007229148
 Search for a local minimum.
 Step number   2 out of a maximum of   20 on scan point    31 out of    31
 All quantities printed in internal units (Hartrees-Bohrs-Radians)
 Mixed Optimization -- En-DIIS/RFO-DIIS
 Update second derivatives using D2CorX and points    1    2
 DE= -7.68D-05 DEPred=-7.93D-05 R= 9.68D-01
 TightC=F SS=  1.41D+00  RLast= 1.98D-02 DXNew= 2.1204D-01 5.9372D-02
 Trust test= 9.68D-01 RLast= 1.98D-02 DXMaxT set to 1.26D-01
 The second derivative matrix:
                          R1        R2        A1        A2
           R1           1.98796
           R2          -0.46121   0.45537
           A1          -0.20121   0.05811   0.34576
           A2           0.02614  -0.05331  -0.08399   0.18533
 ITU=  1  0
 Use linear search instead of GDIIS.
     Eigenvalues ---    0.32733   2.132851000.000001000.00000
 RFO step:  Lambda= 0.00000000D+00 EMin= 3.27331186D-01
 Quartic linear search produced a step of -0.02205.
 Iteration  1 RMS(Cart)=  0.00016726 RMS(Int)=  0.00000001
 Iteration  2 RMS(Cart)=  0.00000000 RMS(Int)=  0.00000001
 Iteration  1 RMS(Cart)=  0.00000006 RMS(Int)=  0.00000004
 ClnCor:  largest displacement from symmetrization is 5.59D-17 for atom     2.
 Variable       Old X    -DE/DX   Delta X   Delta X   Delta X     New X
                                 (Linear)    (Quad)   (Total)
    R1        2.13031  -0.00006  -0.00002   0.00005   0.00003   2.13034
    R2        4.11233  -0.00003  -0.00044   0.00004  -0.00039   4.11194
    A1        0.09298  -0.00635  -0.00001   0.00000  -0.00001   0.09297
    A2        2.94961   0.01299   0.00000   0.00000   0.00000   2.94961
         Item               Value     Threshold  Converged?
 Maximum Force            0.000237     0.000015     NO 
 RMS     Force            0.000175     0.000010     NO 
 Maximum Displacement     0.000256     0.000060     NO 
 RMS     Displacement     0.000167     0.000040     NO 
 Predicted change in Energy=-4.160265D-08
 GradGradGradGradGradGradGradGradGradGradGradGradGradGradGradGradGradGrad

                          Input orientation:                          
 ---------------------------------------------------------------------
 Center     Atomic      Atomic             Coordinates (Angstroms)
 Number     Number       Type             X           Y           Z
 ---------------------------------------------------------------------
      1          7           0       -0.928868    0.000000    0.198360
      2          6           0        0.175437    0.000000   -0.028298
      3          1           0        1.152822    0.000000   -0.435120
 ---------------------------------------------------------------------
                    Distance matrix (angstroms):
                    1          2          3
     1  N    0.000000
     2  C    1.127326   0.000000
     3  H    2.175943   1.058671   0.000000
 Stoichiometry    CHN
 Framework group  CS[SG(CHN)]
 Deg. of freedom     3
 Full point group                 CS      NOp   2
 Largest Abelian subgroup         CS      NOp   2
 Largest concise Abelian subgroup C1      NOp   1
                         Standard orientation:                         
 ---------------------------------------------------------------------
 Center     Atomic      Atomic             Coordinates (Angstroms)
 Number     Number       Type             X           Y           Z
 ---------------------------------------------------------------------
      1          7           0        0.014429    0.637893    0.000000
      2          6           0        0.014429   -0.489433    0.000000
      3          1           0       -0.187575   -1.528653    0.000000
 ---------------------------------------------------------------------
 Rotational constants (GHZ):  16867.4448877     46.5709728     46.4427445
 Standard basis: 6-311G(d) (5D, 7F)
 There are    31 symmetry adapted cartesian basis functions of A'  symmetry.
 There are    10 symmetry adapted cartesian basis functions of A"  symmetry.
 There are    29 symmetry adapted basis functions of A'  symmetry.
 There are    10 symmetry adapted basis functions of A"  symmetry.
    39 basis functions,    69 primitive gaussians,    41 cartesian basis functions
     7 alpha electrons        7 beta electrons
       nuclear repulsion energy        24.4166500658 Hartrees.
 NAtoms=    3 NActive=    3 NUniq=    3 SFac= 1.00D+00 NAtFMM=   60 NAOKFM=F Big=F
 Integral buffers will be    131072 words long.
 Raffenetti 1 integral format.
 Two-electron integral symmetry is turned on.
 One-electron integrals computed using PRISM.
 NBasis=    39 RedAO= T EigKep=  6.87D-03  NBF=    29    10
 NBsUse=    39 1.00D-06 EigRej= -1.00D+00 NBFU=    29    10
 Initial guess from the checkpoint file:  "HNC6311Gs.chk"
 B after Tr=     0.000000    0.000000    0.000000
         Rot=    1.000000    0.000000    0.000000   -0.000002 Ang=   0.00 deg.
 Initial guess orbital symmetries:
       Occupied  (A') (A') (A') (A') (A') (A") (A')
       Virtual   (A') (A') (A') (A') (A') (A') (A') (A') (A') (A')
                 (A') (A') (A') (A') (A') (A') (A') (A') (A') (A')
                 (A') (A') (A') (A") (A") (A") (A") (A") (A") (A")
                 (A") (A")
 Keep R1 ints in memory in symmetry-blocked form, NReq=1161153.
 Requested convergence on RMS density matrix=1.00D-08 within 128 cycles.
 Requested convergence on MAX density matrix=1.00D-06.
 Requested convergence on             energy=1.00D-06.
 No special actions if energy rises.
 SCF Done:  E(RHF) =  -92.8954365639     A.U. after    6 cycles
            NFock=  6  Conv=0.50D-08     -V/T= 1.9998
 Calling FoFJK, ICntrl=      2127 FMM=F ISym2X=1 I1Cent= 0 IOpClX= 0 NMat=1 NMatS=1 NMatT=0.
 ***** Axes restored to original set *****
 -------------------------------------------------------------------
 Center     Atomic                   Forces (Hartrees/Bohr)
 Number     Number              X              Y              Z
 -------------------------------------------------------------------
      1        7           0.001511221    0.000000000    0.007384690
      2        6          -0.004595999    0.000000000   -0.014794834
      3        1           0.003084778    0.000000000    0.007410144
 -------------------------------------------------------------------
 Cartesian Forces:  Max     0.014794834 RMS     0.006335560

 GradGradGradGradGradGradGradGradGradGradGradGradGradGradGradGradGradGrad
 Berny optimization.
 Using GEDIIS/GDIIS optimizer.
 FormGI is forming the generalized inverse of G from B-inverse, IUseBI=4.
 Internal  Forces:  Max     0.012966617 RMS     0.007214831
 Search for a local minimum.
 Step number   3 out of a maximum of   20 on scan point    31 out of    31
 All quantities printed in internal units (Hartrees-Bohrs-Radians)
 Mixed Optimization -- En-DIIS/RFO-DIIS
 Swapping is turned off.
 Update second derivatives using D2CorX and points    1    2    3
 DE= -4.26D-08 DEPred=-4.16D-08 R= 1.03D+00
 Trust test= 1.03D+00 RLast= 3.96D-04 DXMaxT set to 1.26D-01
 The second derivative matrix:
                          R1        R2        A1        A2
           R1           1.98516
           R2          -0.45292   0.44383
           A1          -0.18823   0.04691   0.34254
           A2           0.02667  -0.05316  -0.08285   0.18545
 ITU=  0  1  0
     Eigenvalues ---    0.32050   2.123621000.000001000.00000
 En-DIIS/RFO-DIIS IScMMF=        0 using points:     3    2
 RFO step:  Lambda=-6.58435399D-06.
 DidBck=F Rises=F RFO-DIIS coefs:    1.00399   -0.00399
 Iteration  1 RMS(Cart)=  0.00000174 RMS(Int)=  0.00000284
 Iteration  2 RMS(Cart)=  0.00000000 RMS(Int)=  0.00000284
 Iteration  1 RMS(Cart)=  0.00000084 RMS(Int)=  0.00000054
 ClnCor:  largest displacement from symmetrization is 4.74D-15 for atom     3.
 Variable       Old X    -DE/DX   Delta X   Delta X   Delta X     New X
                                 (Linear)    (Quad)   (Total)
    R1        2.13034  -0.00029   0.00000   0.00000   0.00000   2.13034
    R2        4.11194   0.00015   0.00000   0.00001   0.00000   4.11194
    A1        0.09297  -0.00632   0.00000  -0.00001   0.00000   0.09297
    A2        2.94961   0.01297   0.00000   0.00000   0.00000   2.94961
         Item               Value     Threshold  Converged?
 Maximum Force            0.000004     0.000015     YES
 RMS     Force            0.000002     0.000010     YES
 Maximum Displacement     0.000002     0.000060     YES
 RMS     Displacement     0.000001     0.000040     YES
 Predicted change in Energy=-8.166504D-09
 Optimization completed.
    -- Stationary point found.
                           ----------------------------
                           !   Optimized Parameters   !
                           ! (Angstroms and Degrees)  !
 --------------------------                            --------------------------
 ! Name  Definition              Value          Derivative Info.                !
 --------------------------------------------------------------------------------
 ! R1    R(1,2)                  1.1273         -DE/DX =   -0.0003              !
 ! R2    R(1,3)                  2.1759         -DE/DX =    0.0002              !
 ! A1    A(2,1,3)                5.3267         -DE/DX =   -0.0063              !
 ! A2    A(1,2,3)              169.0            -DE/DX =    0.013               !
 --------------------------------------------------------------------------------
 GradGradGradGradGradGradGradGradGradGradGradGradGradGradGradGradGradGrad

 Summary of Optimized Potential Surface Scan
                           1         2         3         4         5
     Eigenvalues --   -92.87611 -92.87341 -92.86965 -92.86487 -92.85922
           R1           1.15253   1.15661   1.16179   1.16727   1.17203
           R2           0.98542   0.98998   0.99686   1.00665   1.02011
           A1         158.28241 146.74442 135.19243 123.66979 112.27521
           A2           9.99981  15.29977  20.59978  25.89978  31.19980
                           6         7         8         9        10
     Eigenvalues --   -92.85299 -92.84662 -92.84044 -92.83444 -92.82858
           R1           1.17508   1.17587   1.17451   1.17181   1.16898
           R2           1.03801   1.06157   1.09354   1.13772   1.19478
           A1         101.17254  90.61381  81.01429  72.91126  66.50707
           A2          36.49981  41.79981  47.09986  52.39987  57.69989
                          11        12        13        14        15
     Eigenvalues --   -92.82325 -92.81914 -92.81676 -92.81634 -92.81781
           R1           1.16691   1.16565   1.16474   1.16371   1.16225
           R2           1.26075   1.33099   1.40218   1.47241   1.54058
           A1          61.44356  57.23988  53.56812  50.24393  47.16093
           A2          62.99988  68.29991  73.59995  78.90003  84.20004
                          16        17        18        19        20
     Eigenvalues --   -92.82094 -92.82541 -92.83088 -92.83703 -92.84355
           R1           1.16024   1.15775   1.15488   1.15181   1.14866
           R2           1.60616   1.66885   1.72846   1.78485   1.83789
           A1          44.25172  41.46653  38.76755  36.12632  33.52216
           A2          89.50005  94.80005 100.10004 105.40003 110.70003
                          21        22        23        24        25
     Eigenvalues --   -92.85020 -92.85677 -92.86310 -92.86908 -92.87461
           R1           1.14557   1.14261   1.13985   1.13733   1.13508
           R2           1.88747   1.93351   1.97590   2.01458   2.04947
           A1          30.94068  28.37226  25.81087  23.25262  20.69515
           A2         116.00002 121.30001 126.60001 131.90000 137.20001
                          26        27        28        29        30
     Eigenvalues --   -92.87962 -92.88406 -92.88789 -92.89108 -92.89360
           R1           1.13310   1.13141   1.12999   1.12885   1.12795
           R2           2.08053   2.10768   2.13087   2.15002   2.16505
           A1          18.13738  15.57842  13.01792  10.45572   7.89193
           A2         142.50000 147.80000 153.10001 158.40001 163.70000
                          31
     Eigenvalues --   -92.89544
           R1           1.12733
           R2           2.17594
           A1           5.32673
           A2         169.00000
                          Input orientation:                          
 ---------------------------------------------------------------------
 Center     Atomic      Atomic             Coordinates (Angstroms)
 Number     Number       Type             X           Y           Z
 ---------------------------------------------------------------------
      1          7           0       -0.928868    0.000000    0.198360
      2          6           0        0.175437    0.000000   -0.028298
      3          1           0        1.152822    0.000000   -0.435120
 ---------------------------------------------------------------------
                    Distance matrix (angstroms):
                    1          2          3
     1  N    0.000000
     2  C    1.127326   0.000000
     3  H    2.175943   1.058671   0.000000
 Stoichiometry    CHN
 Framework group  CS[SG(CHN)]
 Deg. of freedom     3
 Full point group                 CS      NOp   2
 Largest Abelian subgroup         CS      NOp   2
 Largest concise Abelian subgroup C1      NOp   1
                         Standard orientation:                         
 ---------------------------------------------------------------------
 Center     Atomic      Atomic             Coordinates (Angstroms)
 Number     Number       Type             X           Y           Z
 ---------------------------------------------------------------------
      1          7           0        0.014429    0.637893    0.000000
      2          6           0        0.014429   -0.489433    0.000000
      3          1           0       -0.187575   -1.528653    0.000000
 ---------------------------------------------------------------------
 Rotational constants (GHZ):  16867.4448877     46.5709728     46.4427445

 **********************************************************************

            Population analysis using the SCF density.

 **********************************************************************

 Orbital symmetries:
       Occupied  (A') (A') (A') (A') (A') (A") (A')
       Virtual   (A') (A') (A") (A') (A') (A") (A') (A') (A') (A")
                 (A') (A') (A') (A") (A') (A") (A') (A') (A") (A')
                 (A') (A") (A') (A") (A') (A') (A') (A") (A') (A')
                 (A') (A')
 The electronic state is 1-A'.
 Alpha  occ. eigenvalues --  -15.58818 -11.28067  -1.25069  -0.80915  -0.57954
 Alpha  occ. eigenvalues --   -0.50339  -0.50295
 Alpha virt. eigenvalues --    0.14941   0.18758   0.19115   0.30480   0.57391
 Alpha virt. eigenvalues --    0.57397   0.59361   0.74542   0.81463   0.90603
 Alpha virt. eigenvalues --    0.90950   1.21615   1.35079   1.49522   1.49652
 Alpha virt. eigenvalues --    1.63819   1.67807   2.17986   2.40003   2.40008
 Alpha virt. eigenvalues --    2.79930   2.85360   3.02818   3.13096   3.14481
 Alpha virt. eigenvalues --    3.34456   3.50524   4.27070   4.28756   4.95111
 Alpha virt. eigenvalues --   25.13707  37.18677
          Condensed to atoms (all electrons):
               1          2          3
     1  N    6.344186   0.970959  -0.019610
     2  C    0.970959   4.720160   0.353383
     3  H   -0.019610   0.353383   0.326191
 Mulliken charges:
               1
     1  N   -0.295535
     2  C   -0.044502
     3  H    0.340036
 Sum of Mulliken charges =   0.00000
 Mulliken charges with hydrogens summed into heavy atoms:
               1
     1  N   -0.295535
     2  C    0.295535
 Electronic spatial extent (au):  <R**2>=             48.3809
 Charge=              0.0000 electrons
 Dipole moment (field-independent basis, Debye):
    X=             -0.2624    Y=             -3.1809    Z=              0.0000  Tot=              3.1917
 Quadrupole moment (field-independent basis, Debye-Ang):
   XX=            -11.6579   YY=             -9.7100   ZZ=            -11.7152
   XY=              0.3489   XZ=              0.0000   YZ=              0.0000
 Traceless Quadrupole moment (field-independent basis, Debye-Ang):
   XX=             -0.6302   YY=              1.3177   ZZ=             -0.6875
   XY=              0.3489   XZ=              0.0000   YZ=              0.0000
 Octapole moment (field-independent basis, Debye-Ang**2):
  XXX=             -0.3084  YYY=             -7.3874  ZZZ=              0.0000  XYY=             -0.8216
  XXY=             -0.3549  XXZ=              0.0000  XZZ=             -0.0981  YZZ=             -0.2698
  YYZ=              0.0000  XYZ=              0.0000
 Hexadecapole moment (field-independent basis, Debye-Ang**3):
 XXXX=            -11.4592 YYYY=            -33.9863 ZZZZ=            -11.3340 XXXY=             -0.4544
 XXXZ=              0.0000 YYYX=              0.6973 YYYZ=              0.0000 ZZZX=              0.0000
 ZZZY=              0.0000 XXYY=             -8.4548 XXZZ=             -3.7994 YYZZ=             -8.6070
 XXYZ=              0.0000 YYXZ=              0.0000 ZZXY=             -0.1594
 N-N= 2.441665006576D+01 E-N=-2.665057123987D+02  KE= 9.291068582291D+01
 Symmetry A'   KE= 9.018445761271D+01
 Symmetry A"   KE= 2.726228210194D+00
 B after Tr=     0.430195    0.000000    1.092944
         Rot=    0.863078    0.000000    0.505070    0.000000 Ang=  60.67 deg.
 Final structure in terms of initial Z-matrix:
 N
 C,1,B1
 H,2,B2,1,A1
      Variables:
 B1=1.12732601
 B2=1.05867115
 A1=168.99999805
 1\1\GINC-TC-NODE166\Scan\RHF\6-311G(d)\C1H1N1\MAXB2\26-Sep-2016\0\\# o
 pt=(modredundant,tight) RHF/6-311g* gfp\\HNC-HCN\\0,1\N,-0.821087408,0
 .,-0.0977636467\C,0.2832179756,0.,-0.3244209714\H,1.2606024722,0.,-0.7
 312429789\\Version=ES64L-G09RevD.01\State=1-A'\HF=-92.876113,-92.87341
 36,-92.8696476,-92.8648731,-92.8592213,-92.85299,-92.8466195,-92.84043
 84,-92.8344411,-92.8285803,-92.8232528,-92.8191361,-92.8167596,-92.816
 3365,-92.8178062,-92.820936,-92.8254085,-92.8308821,-92.8370274,-92.84
 3549,-92.8501962,-92.8567662,-92.8631002,-92.8690772,-92.8746056,-92.8
 796165,-92.8840576,-92.8878887,-92.8910784,-92.8936013,-92.8954366\RMS
 D=7.417e-09,5.403e-09,9.437e-09,4.475e-09,8.501e-09,3.026e-09,9.873e-0
 9,3.045e-09,2.769e-09,2.672e-09,3.666e-09,4.715e-09,9.751e-09,7.402e-0
 9,5.553e-09,3.980e-09,4.112e-09,3.780e-09,3.395e-09,9.679e-09,6.818e-0
 9,2.517e-09,8.861e-09,5.753e-09,6.015e-09,3.494e-09,7.317e-09,3.465e-0
 9,6.447e-09,4.385e-09,5.009e-09\PG=CS [SG(C1H1N1)]\\@


 HE THAT FOLLOWS NATURE IS NEVER LOST.

                             -- BACON
 Job cpu time:       0 days  0 hours  6 minutes 19.5 seconds.
 File lengths (MBytes):  RWF=     77 Int=      0 D2E=      0 Chk=      3 Scr=      1
 Normal termination of Gaussian 09 at Mon Sep 26 18:31:56 2016.
