 Entering Gaussian System, Link 0=g09
 Initial command:
 /cluster/software/gaussian/gaussian-09-D.01/g09/l1.exe "/local/scratch/maxb2/Gau-3250.inp" -scrdir="/local/scratch/maxb2/"
 Entering Link 1 = /cluster/software/gaussian/gaussian-09-D.01/g09/l1.exe PID=      3251.
  
 Copyright (c) 1988,1990,1992,1993,1995,1998,2003,2009,2013,
            Gaussian, Inc.  All Rights Reserved.
  
 This is part of the Gaussian(R) 09 program.  It is based on
 the Gaussian(R) 03 system (copyright 2003, Gaussian, Inc.),
 the Gaussian(R) 98 system (copyright 1998, Gaussian, Inc.),
 the Gaussian(R) 94 system (copyright 1995, Gaussian, Inc.),
 the Gaussian 92(TM) system (copyright 1992, Gaussian, Inc.),
 the Gaussian 90(TM) system (copyright 1990, Gaussian, Inc.),
 the Gaussian 88(TM) system (copyright 1988, Gaussian, Inc.),
 the Gaussian 86(TM) system (copyright 1986, Carnegie Mellon
 University), and the Gaussian 82(TM) system (copyright 1983,
 Carnegie Mellon University). Gaussian is a federally registered
 trademark of Gaussian, Inc.
  
 This software contains proprietary and confidential information,
 including trade secrets, belonging to Gaussian, Inc.
  
 This software is provided under written license and may be
 used, copied, transmitted, or stored only in accord with that
 written license.
  
 The following legend is applicable only to US Government
 contracts under FAR:
  
                    RESTRICTED RIGHTS LEGEND
  
 Use, reproduction and disclosure by the US Government is
 subject to restrictions as set forth in subparagraphs (a)
 and (c) of the Commercial Computer Software - Restricted
 Rights clause in FAR 52.227-19.
  
 Gaussian, Inc.
 340 Quinnipiac St., Bldg. 40, Wallingford CT 06492
  
  
 ---------------------------------------------------------------
 Warning -- This program may not be used in any manner that
 competes with the business of Gaussian, Inc. or will provide
 assistance to any competitor of Gaussian, Inc.  The licensee
 of this program is prohibited from giving any competitor of
 Gaussian, Inc. access to this program.  By using this program,
 the user acknowledges that Gaussian, Inc. is engaged in the
 business of creating and licensing software in the field of
 computational chemistry and represents and warrants to the
 licensee that it is not a competitor of Gaussian, Inc. and that
 it will not use this program in any manner prohibited above.
 ---------------------------------------------------------------
  

 Cite this work as:
 Gaussian 09, Revision D.01,
 M. J. Frisch, G. W. Trucks, H. B. Schlegel, G. E. Scuseria, 
 M. A. Robb, J. R. Cheeseman, G. Scalmani, V. Barone, B. Mennucci, 
 G. A. Petersson, H. Nakatsuji, M. Caricato, X. Li, H. P. Hratchian, 
 A. F. Izmaylov, J. Bloino, G. Zheng, J. L. Sonnenberg, M. Hada, 
 M. Ehara, K. Toyota, R. Fukuda, J. Hasegawa, M. Ishida, T. Nakajima, 
 Y. Honda, O. Kitao, H. Nakai, T. Vreven, J. A. Montgomery, Jr., 
 J. E. Peralta, F. Ogliaro, M. Bearpark, J. J. Heyd, E. Brothers, 
 K. N. Kudin, V. N. Staroverov, T. Keith, R. Kobayashi, J. Normand, 
 K. Raghavachari, A. Rendell, J. C. Burant, S. S. Iyengar, J. Tomasi, 
 M. Cossi, N. Rega, J. M. Millam, M. Klene, J. E. Knox, J. B. Cross, 
 V. Bakken, C. Adamo, J. Jaramillo, R. Gomperts, R. E. Stratmann, 
 O. Yazyev, A. J. Austin, R. Cammi, C. Pomelli, J. W. Ochterski, 
 R. L. Martin, K. Morokuma, V. G. Zakrzewski, G. A. Voth, 
 P. Salvador, J. J. Dannenberg, S. Dapprich, A. D. Daniels, 
 O. Farkas, J. B. Foresman, J. V. Ortiz, J. Cioslowski, 
 and D. J. Fox, Gaussian, Inc., Wallingford CT, 2013.
 
 ******************************************
 Gaussian 09:  ES64L-G09RevD.01 24-Apr-2013
                27-Sep-2016 
 ******************************************
 %rwf=/home/maxb2/scratch/HNCts10/
 %int=/home/maxb2/scratch/HNCts10/
 %d2e=/home/maxb2/scratch/HNCts10/
 %nosave
 %mem=6GB
 %nprocshared=3
 Will use up to    3 processors via shared memory.
 %chk=HNCts6311Gs
 ---------------------------------------
 # opt=(calcfc,ts,tight) RHF/6-311g* gfp
 ---------------------------------------
 1/5=1,7=10,10=4,18=20,38=1/1,3;
 2/9=110,12=2,17=6,18=5,40=1/2;
 3/5=4,6=6,7=1,11=1,16=1,24=100,25=1,30=1,71=2,116=1,140=1/1,2,3;
 4//1;
 5/5=2,38=5/2;
 8/6=4,10=90,11=11/1;
 11/6=1,8=1,9=11,15=111,16=1/1,2,10;
 10/6=1,13=1/2;
 6/7=2,8=2,9=2,10=2,28=1/1;
 7/10=1,18=20,25=1/1,2,3,16;
 1/5=1,7=10,10=4,18=20/3(2);
 2/9=110/2;
 99//99;
 2/9=110/2;
 3/5=4,6=6,7=1,11=1,16=1,25=1,30=1,71=1,116=1/1,2,3;
 4/5=5,16=3,69=1/1;
 5/5=2,38=5/2;
 7//1,2,3,16;
 1/5=1,7=10,18=20/3(-5);
 2/9=110/2;
 6/7=2,8=2,9=2,10=2,19=2,28=1/1;
 99/9=1/99;
 -------
 HNC-HCN
 -------
 Symbolic Z-matrix:
 Charge =  0 Multiplicity = 1
 N
 C                    1    B1
 H                    2    B2       1    A1
       Variables:
  B1                    1.                       
  B2                    1.1                      
  A1                   80.                       
 

 GradGradGradGradGradGradGradGradGradGradGradGradGradGradGradGradGradGrad
 Berny optimization.
 Initialization pass.
                           ----------------------------
                           !    Initial Parameters    !
                           ! (Angstroms and Degrees)  !
 --------------------------                            --------------------------
 ! Name  Definition              Value          Derivative Info.                !
 --------------------------------------------------------------------------------
 ! R1    R(1,2)                  1.0            calculate D2E/DX2 analytically  !
 ! R2    R(2,3)                  1.1            calculate D2E/DX2 analytically  !
 ! A1    A(1,2,3)               80.0            calculate D2E/DX2 analytically  !
 --------------------------------------------------------------------------------
 Trust Radius=3.00D-01 FncErr=1.00D-07 GrdErr=1.00D-07
 Number of steps in this run=     20 maximum allowed number of steps=    100.
 Search for a saddle point of order  1.
 GradGradGradGradGradGradGradGradGradGradGradGradGradGradGradGradGradGrad

                          Input orientation:                          
 ---------------------------------------------------------------------
 Center     Atomic      Atomic             Coordinates (Angstroms)
 Number     Number       Type             X           Y           Z
 ---------------------------------------------------------------------
      1          7           0        0.000000    0.000000    0.000000
      2          6           0        0.000000    0.000000    1.000000
      3          1           0        1.083289    0.000000    0.808987
 ---------------------------------------------------------------------
                    Distance matrix (angstroms):
                    1          2          3
     1  N    0.000000
     2  C    1.000000   0.000000
     3  H    1.352026   1.100000   0.000000
 Stoichiometry    CHN
 Framework group  CS[SG(CHN)]
 Deg. of freedom     3
 Full point group                 CS      NOp   2
 Largest Abelian subgroup         CS      NOp   2
 Largest concise Abelian subgroup C1      NOp   1
                         Standard orientation:                         
 ---------------------------------------------------------------------
 Center     Atomic      Atomic             Coordinates (Angstroms)
 Number     Number       Type             X           Y           Z
 ---------------------------------------------------------------------
      1          7           0        0.077378   -0.486356    0.000000
      2          6           0        0.077378    0.513644    0.000000
      3          1           0       -1.005911    0.322631    0.000000
 ---------------------------------------------------------------------
 Rotational constants (GHZ):    453.5965319     76.5289306     65.4812115
 Standard basis: 6-311G(d) (5D, 7F)
 AO basis set (Overlap normalization):
 Atom N1       Shell     1 S   6     bf    1 -     1          0.146222760101         -0.919080048643          0.000000000000
      0.6293480000D+04  0.1969788147D-02
      0.9490440000D+03  0.1496128592D-01
      0.2187760000D+03  0.7350053084D-01
      0.6369160000D+02  0.2489367658D+00
      0.1882820000D+02  0.6024594331D+00
      0.2720230000D+01  0.2562017589D+00
 Atom N1       Shell     2 SP   3    bf    2 -     5          0.146222760101         -0.919080048643          0.000000000000
      0.3063310000D+02  0.1119060795D+00  0.3831191864D-01
      0.7026140000D+01  0.9216666549D+00  0.2374031155D+00
      0.2112050000D+01 -0.2569191826D-02  0.8175923978D+00
 Atom N1       Shell     3 SP   1    bf    6 -     9          0.146222760101         -0.919080048643          0.000000000000
      0.6840090000D+00  0.1000000000D+01  0.1000000000D+01
 Atom N1       Shell     4 SP   1    bf   10 -    13          0.146222760101         -0.919080048643          0.000000000000
      0.2008780000D+00  0.1000000000D+01  0.1000000000D+01
 Atom N1       Shell     5 D   1     bf   14 -    18          0.146222760101         -0.919080048643          0.000000000000
      0.9130000000D+00  0.1000000000D+01
 Atom C2       Shell     6 S   6     bf   19 -    19          0.146222760101          0.970646084242          0.000000000000
      0.4563240000D+04  0.1966650249D-02
      0.6820240000D+03  0.1523060193D-01
      0.1549730000D+03  0.7612690966D-01
      0.4445530000D+02  0.2608010331D+00
      0.1302900000D+02  0.6164620782D+00
      0.1827730000D+01  0.2210060280D+00
 Atom C2       Shell     7 SP   3    bf   20 -    23          0.146222760101          0.970646084242          0.000000000000
      0.2096420000D+02  0.1146600807D+00  0.4024869267D-01
      0.4803310000D+01  0.9199996477D+00  0.2375939567D+00
      0.1459330000D+01 -0.3030682134D-02  0.8158538515D+00
 Atom C2       Shell     8 SP   1    bf   24 -    27          0.146222760101          0.970646084242          0.000000000000
      0.4834560000D+00  0.1000000000D+01  0.1000000000D+01
 Atom C2       Shell     9 SP   1    bf   28 -    31          0.146222760101          0.970646084242          0.000000000000
      0.1455850000D+00  0.1000000000D+01  0.1000000000D+01
 Atom C2       Shell    10 D   1     bf   32 -    36          0.146222760101          0.970646084242          0.000000000000
      0.6260000000D+00  0.1000000000D+01
 Atom H3       Shell    11 S   3     bf   37 -    37         -1.900895881308          0.609683835051          0.000000000000
      0.3386500000D+02  0.2549381454D-01
      0.5094790000D+01  0.1903731086D+00
      0.1158790000D+01  0.8521614860D+00
 Atom H3       Shell    12 S   1     bf   38 -    38         -1.900895881308          0.609683835051          0.000000000000
      0.3258400000D+00  0.1000000000D+01
 Atom H3       Shell    13 S   1     bf   39 -    39         -1.900895881308          0.609683835051          0.000000000000
      0.1027410000D+00  0.1000000000D+01
 There are    31 symmetry adapted cartesian basis functions of A'  symmetry.
 There are    10 symmetry adapted cartesian basis functions of A"  symmetry.
 There are    29 symmetry adapted basis functions of A'  symmetry.
 There are    10 symmetry adapted basis functions of A"  symmetry.
    39 basis functions,    69 primitive gaussians,    41 cartesian basis functions
     7 alpha electrons        7 beta electrons
       nuclear repulsion energy        27.8516342577 Hartrees.
 NAtoms=    3 NActive=    3 NUniq=    3 SFac= 1.00D+00 NAtFMM=   60 NAOKFM=F Big=F
 Integral buffers will be    131072 words long.
 Raffenetti 1 integral format.
 Two-electron integral symmetry is turned on.
 One-electron integrals computed using PRISM.
 NBasis=    39 RedAO= T EigKep=  4.65D-03  NBF=    29    10
 NBsUse=    39 1.00D-06 EigRej= -1.00D+00 NBFU=    29    10
 ExpMin= 1.03D-01 ExpMax= 6.29D+03 ExpMxC= 9.49D+02 IAcc=1 IRadAn=         1 AccDes= 0.00D+00
 Harris functional with IExCor=  205 and IRadAn=       1 diagonalized for initial guess.
 HarFok:  IExCor=  205 AccDes= 0.00D+00 IRadAn=         1 IDoV= 1 UseB2=F ITyADJ=14
 ICtDFT=  3500011 ScaDFX=  1.000000  1.000000  1.000000  1.000000
 FoFCou: FMM=F IPFlag=           0 FMFlag=      100000 FMFlg1=           0
         NFxFlg=           0 DoJE=T BraDBF=F KetDBF=T FulRan=T
         wScrn=  0.000000 ICntrl=     500 IOpCl=  0 I1Cent=   200000004 NGrid=           0
         NMat0=    1 NMatS0=      1 NMatT0=    0 NMatD0=    1 NMtDS0=    0 NMtDT0=    0
 Petite list used in FoFCou.
 Initial guess orbital symmetries:
       Occupied  (A') (A') (A') (A') (A") (A') (A')
       Virtual   (A') (A") (A') (A') (A') (A") (A') (A') (A') (A')
                 (A") (A') (A') (A") (A') (A") (A') (A') (A') (A")
                 (A') (A") (A') (A') (A") (A') (A') (A") (A') (A')
                 (A') (A')
 The electronic state of the initial guess is 1-A'.
 Keep R1 ints in memory in symmetry-blocked form, NReq=1161285.
 Requested convergence on RMS density matrix=1.00D-08 within 128 cycles.
 Requested convergence on MAX density matrix=1.00D-06.
 Requested convergence on             energy=1.00D-06.
 No special actions if energy rises.
 SCF Done:  E(RHF) =  -92.7304257756     A.U. after   13 cycles
            NFock= 13  Conv=0.14D-08     -V/T= 1.9863
 Range of M.O.s used for correlation:     1    39
 NBasis=    39 NAE=     7 NBE=     7 NFC=     0 NFV=     0
 NROrb=     39 NOA=     7 NOB=     7 NVA=    32 NVB=    32
 Symmetrizing basis deriv contribution to polar:
 IMax=3 JMax=2 DiffMx= 0.00D+00
 G2DrvN: will do     4 centers at a time, making    1 passes.
 Calling FoFCou, ICntrl=  3107 FMM=F I1Cent=   0 AccDes= 0.00D+00.
 End of G2Drv F.D. properties file   721 does not exist.
 End of G2Drv F.D. properties file   722 does not exist.
 End of G2Drv F.D. properties file   788 does not exist.
          IDoAtm=111
          Differentiating once with respect to nuclear coordinates.
 Keep R1 ints in memory in symmetry-blocked form, NReq=1142657.
          There are    12 degrees of freedom in the 1st order CPHF.  IDoFFX=6 NUNeed=     0.
      6 vectors produced by pass  0 Test12= 1.87D-15 8.33D-09 XBig12= 9.31D-02 1.49D-01.
 AX will form     6 AO Fock derivatives at one time.
      6 vectors produced by pass  1 Test12= 1.87D-15 8.33D-09 XBig12= 1.00D-02 4.03D-02.
      6 vectors produced by pass  2 Test12= 1.87D-15 8.33D-09 XBig12= 3.31D-04 8.41D-03.
      6 vectors produced by pass  3 Test12= 1.87D-15 8.33D-09 XBig12= 7.84D-06 1.05D-03.
      6 vectors produced by pass  4 Test12= 1.87D-15 8.33D-09 XBig12= 7.70D-08 1.12D-04.
      6 vectors produced by pass  5 Test12= 1.87D-15 8.33D-09 XBig12= 7.93D-10 9.48D-06.
      6 vectors produced by pass  6 Test12= 1.87D-15 8.33D-09 XBig12= 4.87D-12 8.41D-07.
      4 vectors produced by pass  7 Test12= 1.87D-15 8.33D-09 XBig12= 2.39D-14 6.45D-08.
 InvSVY:  IOpt=1 It=  1 EMax= 4.44D-16
 Solved reduced A of dimension    46 with     6 vectors.
 End of Minotr F.D. properties file   721 does not exist.
 End of Minotr F.D. properties file   722 does not exist.
 End of Minotr F.D. properties file   788 does not exist.

 **********************************************************************

            Population analysis using the SCF density.

 **********************************************************************

 Orbital symmetries:
       Occupied  (A') (A') (A') (A') (A') (A") (A')
       Virtual   (A') (A') (A") (A') (A') (A") (A') (A') (A') (A')
                 (A") (A') (A') (A") (A') (A') (A") (A') (A") (A')
                 (A') (A") (A') (A') (A") (A') (A') (A") (A') (A')
                 (A') (A')
 The electronic state is 1-A'.
 Alpha  occ. eigenvalues --  -15.59533 -11.23051  -1.39810  -0.73435  -0.63504
 Alpha  occ. eigenvalues --   -0.59263  -0.50218
 Alpha virt. eigenvalues --    0.12352   0.20775   0.24141   0.35439   0.46400
 Alpha virt. eigenvalues --    0.56806   0.57351   0.72280   0.76308   0.90089
 Alpha virt. eigenvalues --    0.90615   1.21876   1.42073   1.44859   1.67274
 Alpha virt. eigenvalues --    1.77931   1.78154   2.33957   2.40686   2.43538
 Alpha virt. eigenvalues --    2.59715   3.00100   3.03044   3.06481   3.11431
 Alpha virt. eigenvalues --    3.43498   3.60478   4.31136   4.34494   5.04528
 Alpha virt. eigenvalues --   25.21547  37.46986
          Condensed to atoms (all electrons):
               1          2          3
     1  N    6.614399   0.556983   0.038447
     2  C    0.556983   5.298511   0.280681
     3  H    0.038447   0.280681   0.334868
 Mulliken charges:
               1
     1  N   -0.209829
     2  C   -0.136176
     3  H    0.346004
 Sum of Mulliken charges =   0.00000
 Mulliken charges with hydrogens summed into heavy atoms:
               1
     1  N   -0.209829
     2  C    0.209829
 APT charges:
               1
     1  N   -0.052284
     2  C   -0.374620
     3  H    0.426904
 Sum of APT charges =   0.00000
 APT charges with hydrogens summed into heavy atoms:
               1
     1  N   -0.052284
     2  C    0.052284
 Electronic spatial extent (au):  <R**2>=             41.5859
 Charge=              0.0000 electrons
 Dipole moment (field-independent basis, Debye):
    X=             -1.5461    Y=              0.1690    Z=              0.0000  Tot=              1.5554
 Quadrupole moment (field-independent basis, Debye-Ang):
   XX=             -9.1407   YY=            -13.9362   ZZ=            -11.5670
   XY=             -0.4908   XZ=              0.0000   YZ=              0.0000
 Traceless Quadrupole moment (field-independent basis, Debye-Ang):
   XX=              2.4072   YY=             -2.3882   ZZ=             -0.0190
   XY=             -0.4908   XZ=              0.0000   YZ=              0.0000
 Octapole moment (field-independent basis, Debye-Ang**2):
  XXX=             -2.8679  YYY=             -2.5792  ZZZ=              0.0000  XYY=             -0.3332
  XXY=             -0.3933  XXZ=              0.0000  XZZ=             -0.3442  YZZ=             -0.6079
  YYZ=              0.0000  XYZ=              0.0000
 Hexadecapole moment (field-independent basis, Debye-Ang**3):
 XXXX=            -11.0997 YYYY=            -35.1191 ZZZZ=            -10.9518 XXXY=             -0.2765
 XXXZ=              0.0000 YYYX=              0.4366 YYYZ=              0.0000 ZZZX=              0.0000
 ZZZY=              0.0000 XXYY=             -7.4908 XXZZ=             -4.0823 YYZZ=             -7.2338
 XXYZ=              0.0000 YYXZ=              0.0000 ZZXY=              0.1439
 N-N= 2.785163425768D+01 E-N=-2.738052624142D+02  KE= 9.401739878162D+01
 Symmetry A'   KE= 9.099310542272D+01
 Symmetry A"   KE= 3.024293358907D+00
  Exact polarizability:   0.000   0.000   0.000   0.000   0.000   0.000
 Approx polarizability:  11.320   0.333  14.811   0.000   0.000   8.696
 Calling FoFJK, ICntrl=    100147 FMM=F ISym2X=1 I1Cent= 0 IOpClX= 0 NMat=1 NMatS=1 NMatT=0.
 ***** Axes restored to original set *****
 -------------------------------------------------------------------
 Center     Atomic                   Forces (Hartrees/Bohr)
 Number     Number              X              Y              Z
 -------------------------------------------------------------------
      1        7          -0.017917803    0.000000000   -0.657606328
      2        6          -0.008342324    0.000000000    0.645696504
      3        1           0.026260127    0.000000000    0.011909824
 -------------------------------------------------------------------
 Cartesian Forces:  Max     0.657606328 RMS     0.307425174
 FormGI is forming the generalized inverse of G from B-inverse, IUseBI=4.

 GradGradGradGradGradGradGradGradGradGradGradGradGradGradGradGradGradGrad
 Berny optimization.
 Internal  Forces:  Max     0.657606329 RMS     0.380420239
 Search for a saddle point.
 Step number   1 out of a maximum of   20
 All quantities printed in internal units (Hartrees-Bohrs-Radians)
 Swapping is turned off.
 Second derivative matrix not updated -- analytic derivatives used.
 The second derivative matrix:
                          R1        R2        A1
           R1           3.34547
           R2          -0.03096   0.37777
           A1           0.05800   0.10929  -0.18645
 ITU=  0
     Eigenvalues ---   -0.20798   0.39807   3.34670
 Eigenvectors required to have negative eigenvalues:
                          A1        R2        R1
   1                    0.98271  -0.18428  -0.01765
 RFO step:  Lambda0=1.426889255D-03 Lambda=-1.26779407D-01.
 Linear search not attempted -- option 19 set.
 Iteration  1 RMS(Cart)=  0.08198983 RMS(Int)=  0.00238116
 Iteration  2 RMS(Cart)=  0.00311810 RMS(Int)=  0.00000301
 Iteration  3 RMS(Cart)=  0.00000193 RMS(Int)=  0.00000000
 Iteration  4 RMS(Cart)=  0.00000000 RMS(Int)=  0.00000000
 ClnCor:  largest displacement from symmetrization is 2.22D-16 for atom     2.
 Variable       Old X    -DE/DX   Delta X   Delta X   Delta X     New X
                                 (Linear)    (Quad)   (Total)
    R1        1.88973   0.65761   0.00000   0.19123   0.19123   2.08096
    R2        2.07870   0.02379   0.00000   0.07708   0.07708   2.15577
    A1        1.39626   0.03386   0.00000  -0.06611  -0.06611   1.33015
         Item               Value     Threshold  Converged?
 Maximum Force            0.657606     0.000015     NO 
 RMS     Force            0.380420     0.000010     NO 
 Maximum Displacement     0.101205     0.000060     NO 
 RMS     Displacement     0.081794     0.000040     NO 
 Predicted change in Energy=-6.521130D-02
 GradGradGradGradGradGradGradGradGradGradGradGradGradGradGradGradGradGrad

                          Input orientation:                          
 ---------------------------------------------------------------------
 Center     Atomic      Atomic             Coordinates (Angstroms)
 Number     Number       Type             X           Y           Z
 ---------------------------------------------------------------------
      1          7           0        0.004142    0.000000   -0.047441
      2          6           0       -0.016878    0.000000    1.053556
      3          1           0        1.096025    0.000000    0.802872
 ---------------------------------------------------------------------
                    Distance matrix (angstroms):
                    1          2          3
     1  N    0.000000
     2  C    1.101197   0.000000
     3  H    1.383922   1.140787   0.000000
 Stoichiometry    CHN
 Framework group  CS[SG(CHN)]
 Deg. of freedom     3
 Full point group                 CS      NOp   2
 Largest Abelian subgroup         CS      NOp   2
 Largest concise Abelian subgroup C1      NOp   1
                         Standard orientation:                         
 ---------------------------------------------------------------------
 Center     Atomic      Atomic             Coordinates (Angstroms)
 Number     Number       Type             X           Y           Z
 ---------------------------------------------------------------------
      1          7           0        0.079137   -0.531178    0.000000
      2          6           0        0.079137    0.570019    0.000000
      3          1           0       -1.028778    0.298137    0.000000
 ---------------------------------------------------------------------
 Rotational constants (GHZ):    430.7316949     63.5380837     55.3703011
 Standard basis: 6-311G(d) (5D, 7F)
 There are    31 symmetry adapted cartesian basis functions of A'  symmetry.
 There are    10 symmetry adapted cartesian basis functions of A"  symmetry.
 There are    29 symmetry adapted basis functions of A'  symmetry.
 There are    10 symmetry adapted basis functions of A"  symmetry.
    39 basis functions,    69 primitive gaussians,    41 cartesian basis functions
     7 alpha electrons        7 beta electrons
       nuclear repulsion energy        25.6428324404 Hartrees.
 NAtoms=    3 NActive=    3 NUniq=    3 SFac= 1.00D+00 NAtFMM=   60 NAOKFM=F Big=F
 Integral buffers will be    131072 words long.
 Raffenetti 1 integral format.
 Two-electron integral symmetry is turned on.
 One-electron integrals computed using PRISM.
 NBasis=    39 RedAO= T EigKep=  6.74D-03  NBF=    29    10
 NBsUse=    39 1.00D-06 EigRej= -1.00D+00 NBFU=    29    10
 Initial guess from the checkpoint file:  "HNCts6311Gs.chk"
 B after Tr=     0.000000    0.000000    0.000000
         Rot=    0.999993    0.000000    0.000000   -0.003610 Ang=  -0.41 deg.
 Initial guess orbital symmetries:
       Occupied  (A') (A') (A') (A') (A') (A") (A')
       Virtual   (A') (A') (A') (A') (A') (A') (A') (A') (A') (A')
                 (A') (A') (A') (A') (A') (A') (A') (A') (A') (A')
                 (A') (A') (A') (A") (A") (A") (A") (A") (A") (A")
                 (A") (A")
 ExpMin= 1.03D-01 ExpMax= 6.29D+03 ExpMxC= 9.49D+02 IAcc=1 IRadAn=         1 AccDes= 0.00D+00
 Harris functional with IExCor=  205 and IRadAn=       1 diagonalized for initial guess.
 HarFok:  IExCor=  205 AccDes= 0.00D+00 IRadAn=         1 IDoV= 1 UseB2=F ITyADJ=14
 ICtDFT=  3500011 ScaDFX=  1.000000  1.000000  1.000000  1.000000
 FoFCou: FMM=F IPFlag=           0 FMFlag=      100000 FMFlg1=           0
         NFxFlg=           0 DoJE=T BraDBF=F KetDBF=T FulRan=T
         wScrn=  0.000000 ICntrl=     500 IOpCl=  0 I1Cent=   200000004 NGrid=           0
         NMat0=    1 NMatS0=      1 NMatT0=    0 NMatD0=    1 NMtDS0=    0 NMtDT0=    0
 Petite list used in FoFCou.
 Keep R1 ints in memory in symmetry-blocked form, NReq=1161255.
 Requested convergence on RMS density matrix=1.00D-08 within 128 cycles.
 Requested convergence on MAX density matrix=1.00D-06.
 Requested convergence on             energy=1.00D-06.
 No special actions if energy rises.
 SCF Done:  E(RHF) =  -92.8060570677     A.U. after   13 cycles
            NFock= 13  Conv=0.43D-08     -V/T= 1.9955
 Calling FoFJK, ICntrl=      2127 FMM=F ISym2X=1 I1Cent= 0 IOpClX= 0 NMat=1 NMatS=1 NMatT=0.
 ***** Axes restored to original set *****
 -------------------------------------------------------------------
 Center     Atomic                   Forces (Hartrees/Bohr)
 Number     Number              X              Y              Z
 -------------------------------------------------------------------
      1        7           0.001553816    0.000000000   -0.180123261
      2        6          -0.012151841    0.000000000    0.180645553
      3        1           0.010598024    0.000000000   -0.000522291
 -------------------------------------------------------------------
 Cartesian Forces:  Max     0.180645553 RMS     0.085205554

 GradGradGradGradGradGradGradGradGradGradGradGradGradGradGradGradGradGrad
 Berny optimization.
 FormGI is forming the generalized inverse of G from B-inverse, IUseBI=4.
 Internal  Forces:  Max     0.180120106 RMS     0.104191997
 Search for a saddle point.
 Step number   2 out of a maximum of   20
 All quantities printed in internal units (Hartrees-Bohrs-Radians)
 Swapping is turned off.
 Update second derivatives using D2CorX and points    1    2
 The second derivative matrix:
                          R1        R2        A1
           R1           2.53985
           R2          -0.05613   0.39321
           A1           0.05891   0.09428  -0.17251
 ITU=  0  0
     Eigenvalues ---   -0.18947   0.40752   2.54249
 Eigenvectors required to have negative eigenvalues:
                          A1        R2        R1
   1                    0.98648  -0.16199  -0.02462
 RFO step:  Lambda0=2.694692838D-05 Lambda=-1.31774446D-02.
 Linear search not attempted -- option 19 set.
 Iteration  1 RMS(Cart)=  0.04235081 RMS(Int)=  0.00034430
 Iteration  2 RMS(Cart)=  0.00042217 RMS(Int)=  0.00000007
 Iteration  3 RMS(Cart)=  0.00000006 RMS(Int)=  0.00000000
 ClnCor:  largest displacement from symmetrization is 3.06D-16 for atom     1.
 Variable       Old X    -DE/DX   Delta X   Delta X   Delta X     New X
                                 (Linear)    (Quad)   (Total)
    R1        2.08096   0.18012   0.00000   0.07080   0.07080   2.15176
    R2        2.15577   0.01045   0.00000   0.03104   0.03104   2.18682
    A1        1.33015   0.00392   0.00000   0.01895   0.01895   1.34911
         Item               Value     Threshold  Converged?
 Maximum Force            0.180120     0.000015     NO 
 RMS     Force            0.104192     0.000010     NO 
 Maximum Displacement     0.047967     0.000060     NO 
 RMS     Displacement     0.042600     0.000040     NO 
 Predicted change in Energy=-6.616047D-03
 GradGradGradGradGradGradGradGradGradGradGradGradGradGradGradGradGradGrad

                          Input orientation:                          
 ---------------------------------------------------------------------
 Center     Atomic      Atomic             Coordinates (Angstroms)
 Number     Number       Type             X           Y           Z
 ---------------------------------------------------------------------
      1          7           0       -0.012449    0.000000   -0.072824
      2          6           0       -0.017092    0.000000    1.065827
      3          1           0        1.112830    0.000000    0.815984
 ---------------------------------------------------------------------
                    Distance matrix (angstroms):
                    1          2          3
     1  N    0.000000
     2  C    1.138660   0.000000
     3  H    1.433957   1.157214   0.000000
 Stoichiometry    CHN
 Framework group  CS[SG(CHN)]
 Deg. of freedom     3
 Full point group                 CS      NOp   2
 Largest Abelian subgroup         CS      NOp   2
 Largest concise Abelian subgroup C1      NOp   1
                         Standard orientation:                         
 ---------------------------------------------------------------------
 Center     Atomic      Atomic             Coordinates (Angstroms)
 Number     Number       Type             X           Y           Z
 ---------------------------------------------------------------------
      1          7           0        0.080635   -0.551155    0.000000
      2          6           0        0.080635    0.587505    0.000000
      3          1           0       -1.048258    0.333058    0.000000
 ---------------------------------------------------------------------
 Rotational constants (GHZ):    415.8583508     59.2848912     51.8877570
 Standard basis: 6-311G(d) (5D, 7F)
 There are    31 symmetry adapted cartesian basis functions of A'  symmetry.
 There are    10 symmetry adapted cartesian basis functions of A"  symmetry.
 There are    29 symmetry adapted basis functions of A'  symmetry.
 There are    10 symmetry adapted basis functions of A"  symmetry.
    39 basis functions,    69 primitive gaussians,    41 cartesian basis functions
     7 alpha electrons        7 beta electrons
       nuclear repulsion energy        24.8458843766 Hartrees.
 NAtoms=    3 NActive=    3 NUniq=    3 SFac= 1.00D+00 NAtFMM=   60 NAOKFM=F Big=F
 Integral buffers will be    131072 words long.
 Raffenetti 1 integral format.
 Two-electron integral symmetry is turned on.
 One-electron integrals computed using PRISM.
 NBasis=    39 RedAO= T EigKep=  7.67D-03  NBF=    29    10
 NBsUse=    39 1.00D-06 EigRej= -1.00D+00 NBFU=    29    10
 Initial guess from the checkpoint file:  "HNCts6311Gs.chk"
 B after Tr=     0.000000    0.000000    0.000000
         Rot=    0.999995    0.000000    0.000000    0.003049 Ang=   0.35 deg.
 Initial guess orbital symmetries:
       Occupied  (A') (A') (A') (A') (A') (A") (A')
       Virtual   (A') (A') (A') (A') (A') (A') (A') (A') (A') (A')
                 (A') (A') (A') (A') (A') (A') (A') (A') (A') (A')
                 (A') (A') (A') (A") (A") (A") (A") (A") (A") (A")
                 (A") (A")
 ExpMin= 1.03D-01 ExpMax= 6.29D+03 ExpMxC= 9.49D+02 IAcc=1 IRadAn=         1 AccDes= 0.00D+00
 Harris functional with IExCor=  205 and IRadAn=       1 diagonalized for initial guess.
 HarFok:  IExCor=  205 AccDes= 0.00D+00 IRadAn=         1 IDoV= 1 UseB2=F ITyADJ=14
 ICtDFT=  3500011 ScaDFX=  1.000000  1.000000  1.000000  1.000000
 FoFCou: FMM=F IPFlag=           0 FMFlag=      100000 FMFlg1=           0
         NFxFlg=           0 DoJE=T BraDBF=F KetDBF=T FulRan=T
         wScrn=  0.000000 ICntrl=     500 IOpCl=  0 I1Cent=   200000004 NGrid=           0
         NMat0=    1 NMatS0=      1 NMatT0=    0 NMatD0=    1 NMtDS0=    0 NMtDT0=    0
 Petite list used in FoFCou.
 Keep R1 ints in memory in symmetry-blocked form, NReq=1161212.
 Requested convergence on RMS density matrix=1.00D-08 within 128 cycles.
 Requested convergence on MAX density matrix=1.00D-06.
 Requested convergence on             energy=1.00D-06.
 No special actions if energy rises.
 SCF Done:  E(RHF) =  -92.8147590049     A.U. after   12 cycles
            NFock= 12  Conv=0.21D-08     -V/T= 1.9982
 Calling FoFJK, ICntrl=      2127 FMM=F ISym2X=1 I1Cent= 0 IOpClX= 0 NMat=1 NMatS=1 NMatT=0.
 ***** Axes restored to original set *****
 -------------------------------------------------------------------
 Center     Atomic                   Forces (Hartrees/Bohr)
 Number     Number              X              Y              Z
 -------------------------------------------------------------------
      1        7          -0.000358129    0.000000000   -0.064180406
      2        6          -0.000204782    0.000000000    0.063680278
      3        1           0.000562910    0.000000000    0.000500129
 -------------------------------------------------------------------
 Cartesian Forces:  Max     0.064180406 RMS     0.030138642

 GradGradGradGradGradGradGradGradGradGradGradGradGradGradGradGradGradGrad
 Berny optimization.
 FormGI is forming the generalized inverse of G from B-inverse, IUseBI=4.
 Internal  Forces:  Max     0.064178413 RMS     0.037062301
 Search for a saddle point.
 Step number   3 out of a maximum of   20
 All quantities printed in internal units (Hartrees-Bohrs-Radians)
 Swapping is turned off.
 Update second derivatives using D2CorX and points    1    2    3
 The second derivative matrix:
                          R1        R2        A1
           R1           1.65720
           R2          -0.06710   0.41411
           A1           0.03710   0.10065  -0.16684
 ITU=  0  0  0
     Eigenvalues ---   -0.18502   0.42814   1.66136
 Eigenvectors required to have negative eigenvalues:
                          A1        R2        R1
   1                    0.98537  -0.16844  -0.02598
 RFO step:  Lambda0=9.874391048D-07 Lambda=-2.50117173D-03.
 Linear search not attempted -- option 19 set.
 Iteration  1 RMS(Cart)=  0.01889375 RMS(Int)=  0.00006481
 Iteration  2 RMS(Cart)=  0.00008412 RMS(Int)=  0.00000000
 Iteration  3 RMS(Cart)=  0.00000000 RMS(Int)=  0.00000000
 ClnCor:  largest displacement from symmetrization is 2.81D-15 for atom     3.
 Variable       Old X    -DE/DX   Delta X   Delta X   Delta X     New X
                                 (Linear)    (Quad)   (Total)
    R1        2.15176   0.06418   0.00000   0.03882   0.03882   2.19058
    R2        2.18682   0.00044   0.00000   0.00624   0.00624   2.19306
    A1        1.34911   0.00133   0.00000   0.00443   0.00443   1.35354
         Item               Value     Threshold  Converged?
 Maximum Force            0.064178     0.000015     NO 
 RMS     Force            0.037062     0.000010     NO 
 Maximum Displacement     0.024070     0.000060     NO 
 RMS     Displacement     0.018935     0.000040     NO 
 Predicted change in Energy=-1.252047D-03
 GradGradGradGradGradGradGradGradGradGradGradGradGradGradGradGradGradGrad

                          Input orientation:                          
 ---------------------------------------------------------------------
 Center     Atomic      Atomic             Coordinates (Angstroms)
 Number     Number       Type             X           Y           Z
 ---------------------------------------------------------------------
      1          7           0       -0.018218    0.000000   -0.085562
      2          6           0       -0.015578    0.000000    1.073639
      3          1           0        1.117084    0.000000    0.820909
 ---------------------------------------------------------------------
                    Distance matrix (angstroms):
                    1          2          3
     1  N    0.000000
     2  C    1.159204   0.000000
     3  H    1.452790   1.160516   0.000000
 Stoichiometry    CHN
 Framework group  CS[SG(CHN)]
 Deg. of freedom     3
 Full point group                 CS      NOp   2
 Largest Abelian subgroup         CS      NOp   2
 Largest concise Abelian subgroup C1      NOp   1
                         Standard orientation:                         
 ---------------------------------------------------------------------
 Center     Atomic      Atomic             Coordinates (Angstroms)
 Number     Number       Type             X           Y           Z
 ---------------------------------------------------------------------
      1          7           0        0.080945   -0.561734    0.000000
      2          6           0        0.080945    0.597470    0.000000
      3          1           0       -1.052289    0.347319    0.000000
 ---------------------------------------------------------------------
 Rotational constants (GHZ):    412.9908376     57.1588887     50.2097438
 Standard basis: 6-311G(d) (5D, 7F)
 There are    31 symmetry adapted cartesian basis functions of A'  symmetry.
 There are    10 symmetry adapted cartesian basis functions of A"  symmetry.
 There are    29 symmetry adapted basis functions of A'  symmetry.
 There are    10 symmetry adapted basis functions of A"  symmetry.
    39 basis functions,    69 primitive gaussians,    41 cartesian basis functions
     7 alpha electrons        7 beta electrons
       nuclear repulsion energy        24.4586728545 Hartrees.
 NAtoms=    3 NActive=    3 NUniq=    3 SFac= 1.00D+00 NAtFMM=   60 NAOKFM=F Big=F
 Integral buffers will be    131072 words long.
 Raffenetti 1 integral format.
 Two-electron integral symmetry is turned on.
 One-electron integrals computed using PRISM.
 NBasis=    39 RedAO= T EigKep=  8.20D-03  NBF=    29    10
 NBsUse=    39 1.00D-06 EigRej= -1.00D+00 NBFU=    29    10
 Initial guess from the checkpoint file:  "HNCts6311Gs.chk"
 B after Tr=     0.000000    0.000000    0.000000
         Rot=    0.999999    0.000000    0.000000    0.001314 Ang=   0.15 deg.
 Initial guess orbital symmetries:
       Occupied  (A') (A') (A') (A') (A') (A") (A')
       Virtual   (A') (A') (A') (A') (A') (A') (A') (A') (A') (A')
                 (A') (A') (A') (A') (A') (A') (A') (A') (A') (A')
                 (A') (A') (A') (A") (A") (A") (A") (A") (A") (A")
                 (A") (A")
 ExpMin= 1.03D-01 ExpMax= 6.29D+03 ExpMxC= 9.49D+02 IAcc=1 IRadAn=         1 AccDes= 0.00D+00
 Harris functional with IExCor=  205 and IRadAn=       1 diagonalized for initial guess.
 HarFok:  IExCor=  205 AccDes= 0.00D+00 IRadAn=         1 IDoV= 1 UseB2=F ITyADJ=14
 ICtDFT=  3500011 ScaDFX=  1.000000  1.000000  1.000000  1.000000
 FoFCou: FMM=F IPFlag=           0 FMFlag=      100000 FMFlg1=           0
         NFxFlg=           0 DoJE=T BraDBF=F KetDBF=T FulRan=T
         wScrn=  0.000000 ICntrl=     500 IOpCl=  0 I1Cent=   200000004 NGrid=           0
         NMat0=    1 NMatS0=      1 NMatT0=    0 NMatD0=    1 NMtDS0=    0 NMtDT0=    0
 Petite list used in FoFCou.
 Keep R1 ints in memory in symmetry-blocked form, NReq=1161212.
 Requested convergence on RMS density matrix=1.00D-08 within 128 cycles.
 Requested convergence on MAX density matrix=1.00D-06.
 Requested convergence on             energy=1.00D-06.
 No special actions if energy rises.
 SCF Done:  E(RHF) =  -92.8162051180     A.U. after   11 cycles
            NFock= 11  Conv=0.92D-08     -V/T= 1.9994
 Calling FoFJK, ICntrl=      2127 FMM=F ISym2X=1 I1Cent= 0 IOpClX= 0 NMat=1 NMatS=1 NMatT=0.
 ***** Axes restored to original set *****
 -------------------------------------------------------------------
 Center     Atomic                   Forces (Hartrees/Bohr)
 Number     Number              X              Y              Z
 -------------------------------------------------------------------
      1        7          -0.000230200    0.000000000   -0.011405998
      2        6           0.001249883    0.000000000    0.010969462
      3        1          -0.001019683    0.000000000    0.000436537
 -------------------------------------------------------------------
 Cartesian Forces:  Max     0.011405998 RMS     0.005304834

 GradGradGradGradGradGradGradGradGradGradGradGradGradGradGradGradGradGrad
 Berny optimization.
 FormGI is forming the generalized inverse of G from B-inverse, IUseBI=4.
 Internal  Forces:  Max     0.011406493 RMS     0.006620597
 Search for a saddle point.
 Step number   4 out of a maximum of   20
 All quantities printed in internal units (Hartrees-Bohrs-Radians)
 Swapping is turned off.
 Update second derivatives using D2CorX and points    1    2    3    4
 The second derivative matrix:
                          R1        R2        A1
           R1           1.36289
           R2          -0.03940   0.41324
           A1           0.02433   0.10896  -0.16647
 ITU=  0  0  0  0
     Eigenvalues ---   -0.18689   0.43178   1.36478
 Eigenvectors required to have negative eigenvalues:
                          A1        R2        R1
   1                   -0.98348   0.17988   0.02001
 RFO step:  Lambda0=8.899035465D-07 Lambda=-9.67431137D-05.
 Linear search not attempted -- option 19 set.
 Iteration  1 RMS(Cart)=  0.00358871 RMS(Int)=  0.00000357
 Iteration  2 RMS(Cart)=  0.00000247 RMS(Int)=  0.00000000
 Iteration  3 RMS(Cart)=  0.00000000 RMS(Int)=  0.00000000
 ClnCor:  largest displacement from symmetrization is 9.16D-16 for atom     3.
 Variable       Old X    -DE/DX   Delta X   Delta X   Delta X     New X
                                 (Linear)    (Quad)   (Total)
    R1        2.19058   0.01141   0.00000   0.00837   0.00837   2.19895
    R2        2.19306  -0.00109   0.00000  -0.00124  -0.00124   2.19182
    A1        1.35354   0.00045   0.00000  -0.00228  -0.00228   1.35127
         Item               Value     Threshold  Converged?
 Maximum Force            0.011406     0.000015     NO 
 RMS     Force            0.006621     0.000010     NO 
 Maximum Displacement     0.004368     0.000060     NO 
 RMS     Displacement     0.003589     0.000040     NO 
 Predicted change in Energy=-4.792660D-05
 GradGradGradGradGradGradGradGradGradGradGradGradGradGradGradGradGradGrad

                          Input orientation:                          
 ---------------------------------------------------------------------
 Center     Atomic      Atomic             Coordinates (Angstroms)
 Number     Number       Type             X           Y           Z
 ---------------------------------------------------------------------
      1          7           0       -0.017862    0.000000   -0.087681
      2          6           0       -0.015139    0.000000    1.075951
      3          1           0        1.116289    0.000000    0.820718
 ---------------------------------------------------------------------
                    Distance matrix (angstroms):
                    1          2          3
     1  N    0.000000
     2  C    1.163635   0.000000
     3  H    1.453096   1.159860   0.000000
 Stoichiometry    CHN
 Framework group  CS[SG(CHN)]
 Deg. of freedom     3
 Full point group                 CS      NOp   2
 Largest Abelian subgroup         CS      NOp   2
 Largest concise Abelian subgroup C1      NOp   1
                         Standard orientation:                         
 ---------------------------------------------------------------------
 Center     Atomic      Atomic             Coordinates (Angstroms)
 Number     Number       Type             X           Y           Z
 ---------------------------------------------------------------------
      1          7           0        0.080859   -0.563776    0.000000
      2          6           0        0.080859    0.599859    0.000000
      3          1           0       -1.051164    0.347274    0.000000
 ---------------------------------------------------------------------
 Rotational constants (GHZ):    413.8062316     56.7339451     49.8934229
 Standard basis: 6-311G(d) (5D, 7F)
 There are    31 symmetry adapted cartesian basis functions of A'  symmetry.
 There are    10 symmetry adapted cartesian basis functions of A"  symmetry.
 There are    29 symmetry adapted basis functions of A'  symmetry.
 There are    10 symmetry adapted basis functions of A"  symmetry.
    39 basis functions,    69 primitive gaussians,    41 cartesian basis functions
     7 alpha electrons        7 beta electrons
       nuclear repulsion energy        24.3866742244 Hartrees.
 NAtoms=    3 NActive=    3 NUniq=    3 SFac= 1.00D+00 NAtFMM=   60 NAOKFM=F Big=F
 Integral buffers will be    131072 words long.
 Raffenetti 1 integral format.
 Two-electron integral symmetry is turned on.
 One-electron integrals computed using PRISM.
 NBasis=    39 RedAO= T EigKep=  8.32D-03  NBF=    29    10
 NBsUse=    39 1.00D-06 EigRej= -1.00D+00 NBFU=    29    10
 Initial guess from the checkpoint file:  "HNCts6311Gs.chk"
 B after Tr=     0.000000    0.000000    0.000000
         Rot=    1.000000    0.000000    0.000000    0.000033 Ang=   0.00 deg.
 Initial guess orbital symmetries:
       Occupied  (A') (A') (A') (A') (A') (A") (A')
       Virtual   (A') (A') (A') (A') (A') (A') (A') (A') (A') (A')
                 (A') (A') (A') (A') (A') (A') (A') (A') (A') (A')
                 (A') (A') (A') (A") (A") (A") (A") (A") (A") (A")
                 (A") (A")
 Keep R1 ints in memory in symmetry-blocked form, NReq=1161212.
 Requested convergence on RMS density matrix=1.00D-08 within 128 cycles.
 Requested convergence on MAX density matrix=1.00D-06.
 Requested convergence on             energy=1.00D-06.
 No special actions if energy rises.
 SCF Done:  E(RHF) =  -92.8162569779     A.U. after   10 cycles
            NFock= 10  Conv=0.77D-08     -V/T= 1.9996
 Calling FoFJK, ICntrl=      2127 FMM=F ISym2X=1 I1Cent= 0 IOpClX= 0 NMat=1 NMatS=1 NMatT=0.
 ***** Axes restored to original set *****
 -------------------------------------------------------------------
 Center     Atomic                   Forces (Hartrees/Bohr)
 Number     Number              X              Y              Z
 -------------------------------------------------------------------
      1        7          -0.000013770    0.000000000   -0.000950125
      2        6           0.000320575    0.000000000    0.000869067
      3        1          -0.000306805    0.000000000    0.000081058
 -------------------------------------------------------------------
 Cartesian Forces:  Max     0.000950125 RMS     0.000454810

 GradGradGradGradGradGradGradGradGradGradGradGradGradGradGradGradGradGrad
 Berny optimization.
 FormGI is forming the generalized inverse of G from B-inverse, IUseBI=4.
 Internal  Forces:  Max     0.000950162 RMS     0.000578510
 Search for a saddle point.
 Step number   5 out of a maximum of   20
 All quantities printed in internal units (Hartrees-Bohrs-Radians)
 Swapping is turned off.
 Update second derivatives using D2CorX and points    2    3    4    5
 The second derivative matrix:
                          R1        R2        A1
           R1           1.25399
           R2          -0.00362   0.40024
           A1           0.02130   0.10841  -0.16619
 ITU=  0  0  0  0
     Eigenvalues ---   -0.18655   0.42028   1.25431
 Eigenvectors required to have negative eigenvalues:
                          A1        R2        R1
   1                   -0.98323   0.18175   0.01499
 RFO step:  Lambda0=2.502639208D-08 Lambda=-9.46419178D-07.
 Linear search not attempted -- option 19 set.
 Iteration  1 RMS(Cart)=  0.00056083 RMS(Int)=  0.00000013
 Iteration  2 RMS(Cart)=  0.00000009 RMS(Int)=  0.00000000
 ClnCor:  largest displacement from symmetrization is 1.40D-15 for atom     3.
 Variable       Old X    -DE/DX   Delta X   Delta X   Delta X     New X
                                 (Linear)    (Quad)   (Total)
    R1        2.19895   0.00095   0.00000   0.00076   0.00076   2.19972
    R2        2.19182  -0.00032   0.00000  -0.00065  -0.00065   2.19116
    A1        1.35127   0.00003   0.00000  -0.00048  -0.00048   1.35078
         Item               Value     Threshold  Converged?
 Maximum Force            0.000950     0.000015     NO 
 RMS     Force            0.000579     0.000010     NO 
 Maximum Displacement     0.000606     0.000060     NO 
 RMS     Displacement     0.000561     0.000040     NO 
 Predicted change in Energy=-4.606964D-07
 GradGradGradGradGradGradGradGradGradGradGradGradGradGradGradGradGradGrad

                          Input orientation:                          
 ---------------------------------------------------------------------
 Center     Atomic      Atomic             Coordinates (Angstroms)
 Number     Number       Type             X           Y           Z
 ---------------------------------------------------------------------
      1          7           0       -0.017665    0.000000   -0.087818
      2          6           0       -0.015015    0.000000    1.076218
      3          1           0        1.115968    0.000000    0.820587
 ---------------------------------------------------------------------
                    Distance matrix (angstroms):
                    1          2          3
     1  N    0.000000
     2  C    1.164039   0.000000
     3  H    1.452696   1.159513   0.000000
 Stoichiometry    CHN
 Framework group  CS[SG(CHN)]
 Deg. of freedom     3
 Full point group                 CS      NOp   2
 Largest Abelian subgroup         CS      NOp   2
 Largest concise Abelian subgroup C1      NOp   1
                         Standard orientation:                         
 ---------------------------------------------------------------------
 Center     Atomic      Atomic             Coordinates (Angstroms)
 Number     Number       Type             X           Y           Z
 ---------------------------------------------------------------------
      1          7           0        0.080826   -0.563944    0.000000
      2          6           0        0.080826    0.600095    0.000000
      3          1           0       -1.050737    0.347040    0.000000
 ---------------------------------------------------------------------
 Rotational constants (GHZ):    414.1260677     56.6968306     49.8693576
 Standard basis: 6-311G(d) (5D, 7F)
 There are    31 symmetry adapted cartesian basis functions of A'  symmetry.
 There are    10 symmetry adapted cartesian basis functions of A"  symmetry.
 There are    29 symmetry adapted basis functions of A'  symmetry.
 There are    10 symmetry adapted basis functions of A"  symmetry.
    39 basis functions,    69 primitive gaussians,    41 cartesian basis functions
     7 alpha electrons        7 beta electrons
       nuclear repulsion energy        24.3815596510 Hartrees.
 NAtoms=    3 NActive=    3 NUniq=    3 SFac= 1.00D+00 NAtFMM=   60 NAOKFM=F Big=F
 Integral buffers will be    131072 words long.
 Raffenetti 1 integral format.
 Two-electron integral symmetry is turned on.
 One-electron integrals computed using PRISM.
 NBasis=    39 RedAO= T EigKep=  8.33D-03  NBF=    29    10
 NBsUse=    39 1.00D-06 EigRej= -1.00D+00 NBFU=    29    10
 Initial guess from the checkpoint file:  "HNCts6311Gs.chk"
 B after Tr=     0.000000    0.000000    0.000000
         Rot=    1.000000    0.000000    0.000000   -0.000009 Ang=   0.00 deg.
 Initial guess orbital symmetries:
       Occupied  (A') (A') (A') (A') (A') (A") (A')
       Virtual   (A') (A') (A') (A') (A') (A') (A') (A') (A') (A')
                 (A') (A') (A') (A') (A') (A') (A') (A') (A') (A')
                 (A') (A') (A') (A") (A") (A") (A") (A") (A") (A")
                 (A") (A")
 Keep R1 ints in memory in symmetry-blocked form, NReq=1161212.
 Requested convergence on RMS density matrix=1.00D-08 within 128 cycles.
 Requested convergence on MAX density matrix=1.00D-06.
 Requested convergence on             energy=1.00D-06.
 No special actions if energy rises.
 SCF Done:  E(RHF) =  -92.8162574600     A.U. after    9 cycles
            NFock=  9  Conv=0.16D-08     -V/T= 1.9997
 Calling FoFJK, ICntrl=      2127 FMM=F ISym2X=1 I1Cent= 0 IOpClX= 0 NMat=1 NMatS=1 NMatT=0.
 ***** Axes restored to original set *****
 -------------------------------------------------------------------
 Center     Atomic                   Forces (Hartrees/Bohr)
 Number     Number              X              Y              Z
 -------------------------------------------------------------------
      1        7          -0.000002605    0.000000000   -0.000006891
      2        6           0.000062314    0.000000000   -0.000009280
      3        1          -0.000059710    0.000000000    0.000016171
 -------------------------------------------------------------------
 Cartesian Forces:  Max     0.000062314 RMS     0.000029534

 GradGradGradGradGradGradGradGradGradGradGradGradGradGradGradGradGradGrad
 Berny optimization.
 FormGI is forming the generalized inverse of G from B-inverse, IUseBI=4.
 Internal  Forces:  Max     0.000061803 RMS     0.000036054
 Search for a saddle point.
 Step number   6 out of a maximum of   20
 All quantities printed in internal units (Hartrees-Bohrs-Radians)
 Swapping is turned off.
 Update second derivatives using D2CorX and points    3    4    5    6
 The second derivative matrix:
                          R1        R2        A1
           R1           1.26321
           R2           0.02543   0.34798
           A1           0.01075   0.09724  -0.15589
 ITU=  0  0  0  0
     Eigenvalues ---   -0.17403   0.36528   1.26405
 Eigenvectors required to have negative eigenvalues:
                          A1        R2        R1
   1                   -0.98312   0.18294   0.00412
 RFO step:  Lambda0=1.638738839D-09 Lambda= 0.00000000D+00.
 Linear search not attempted -- option 19 set.
 Iteration  1 RMS(Cart)=  0.00013139 RMS(Int)=  0.00000001
 Iteration  2 RMS(Cart)=  0.00000000 RMS(Int)=  0.00000000
 ClnCor:  largest displacement from symmetrization is 1.40D-15 for atom     3.
 Variable       Old X    -DE/DX   Delta X   Delta X   Delta X     New X
                                 (Linear)    (Quad)   (Total)
    R1        2.19972   0.00001   0.00000   0.00001   0.00001   2.19972
    R2        2.19116  -0.00006   0.00000  -0.00014  -0.00014   2.19102
    A1        1.35078   0.00001   0.00000  -0.00013  -0.00013   1.35066
         Item               Value     Threshold  Converged?
 Maximum Force            0.000062     0.000015     NO 
 RMS     Force            0.000036     0.000010     NO 
 Maximum Displacement     0.000151     0.000060     NO 
 RMS     Displacement     0.000131     0.000040     NO 
 Predicted change in Energy=-4.102123D-09
 GradGradGradGradGradGradGradGradGradGradGradGradGradGradGradGradGradGrad

                          Input orientation:                          
 ---------------------------------------------------------------------
 Center     Atomic      Atomic             Coordinates (Angstroms)
 Number     Number       Type             X           Y           Z
 ---------------------------------------------------------------------
      1          7           0       -0.017600    0.000000   -0.087796
      2          6           0       -0.015000    0.000000    1.076245
      3          1           0        1.115888    0.000000    0.820538
 ---------------------------------------------------------------------
                    Distance matrix (angstroms):
                    1          2          3
     1  N    0.000000
     2  C    1.164044   0.000000
     3  H    1.452538   1.159437   0.000000
 Stoichiometry    CHN
 Framework group  CS[SG(CHN)]
 Deg. of freedom     3
 Full point group                 CS      NOp   2
 Largest Abelian subgroup         CS      NOp   2
 Largest concise Abelian subgroup C1      NOp   1
                         Standard orientation:                         
 ---------------------------------------------------------------------
 Center     Atomic      Atomic             Coordinates (Angstroms)
 Number     Number       Type             X           Y           Z
 ---------------------------------------------------------------------
      1          7           0        0.080818   -0.563938    0.000000
      2          6           0        0.080818    0.600106    0.000000
      3          1           0       -1.050638    0.346926    0.000000
 ---------------------------------------------------------------------
 Rotational constants (GHZ):    414.1983737     56.6970409     49.8705687
 Standard basis: 6-311G(d) (5D, 7F)
 There are    31 symmetry adapted cartesian basis functions of A'  symmetry.
 There are    10 symmetry adapted cartesian basis functions of A"  symmetry.
 There are    29 symmetry adapted basis functions of A'  symmetry.
 There are    10 symmetry adapted basis functions of A"  symmetry.
    39 basis functions,    69 primitive gaussians,    41 cartesian basis functions
     7 alpha electrons        7 beta electrons
       nuclear repulsion energy        24.3819340028 Hartrees.
 NAtoms=    3 NActive=    3 NUniq=    3 SFac= 1.00D+00 NAtFMM=   60 NAOKFM=F Big=F
 Integral buffers will be    131072 words long.
 Raffenetti 1 integral format.
 Two-electron integral symmetry is turned on.
 One-electron integrals computed using PRISM.
 NBasis=    39 RedAO= T EigKep=  8.33D-03  NBF=    29    10
 NBsUse=    39 1.00D-06 EigRej= -1.00D+00 NBFU=    29    10
 Initial guess from the checkpoint file:  "HNCts6311Gs.chk"
 B after Tr=     0.000000    0.000000    0.000000
         Rot=    1.000000    0.000000    0.000000   -0.000008 Ang=   0.00 deg.
 Initial guess orbital symmetries:
       Occupied  (A') (A') (A') (A') (A') (A") (A')
       Virtual   (A') (A') (A') (A') (A') (A') (A') (A') (A') (A')
                 (A') (A') (A') (A') (A') (A') (A') (A') (A') (A')
                 (A') (A') (A') (A") (A") (A") (A") (A") (A") (A")
                 (A") (A")
 Keep R1 ints in memory in symmetry-blocked form, NReq=1161212.
 Requested convergence on RMS density matrix=1.00D-08 within 128 cycles.
 Requested convergence on MAX density matrix=1.00D-06.
 Requested convergence on             energy=1.00D-06.
 No special actions if energy rises.
 SCF Done:  E(RHF) =  -92.8162574644     A.U. after    7 cycles
            NFock=  7  Conv=0.56D-08     -V/T= 1.9997
 Calling FoFJK, ICntrl=      2127 FMM=F ISym2X=1 I1Cent= 0 IOpClX= 0 NMat=1 NMatS=1 NMatT=0.
 ***** Axes restored to original set *****
 -------------------------------------------------------------------
 Center     Atomic                   Forces (Hartrees/Bohr)
 Number     Number              X              Y              Z
 -------------------------------------------------------------------
      1        7          -0.000000512    0.000000000    0.000004797
      2        6           0.000006528    0.000000000   -0.000006682
      3        1          -0.000006015    0.000000000    0.000001885
 -------------------------------------------------------------------
 Cartesian Forces:  Max     0.000006682 RMS     0.000004086

 GradGradGradGradGradGradGradGradGradGradGradGradGradGradGradGradGradGrad
 Berny optimization.
 FormGI is forming the generalized inverse of G from B-inverse, IUseBI=4.
 Internal  Forces:  Max     0.000006287 RMS     0.000004611
 Search for a saddle point.
 Step number   7 out of a maximum of   20
 All quantities printed in internal units (Hartrees-Bohrs-Radians)
 Swapping is turned off.
 Update second derivatives using D2CorX and points    4    5    6    7
 The second derivative matrix:
                          R1        R2        A1
           R1           1.25810
           R2          -0.00123   0.30496
           A1           0.00259   0.09426  -0.14403
 ITU=  0  0  0  0
     Eigenvalues ---   -0.16302   0.32394   1.25811
 Eigenvectors required to have negative eigenvalues:
                          A1        R2        R1
   1                   -0.98031   0.19746   0.00196
 RFO step:  Lambda0=3.428456130D-11 Lambda= 0.00000000D+00.
 Linear search not attempted -- option 19 set.
 Iteration  1 RMS(Cart)=  0.00001780 RMS(Int)=  0.00000000
 Iteration  2 RMS(Cart)=  0.00000000 RMS(Int)=  0.00000000
 ClnCor:  largest displacement from symmetrization is 2.50D-16 for atom     1.
 Variable       Old X    -DE/DX   Delta X   Delta X   Delta X     New X
                                 (Linear)    (Quad)   (Total)
    R1        2.19972   0.00000   0.00000   0.00000   0.00000   2.19972
    R2        2.19102  -0.00001   0.00000  -0.00002  -0.00002   2.19100
    A1        1.35066   0.00000   0.00000  -0.00002  -0.00002   1.35064
         Item               Value     Threshold  Converged?
 Maximum Force            0.000006     0.000015     YES
 RMS     Force            0.000005     0.000010     YES
 Maximum Displacement     0.000019     0.000060     YES
 RMS     Displacement     0.000018     0.000040     YES
 Predicted change in Energy=-4.644887D-11
 Optimization completed.
    -- Stationary point found.
                           ----------------------------
                           !   Optimized Parameters   !
                           ! (Angstroms and Degrees)  !
 --------------------------                            --------------------------
 ! Name  Definition              Value          Derivative Info.                !
 --------------------------------------------------------------------------------
 ! R1    R(1,2)                  1.164          -DE/DX =    0.0                 !
 ! R2    R(2,3)                  1.1594         -DE/DX =    0.0                 !
 ! A1    A(1,2,3)               77.387          -DE/DX =    0.0                 !
 --------------------------------------------------------------------------------
 GradGradGradGradGradGradGradGradGradGradGradGradGradGradGradGradGradGrad

                          Input orientation:                          
 ---------------------------------------------------------------------
 Center     Atomic      Atomic             Coordinates (Angstroms)
 Number     Number       Type             X           Y           Z
 ---------------------------------------------------------------------
      1          7           0       -0.017600    0.000000   -0.087796
      2          6           0       -0.015000    0.000000    1.076245
      3          1           0        1.115888    0.000000    0.820538
 ---------------------------------------------------------------------
                    Distance matrix (angstroms):
                    1          2          3
     1  N    0.000000
     2  C    1.164044   0.000000
     3  H    1.452538   1.159437   0.000000
 Stoichiometry    CHN
 Framework group  CS[SG(CHN)]
 Deg. of freedom     3
 Full point group                 CS      NOp   2
 Largest Abelian subgroup         CS      NOp   2
 Largest concise Abelian subgroup C1      NOp   1
                         Standard orientation:                         
 ---------------------------------------------------------------------
 Center     Atomic      Atomic             Coordinates (Angstroms)
 Number     Number       Type             X           Y           Z
 ---------------------------------------------------------------------
      1          7           0        0.080818   -0.563938    0.000000
      2          6           0        0.080818    0.600106    0.000000
      3          1           0       -1.050638    0.346926    0.000000
 ---------------------------------------------------------------------
 Rotational constants (GHZ):    414.1983737     56.6970409     49.8705687

 **********************************************************************

            Population analysis using the SCF density.

 **********************************************************************

 Orbital symmetries:
       Occupied  (A') (A') (A') (A') (A') (A") (A')
       Virtual   (A') (A') (A") (A') (A') (A") (A') (A') (A') (A")
                 (A') (A') (A') (A") (A') (A") (A') (A') (A') (A")
                 (A') (A") (A') (A") (A') (A') (A') (A") (A') (A')
                 (A') (A')
 The electronic state is 1-A'.
 Alpha  occ. eigenvalues --  -15.64762 -11.28418  -1.31397  -0.71340  -0.62476
 Alpha  occ. eigenvalues --   -0.53632  -0.49469
 Alpha virt. eigenvalues --    0.09792   0.17350   0.17749   0.35189   0.45853
 Alpha virt. eigenvalues --    0.58366   0.59537   0.71398   0.76269   0.86425
 Alpha virt. eigenvalues --    0.86775   1.03558   1.27536   1.47462   1.60146
 Alpha virt. eigenvalues --    1.65226   1.74479   2.23104   2.29160   2.32576
 Alpha virt. eigenvalues --    2.54246   2.82195   2.82424   3.10809   3.19458
 Alpha virt. eigenvalues --    3.31890   3.40383   4.20376   4.24020   4.79358
 Alpha virt. eigenvalues --   24.98286  36.96774
          Condensed to atoms (all electrons):
               1          2          3
     1  N    6.601071   0.501896   0.059776
     2  C    0.501896   5.407865   0.237691
     3  H    0.059776   0.237691   0.392338
 Mulliken charges:
               1
     1  N   -0.162743
     2  C   -0.147452
     3  H    0.310195
 Sum of Mulliken charges =   0.00000
 Mulliken charges with hydrogens summed into heavy atoms:
               1
     1  N   -0.162743
     2  C    0.162743
 Electronic spatial extent (au):  <R**2>=             47.3152
 Charge=              0.0000 electrons
 Dipole moment (field-independent basis, Debye):
    X=             -1.4525    Y=              0.1707    Z=              0.0000  Tot=              1.4625
 Quadrupole moment (field-independent basis, Debye-Ang):
   XX=             -9.6713   YY=            -14.4338   ZZ=            -12.1763
   XY=             -0.6250   XZ=              0.0000   YZ=              0.0000
 Traceless Quadrupole moment (field-independent basis, Debye-Ang):
   XX=              2.4225   YY=             -2.3400   ZZ=             -0.0825
   XY=             -0.6250   XZ=              0.0000   YZ=              0.0000
 Octapole moment (field-independent basis, Debye-Ang**2):
  XXX=             -2.7644  YYY=             -3.0989  ZZZ=              0.0000  XYY=             -0.4716
  XXY=             -0.5675  XXZ=              0.0000  XZZ=             -0.3548  YZZ=             -0.5405
  YYZ=              0.0000  XYZ=              0.0000
 Hexadecapole moment (field-independent basis, Debye-Ang**3):
 XXXX=            -12.5481 YYYY=            -42.7499 ZZZZ=            -11.9906 XXXY=             -0.4337
 XXXZ=              0.0000 YYYX=              0.2703 YYYZ=              0.0000 ZZZX=              0.0000
 ZZZY=              0.0000 XXYY=             -8.8380 XXZZ=             -4.5175 YYZZ=             -8.5875
 XXYZ=              0.0000 YYXZ=              0.0000 ZZXY=              0.1307
 N-N= 2.438193400281D+01 E-N=-2.660141951722D+02  KE= 9.284767815177D+01
 Symmetry A'   KE= 8.998535634534D+01
 Symmetry A"   KE= 2.862321806429D+00
 B after Tr=     0.024455    0.000000    0.019636
         Rot=    1.000000    0.000000    0.000043    0.000000 Ang=   0.00 deg.
 Final structure in terms of initial Z-matrix:
 N
 C,1,B1
 H,2,B2,1,A1
      Variables:
 B1=1.16404423
 B2=1.1594372
 A1=77.38699338
 1\1\GINC-TC-NODE166\FTS\RHF\6-311G(d)\C1H1N1\MAXB2\27-Sep-2016\0\\# op
 t=(calcfc,ts,tight) RHF/6-311g* gfp\\HNC-HCN\\0,1\N,-0.0176407824,0.,-
 0.0877908039\C,-0.015041029,0.,1.0762505187\H,1.1158474506,0.,0.820543
 9321\\Version=ES64L-G09RevD.01\State=1-A'\HF=-92.8162575\RMSD=5.637e-0
 9\RMSF=4.086e-06\Dipole=0.5715912,0.,0.0658699\Quadrupole=1.8031324,-0
 .0613452,-1.7417872,0.,0.456737,0.\PG=CS [SG(C1H1N1)]\\@


 TERENCE, THIS IS STUPID STUFF:
 YOU EAT YOUR VICTUALS FAST ENOUGH;
 THERE CAN'T BE MUCH AMISS, 'TIS CLEAR
 TO SEE THE RATE YOU DRINK YOUR BEER.
 BUT OH, GOOD LORD, THE VERSE YOU MAKE,
 IT GIVES A CHAP THE BELLY-ACHE.
 THE COW, THE OLD COW, SHE IS DEAD;
 IT SLEEPS WELL, THE HORNED HEAD:
 WE POOR LADS, 'TIS OUR TURN NOW
 TO HEAR SUCH TUNES AS KILLED THE COW.
 PRETTY FRIENDSHIP 'TIS TO RHYME
 YOUR FRIENDS TO DEATH BEFORE THEIR TIME.
 MOPING, MELANCHOLY MAD:
 COME PIPE A TUNE TO DANCE TO, LAD.

     -- A. E. HOUSMAN
 Job cpu time:       0 days  0 hours  0 minutes 32.9 seconds.
 File lengths (MBytes):  RWF=     82 Int=      0 D2E=      0 Chk=      2 Scr=      1
 Normal termination of Gaussian 09 at Tue Sep 27 11:15:38 2016.
