 Entering Gaussian System, Link 0=g09
 Initial command:
 /cluster/software/gaussian/gaussian-09-D.01/g09/l1.exe "/local/scratch/maxb2/Gau-2066.inp" -scrdir="/local/scratch/maxb2/"
 Entering Link 1 = /cluster/software/gaussian/gaussian-09-D.01/g09/l1.exe PID=      2067.
  
 Copyright (c) 1988,1990,1992,1993,1995,1998,2003,2009,2013,
            Gaussian, Inc.  All Rights Reserved.
  
 This is part of the Gaussian(R) 09 program.  It is based on
 the Gaussian(R) 03 system (copyright 2003, Gaussian, Inc.),
 the Gaussian(R) 98 system (copyright 1998, Gaussian, Inc.),
 the Gaussian(R) 94 system (copyright 1995, Gaussian, Inc.),
 the Gaussian 92(TM) system (copyright 1992, Gaussian, Inc.),
 the Gaussian 90(TM) system (copyright 1990, Gaussian, Inc.),
 the Gaussian 88(TM) system (copyright 1988, Gaussian, Inc.),
 the Gaussian 86(TM) system (copyright 1986, Carnegie Mellon
 University), and the Gaussian 82(TM) system (copyright 1983,
 Carnegie Mellon University). Gaussian is a federally registered
 trademark of Gaussian, Inc.
  
 This software contains proprietary and confidential information,
 including trade secrets, belonging to Gaussian, Inc.
  
 This software is provided under written license and may be
 used, copied, transmitted, or stored only in accord with that
 written license.
  
 The following legend is applicable only to US Government
 contracts under FAR:
  
                    RESTRICTED RIGHTS LEGEND
  
 Use, reproduction and disclosure by the US Government is
 subject to restrictions as set forth in subparagraphs (a)
 and (c) of the Commercial Computer Software - Restricted
 Rights clause in FAR 52.227-19.
  
 Gaussian, Inc.
 340 Quinnipiac St., Bldg. 40, Wallingford CT 06492
  
  
 ---------------------------------------------------------------
 Warning -- This program may not be used in any manner that
 competes with the business of Gaussian, Inc. or will provide
 assistance to any competitor of Gaussian, Inc.  The licensee
 of this program is prohibited from giving any competitor of
 Gaussian, Inc. access to this program.  By using this program,
 the user acknowledges that Gaussian, Inc. is engaged in the
 business of creating and licensing software in the field of
 computational chemistry and represents and warrants to the
 licensee that it is not a competitor of Gaussian, Inc. and that
 it will not use this program in any manner prohibited above.
 ---------------------------------------------------------------
  

 Cite this work as:
 Gaussian 09, Revision D.01,
 M. J. Frisch, G. W. Trucks, H. B. Schlegel, G. E. Scuseria, 
 M. A. Robb, J. R. Cheeseman, G. Scalmani, V. Barone, B. Mennucci, 
 G. A. Petersson, H. Nakatsuji, M. Caricato, X. Li, H. P. Hratchian, 
 A. F. Izmaylov, J. Bloino, G. Zheng, J. L. Sonnenberg, M. Hada, 
 M. Ehara, K. Toyota, R. Fukuda, J. Hasegawa, M. Ishida, T. Nakajima, 
 Y. Honda, O. Kitao, H. Nakai, T. Vreven, J. A. Montgomery, Jr., 
 J. E. Peralta, F. Ogliaro, M. Bearpark, J. J. Heyd, E. Brothers, 
 K. N. Kudin, V. N. Staroverov, T. Keith, R. Kobayashi, J. Normand, 
 K. Raghavachari, A. Rendell, J. C. Burant, S. S. Iyengar, J. Tomasi, 
 M. Cossi, N. Rega, J. M. Millam, M. Klene, J. E. Knox, J. B. Cross, 
 V. Bakken, C. Adamo, J. Jaramillo, R. Gomperts, R. E. Stratmann, 
 O. Yazyev, A. J. Austin, R. Cammi, C. Pomelli, J. W. Ochterski, 
 R. L. Martin, K. Morokuma, V. G. Zakrzewski, G. A. Voth, 
 P. Salvador, J. J. Dannenberg, S. Dapprich, A. D. Daniels, 
 O. Farkas, J. B. Foresman, J. V. Ortiz, J. Cioslowski, 
 and D. J. Fox, Gaussian, Inc., Wallingford CT, 2013.
 
 ******************************************
 Gaussian 09:  ES64L-G09RevD.01 24-Apr-2013
                26-Sep-2016 
 ******************************************
 %rwf=/home/maxb2/scratch/HNC21/
 %int=/home/maxb2/scratch/HNC21/
 %d2e=/home/maxb2/scratch/HNC21/
 %nosave
 %mem=6GB
 %nprocshared=2
 Will use up to    2 processors via shared memory.
 %chk=HNC1806311Gs
 ------------------------------------------
 # opt=(modredundant,tight) RHF/6-311g* gfp
 ------------------------------------------
 1/7=10,18=120,19=15,38=1/1,3;
 2/9=110,12=2,17=6,18=5,40=1/2;
 3/5=4,6=6,7=1,11=1,16=1,24=100,25=1,30=1,71=1,116=1/1,2,3;
 4//1;
 5/5=2,38=5/2;
 6/7=2,8=2,9=2,10=2,28=1/1;
 7//1,2,3,16;
 1/7=10,18=20,19=15/3(2);
 2/9=110/2;
 99//99;
 2/9=110/2;
 3/5=4,6=6,7=1,11=1,16=1,25=1,30=1,71=1,116=1/1,2,3;
 4/5=5,16=3,69=1/1;
 5/5=2,38=5/2;
 7//1,2,3,16;
 1/7=10,18=20,19=15/3(-5);
 2/9=110/2;
 6/7=2,8=2,9=2,10=2,19=2,28=1/1;
 99/9=1/99;
 -------
 HNC-HCN
 -------
 Symbolic Z-matrix:
 Charge =  0 Multiplicity = 1
 N
 C                    1    B1
 H                    2    B2       1    A1
       Variables:
  B1                    1.                       
  B2                    2.3                      
       Constants:
  A1                  180.                       
 
 Add virtual bond connecting atoms H3         and C2         Dist= 4.35D+00.
 The following ModRedundant input section has been read:
 

 GradGradGradGradGradGradGradGradGradGradGradGradGradGradGradGradGradGrad
 Berny optimization.
 Initialization pass.
                           ----------------------------
                           !    Initial Parameters    !
                           ! (Angstroms and Degrees)  !
 --------------------------                            --------------------------
 ! Name  Definition              Value          Derivative Info.                !
 --------------------------------------------------------------------------------
 ! R1    R(1,2)                  1.0            estimate D2E/DX2                !
 ! R2    R(2,3)                  2.3            estimate D2E/DX2                !
 ! A1    L(1,2,3,-1,-1)        180.0            estimate D2E/DX2                !
 ! A2    L(1,2,3,-2,-2)        180.0            estimate D2E/DX2                !
 --------------------------------------------------------------------------------
 Trust Radius=3.00D-01 FncErr=1.00D-07 GrdErr=1.00D-07
 Number of steps in this run=     20 maximum allowed number of steps=    100.
 GradGradGradGradGradGradGradGradGradGradGradGradGradGradGradGradGradGrad

                          Input orientation:                          
 ---------------------------------------------------------------------
 Center     Atomic      Atomic             Coordinates (Angstroms)
 Number     Number       Type             X           Y           Z
 ---------------------------------------------------------------------
      1          7           0        0.000000    0.000000    0.000000
      2          6           0        0.000000    0.000000    1.000000
      3          1           0        0.000000    0.000000    3.300000
 ---------------------------------------------------------------------
                    Distance matrix (angstroms):
                    1          2          3
     1  N    0.000000
     2  C    1.000000   0.000000
     3  H    3.300000   2.300000   0.000000
 Stoichiometry    CHN
 Framework group  C*V[C*(HCN)]
 Deg. of freedom     2
 Full point group                 C*V     NOp   4
 Largest Abelian subgroup         C2V     NOp   4
 Largest concise Abelian subgroup C1      NOp   1
                         Standard orientation:                         
 ---------------------------------------------------------------------
 Center     Atomic      Atomic             Coordinates (Angstroms)
 Number     Number       Type             X           Y           Z
 ---------------------------------------------------------------------
      1          7           0        0.000000    0.000000    0.664286
      2          6           0        0.000000    0.000000   -0.335714
      3          1           0        0.000000    0.000000   -2.635714
 ---------------------------------------------------------------------
 Rotational constants (GHZ):      0.0000000     35.3920881     35.3920881
 Standard basis: 6-311G(d) (5D, 7F)
 AO basis set (Overlap normalization):
 Atom N1       Shell     1 S   6     bf    1 -     1          0.000000000000          0.000000000000          1.255318073988
      0.6293480000D+04  0.1969788147D-02
      0.9490440000D+03  0.1496128592D-01
      0.2187760000D+03  0.7350053084D-01
      0.6369160000D+02  0.2489367658D+00
      0.1882820000D+02  0.6024594331D+00
      0.2720230000D+01  0.2562017589D+00
 Atom N1       Shell     2 SP   3    bf    2 -     5          0.000000000000          0.000000000000          1.255318073988
      0.3063310000D+02  0.1119060795D+00  0.3831191864D-01
      0.7026140000D+01  0.9216666549D+00  0.2374031155D+00
      0.2112050000D+01 -0.2569191826D-02  0.8175923978D+00
 Atom N1       Shell     3 SP   1    bf    6 -     9          0.000000000000          0.000000000000          1.255318073988
      0.6840090000D+00  0.1000000000D+01  0.1000000000D+01
 Atom N1       Shell     4 SP   1    bf   10 -    13          0.000000000000          0.000000000000          1.255318073988
      0.2008780000D+00  0.1000000000D+01  0.1000000000D+01
 Atom N1       Shell     5 D   1     bf   14 -    18          0.000000000000          0.000000000000          1.255318073988
      0.9130000000D+00  0.1000000000D+01
 Atom C2       Shell     6 S   6     bf   19 -    19          0.000000000000          0.000000000000         -0.634408058897
      0.4563240000D+04  0.1966650249D-02
      0.6820240000D+03  0.1523060193D-01
      0.1549730000D+03  0.7612690966D-01
      0.4445530000D+02  0.2608010331D+00
      0.1302900000D+02  0.6164620782D+00
      0.1827730000D+01  0.2210060280D+00
 Atom C2       Shell     7 SP   3    bf   20 -    23          0.000000000000          0.000000000000         -0.634408058897
      0.2096420000D+02  0.1146600807D+00  0.4024869267D-01
      0.4803310000D+01  0.9199996477D+00  0.2375939567D+00
      0.1459330000D+01 -0.3030682134D-02  0.8158538515D+00
 Atom C2       Shell     8 SP   1    bf   24 -    27          0.000000000000          0.000000000000         -0.634408058897
      0.4834560000D+00  0.1000000000D+01  0.1000000000D+01
 Atom C2       Shell     9 SP   1    bf   28 -    31          0.000000000000          0.000000000000         -0.634408058897
      0.1455850000D+00  0.1000000000D+01  0.1000000000D+01
 Atom C2       Shell    10 D   1     bf   32 -    36          0.000000000000          0.000000000000         -0.634408058897
      0.6260000000D+00  0.1000000000D+01
 Atom H3       Shell    11 S   3     bf   37 -    37          0.000000000000          0.000000000000         -4.980778164534
      0.3386500000D+02  0.2549381454D-01
      0.5094790000D+01  0.1903731086D+00
      0.1158790000D+01  0.8521614860D+00
 Atom H3       Shell    12 S   1     bf   38 -    38          0.000000000000          0.000000000000         -4.980778164534
      0.3258400000D+00  0.1000000000D+01
 Atom H3       Shell    13 S   1     bf   39 -    39          0.000000000000          0.000000000000         -4.980778164534
      0.1027410000D+00  0.1000000000D+01
 There are    23 symmetry adapted cartesian basis functions of A1  symmetry.
 There are     2 symmetry adapted cartesian basis functions of A2  symmetry.
 There are     8 symmetry adapted cartesian basis functions of B1  symmetry.
 There are     8 symmetry adapted cartesian basis functions of B2  symmetry.
 There are    21 symmetry adapted basis functions of A1  symmetry.
 There are     2 symmetry adapted basis functions of A2  symmetry.
 There are     8 symmetry adapted basis functions of B1  symmetry.
 There are     8 symmetry adapted basis functions of B2  symmetry.
    39 basis functions,    69 primitive gaussians,    41 cartesian basis functions
     7 alpha electrons        7 beta electrons
       nuclear repulsion energy        24.7284021532 Hartrees.
 NAtoms=    3 NActive=    3 NUniq=    3 SFac= 1.00D+00 NAtFMM=   60 NAOKFM=F Big=F
 Integral buffers will be    131072 words long.
 Raffenetti 1 integral format.
 Two-electron integral symmetry is turned on.
 One-electron integrals computed using PRISM.
 NBasis=    39 RedAO= T EigKep=  8.20D-03  NBF=    21     2     8     8
 NBsUse=    39 1.00D-06 EigRej= -1.00D+00 NBFU=    21     2     8     8
 ExpMin= 1.03D-01 ExpMax= 6.29D+03 ExpMxC= 9.49D+02 IAcc=1 IRadAn=         1 AccDes= 0.00D+00
 Harris functional with IExCor=  205 and IRadAn=       1 diagonalized for initial guess.
 HarFok:  IExCor=  205 AccDes= 0.00D+00 IRadAn=         1 IDoV= 1 UseB2=F ITyADJ=14
 ICtDFT=  3500011 ScaDFX=  1.000000  1.000000  1.000000  1.000000
 FoFCou: FMM=F IPFlag=           0 FMFlag=      100000 FMFlg1=           0
         NFxFlg=           0 DoJE=T BraDBF=F KetDBF=T FulRan=T
         wScrn=  0.000000 ICntrl=     500 IOpCl=  0 I1Cent=   200000004 NGrid=           0
         NMat0=    1 NMatS0=      1 NMatT0=    0 NMatD0=    1 NMtDS0=    0 NMtDT0=    0
 Petite list used in FoFCou.
 Initial guess orbital symmetries:
       Occupied  (SG) (SG) (SG) (PI) (PI) (SG) (SG)
       Virtual   (SG) (PI) (PI) (SG) (SG) (PI) (PI) (SG) (SG) (PI)
                 (PI) (SG) (SG) (DLTA) (DLTA) (PI) (PI) (SG) (DLTA)
                 (DLTA) (SG) (PI) (PI) (SG) (PI) (PI) (SG) (PI)
                 (PI) (SG) (SG) (SG)
 The electronic state of the initial guess is 1-SG.
 Keep R1 ints in memory in symmetry-blocked form, NReq=1161818.
 Requested convergence on RMS density matrix=1.00D-08 within 128 cycles.
 Requested convergence on MAX density matrix=1.00D-06.
 Requested convergence on             energy=1.00D-06.
 No special actions if energy rises.
 SCF Done:  E(RHF) =  -92.5965845431     A.U. after   12 cycles
            NFock= 12  Conv=0.23D-08     -V/T= 1.9925

 **********************************************************************

            Population analysis using the SCF density.

 **********************************************************************

 Orbital symmetries:
       Occupied  (SG) (SG) (SG) (SG) (PI) (PI) (SG)
       Virtual   (SG) (PI) (PI) (SG) (SG) (PI) (PI) (SG) (SG) (PI)
                 (PI) (SG) (SG) (DLTA) (DLTA) (PI) (PI) (SG) (DLTA)
                 (DLTA) (SG) (PI) (PI) (SG) (PI) (PI) (SG) (PI)
                 (PI) (SG) (SG) (SG)
 The electronic state is 1-SG.
 Alpha  occ. eigenvalues --  -15.52195 -11.26251  -1.29400  -0.57077  -0.53280
 Alpha  occ. eigenvalues --   -0.53280  -0.48298
 Alpha virt. eigenvalues --   -0.10104   0.26793   0.26793   0.30164   0.44020
 Alpha virt. eigenvalues --    0.58565   0.58565   0.66253   0.77555   0.95360
 Alpha virt. eigenvalues --    0.95360   1.30915   1.47614   1.51001   1.51001
 Alpha virt. eigenvalues --    1.79738   1.79738   2.35920   2.48722   2.48722
 Alpha virt. eigenvalues --    2.53483   2.99853   2.99853   3.04597   3.16675
 Alpha virt. eigenvalues --    3.16675   3.63314   4.38091   4.38091   5.12733
 Alpha virt. eigenvalues --   25.19502  37.54368
          Condensed to atoms (all electrons):
               1          2          3
     1  N    6.306362   1.044282  -0.004931
     2  C    1.044282   4.725597   0.200031
     3  H   -0.004931   0.200031   0.489277
 Mulliken charges:
               1
     1  N   -0.345713
     2  C    0.030090
     3  H    0.315623
 Sum of Mulliken charges =   0.00000
 Mulliken charges with hydrogens summed into heavy atoms:
               1
     1  N   -0.345713
     2  C    0.345713
 Electronic spatial extent (au):  <R**2>=             58.4574
 Charge=              0.0000 electrons
 Dipole moment (field-independent basis, Debye):
    X=              0.0000    Y=              0.0000    Z=             -5.0284  Tot=              5.0284
 Quadrupole moment (field-independent basis, Debye-Ang):
   XX=            -12.2776   YY=            -12.2776   ZZ=             -2.6194
   XY=              0.0000   XZ=              0.0000   YZ=              0.0000
 Traceless Quadrupole moment (field-independent basis, Debye-Ang):
   XX=             -3.2194   YY=             -3.2194   ZZ=              6.4388
   XY=              0.0000   XZ=              0.0000   YZ=              0.0000
 Octapole moment (field-independent basis, Debye-Ang**2):
  XXX=              0.0000  YYY=              0.0000  ZZZ=            -32.5092  XYY=              0.0000
  XXY=              0.0000  XXZ=              1.2921  XZZ=              0.0000  YZZ=              0.0000
  YYZ=              1.2921  XYZ=              0.0000
 Hexadecapole moment (field-independent basis, Debye-Ang**3):
 XXXX=            -12.3563 YYYY=            -12.3563 ZZZZ=             20.9264 XXXY=              0.0000
 XXXZ=              0.0000 YYYX=              0.0000 YYYZ=              0.0000 ZZZX=              0.0000
 ZZZY=              0.0000 XXYY=             -4.1188 XXZZ=            -14.6512 YYZZ=            -14.6512
 XXYZ=              0.0000 YYXZ=              0.0000 ZZXY=              0.0000
 N-N= 2.472840215319D+01 E-N=-2.675509217603D+02  KE= 9.329657357397D+01
 Symmetry A1   KE= 8.741726462634D+01
 Symmetry A2   KE=-6.819010135832D-51
 Symmetry B1   KE= 2.939654473813D+00
 Symmetry B2   KE= 2.939654473813D+00
 Calling FoFJK, ICntrl=      2127 FMM=F ISym2X=1 I1Cent= 0 IOpClX= 0 NMat=1 NMatS=1 NMatT=0.
 ***** Axes restored to original set *****
 -------------------------------------------------------------------
 Center     Atomic                   Forces (Hartrees/Bohr)
 Number     Number              X              Y              Z
 -------------------------------------------------------------------
      1        7           0.000000000    0.000000000   -0.572310325
      2        6           0.000000000    0.000000000    0.654917815
      3        1           0.000000000    0.000000000   -0.082607491
 -------------------------------------------------------------------
 Cartesian Forces:  Max     0.654917815 RMS     0.291219743

 GradGradGradGradGradGradGradGradGradGradGradGradGradGradGradGradGradGrad
 Berny optimization.
 FormGI is forming the generalized inverse of G from B-inverse, IUseBI=4.
 Internal  Forces:  Max     0.572310325 RMS     0.289120695
 Search for a local minimum.
 Step number   1 out of a maximum of   20
 All quantities printed in internal units (Hartrees-Bohrs-Radians)
 Mixed Optimization -- RFO/linear search
 Second derivative matrix not updated -- first step.
 The second derivative matrix:
                          R1        R2        A1        A2
           R1           3.32740
           R2           0.00000   0.02721
           A1           0.00000   0.00000   0.00230
           A2           0.00000   0.00000   0.00000   0.00230
 ITU=  0
     Eigenvalues ---    0.00230   0.00230   0.02721   3.32740
 RFO step:  Lambda=-1.36298625D-01 EMin= 2.30000000D-03
 Linear search not attempted -- first point.
 Maximum step size (   0.300) exceeded in Quadratic search.
    -- Step size scaled by   0.564
 Iteration  1 RMS(Cart)=  0.07076430 RMS(Int)=  0.04256912
 Iteration  2 RMS(Cart)=  0.03475754 RMS(Int)=  0.00000000
 Iteration  3 RMS(Cart)=  0.00000000 RMS(Int)=  0.00000000
 ClnCor:  largest displacement from symmetrization is 1.04D-16 for atom     1.
 Variable       Old X    -DE/DX   Delta X   Delta X   Delta X     New X
                                 (Linear)    (Quad)   (Total)
    R1        1.88973   0.57231   0.00000   0.09325   0.09325   1.98298
    R2        4.34637  -0.08261   0.00000  -0.28514  -0.28514   4.06123
    A1        3.14159   0.00000   0.00000   0.00000   0.00000   3.14159
    A2        3.14159   0.00000   0.00000   0.00000   0.00000   3.14159
         Item               Value     Threshold  Converged?
 Maximum Force            0.572310     0.000015     NO 
 RMS     Force            0.289121     0.000010     NO 
 Maximum Displacement     0.159008     0.000060     NO 
 RMS     Displacement     0.102802     0.000040     NO 
 Predicted change in Energy=-6.135049D-02
 GradGradGradGradGradGradGradGradGradGradGradGradGradGradGradGradGradGrad

                          Input orientation:                          
 ---------------------------------------------------------------------
 Center     Atomic      Atomic             Coordinates (Angstroms)
 Number     Number       Type             X           Y           Z
 ---------------------------------------------------------------------
      1          7           0        0.000000    0.000000    0.017398
      2          6           0        0.000000    0.000000    1.066745
      3          1           0        0.000000    0.000000    3.215857
 ---------------------------------------------------------------------
                    Distance matrix (angstroms):
                    1          2          3
     1  N    0.000000
     2  C    1.049348   0.000000
     3  H    3.198459   2.149111   0.000000
 Stoichiometry    CHN
 Framework group  C*V[C*(HCN)]
 Deg. of freedom     2
 Full point group                 C*V     NOp   4
 Largest Abelian subgroup         C2V     NOp   4
 Largest concise Abelian subgroup C1      NOp   1
                         Standard orientation:                         
 ---------------------------------------------------------------------
 Center     Atomic      Atomic             Coordinates (Angstroms)
 Number     Number       Type             X           Y           Z
 ---------------------------------------------------------------------
      1          7           0        0.000000    0.000000    0.678182
      2          6           0        0.000000    0.000000   -0.371166
      3          1           0        0.000000    0.000000   -2.520277
 ---------------------------------------------------------------------
 Rotational constants (GHZ):      0.0000000     35.4322930     35.4322930
 Standard basis: 6-311G(d) (5D, 7F)
 There are    23 symmetry adapted cartesian basis functions of A1  symmetry.
 There are     2 symmetry adapted cartesian basis functions of A2  symmetry.
 There are     8 symmetry adapted cartesian basis functions of B1  symmetry.
 There are     8 symmetry adapted cartesian basis functions of B2  symmetry.
 There are    21 symmetry adapted basis functions of A1  symmetry.
 There are     2 symmetry adapted basis functions of A2  symmetry.
 There are     8 symmetry adapted basis functions of B1  symmetry.
 There are     8 symmetry adapted basis functions of B2  symmetry.
    39 basis functions,    69 primitive gaussians,    41 cartesian basis functions
     7 alpha electrons        7 beta electrons
       nuclear repulsion energy        23.8157667485 Hartrees.
 NAtoms=    3 NActive=    3 NUniq=    3 SFac= 1.00D+00 NAtFMM=   60 NAOKFM=F Big=F
 Integral buffers will be    131072 words long.
 Raffenetti 1 integral format.
 Two-electron integral symmetry is turned on.
 One-electron integrals computed using PRISM.
 NBasis=    39 RedAO= T EigKep=  9.42D-03  NBF=    21     2     8     8
 NBsUse=    39 1.00D-06 EigRej= -1.00D+00 NBFU=    21     2     8     8
 Initial guess from the checkpoint file:  "HNC1806311Gs.chk"
 B after Tr=     0.000000    0.000000    0.000000
         Rot=    1.000000    0.000000    0.000000    0.000000 Ang=   0.00 deg.
 Initial guess orbital symmetries:
       Occupied  (SG) (SG) (SG) (SG) (PI) (PI) (SG)
       Virtual   (SG) (SG) (SG) (SG) (SG) (SG) (DLTA) (SG) (SG)
                 (DLTA) (SG) (SG) (SG) (SG) (SG) (SG) (DLTA) (DLTA)
                 (PI) (PI) (PI) (PI) (PI) (PI) (PI) (PI) (PI) (PI)
                 (PI) (PI) (PI) (PI)
 ExpMin= 1.03D-01 ExpMax= 6.29D+03 ExpMxC= 9.49D+02 IAcc=1 IRadAn=         1 AccDes= 0.00D+00
 Harris functional with IExCor=  205 and IRadAn=       1 diagonalized for initial guess.
 HarFok:  IExCor=  205 AccDes= 0.00D+00 IRadAn=         1 IDoV= 1 UseB2=F ITyADJ=14
 ICtDFT=  3500011 ScaDFX=  1.000000  1.000000  1.000000  1.000000
 FoFCou: FMM=F IPFlag=           0 FMFlag=      100000 FMFlg1=           0
         NFxFlg=           0 DoJE=T BraDBF=F KetDBF=T FulRan=T
         wScrn=  0.000000 ICntrl=     500 IOpCl=  0 I1Cent=   200000004 NGrid=           0
         NMat0=    1 NMatS0=      1 NMatT0=    0 NMatD0=    1 NMtDS0=    0 NMtDT0=    0
 Petite list used in FoFCou.
 Keep R1 ints in memory in symmetry-blocked form, NReq=1161817.
 Requested convergence on RMS density matrix=1.00D-08 within 128 cycles.
 Requested convergence on MAX density matrix=1.00D-06.
 Requested convergence on             energy=1.00D-06.
 No special actions if energy rises.
 SCF Done:  E(RHF) =  -92.6617929645     A.U. after   11 cycles
            NFock= 11  Conv=0.98D-09     -V/T= 1.9976
 Calling FoFJK, ICntrl=      2127 FMM=F ISym2X=1 I1Cent= 0 IOpClX= 0 NMat=1 NMatS=1 NMatT=0.
 ***** Axes restored to original set *****
 -------------------------------------------------------------------
 Center     Atomic                   Forces (Hartrees/Bohr)
 Number     Number              X              Y              Z
 -------------------------------------------------------------------
      1        7           0.000000000    0.000000000   -0.305591968
      2        6           0.000000000    0.000000000    0.397455421
      3        1           0.000000000    0.000000000   -0.091863452
 -------------------------------------------------------------------
 Cartesian Forces:  Max     0.397455421 RMS     0.169900676

 GradGradGradGradGradGradGradGradGradGradGradGradGradGradGradGradGradGrad
 Berny optimization.
 Using GEDIIS/GDIIS optimizer.
 Internal  Forces:  Max     0.305591968 RMS     0.159550419
 Search for a local minimum.
 Step number   2 out of a maximum of   20
 All quantities printed in internal units (Hartrees-Bohrs-Radians)
 Mixed Optimization -- RFO/linear search
 Update second derivatives using D2CorX and points    1    2
 DE= -6.52D-02 DEPred=-6.14D-02 R= 1.06D+00
 TightC=F SS=  1.41D+00  RLast= 3.00D-01 DXNew= 5.0454D-01 9.0000D-01
 Trust test= 1.06D+00 RLast= 3.00D-01 DXMaxT set to 5.05D-01
 The second derivative matrix:
                          R1        R2        A1        A2
           R1           3.43598
           R2           0.18832   0.02913
           A1           0.00000   0.00000   0.00230
           A2           0.00000   0.00000   0.00000   0.00230
 ITU=  1  0
 Use linear search instead of GDIIS.
 Linear search step of   0.600 exceeds DXMaxT=   0.505 but not scaled.
 Quartic linear search produced a step of  2.00000.
 Iteration  1 RMS(Cart)=  0.07903944 RMS(Int)=  0.18513824
 Iteration  2 RMS(Cart)=  0.08164966 RMS(Int)=  0.08513824
 Iteration  3 RMS(Cart)=  0.06951508 RMS(Int)=  0.00000000
 Iteration  4 RMS(Cart)=  0.00000000 RMS(Int)=  0.00000000
 ClnCor:  largest displacement from symmetrization is 9.71D-17 for atom     1.
 Variable       Old X    -DE/DX   Delta X   Delta X   Delta X     New X
                                 (Linear)    (Quad)   (Total)
    R1        1.98298   0.30559   0.18651   0.00000   0.18651   2.16949
    R2        4.06123  -0.09186  -0.57028   0.00000  -0.57028   3.49096
    A1        3.14159   0.00000   0.00000   0.00000   0.00000   3.14159
    A2        3.14159   0.00000   0.00000   0.00000   0.00000   3.14159
         Item               Value     Threshold  Converged?
 Maximum Force            0.305592     0.000015     NO 
 RMS     Force            0.159550     0.000010     NO 
 Maximum Displacement     0.318015     0.000060     NO 
 RMS     Displacement     0.205605     0.000040     NO 
 Predicted change in Energy=-6.491621D-02
 GradGradGradGradGradGradGradGradGradGradGradGradGradGradGradGradGradGrad

                          Input orientation:                          
 ---------------------------------------------------------------------
 Center     Atomic      Atomic             Coordinates (Angstroms)
 Number     Number       Type             X           Y           Z
 ---------------------------------------------------------------------
      1          7           0        0.000000    0.000000    0.052194
      2          6           0        0.000000    0.000000    1.200236
      3          1           0        0.000000    0.000000    3.047570
 ---------------------------------------------------------------------
                    Distance matrix (angstroms):
                    1          2          3
     1  N    0.000000
     2  C    1.148043   0.000000
     3  H    2.995377   1.847334   0.000000
 Stoichiometry    CHN
 Framework group  C*V[C*(HCN)]
 Deg. of freedom     2
 Full point group                 C*V     NOp   4
 Largest Abelian subgroup         C2V     NOp   4
 Largest concise Abelian subgroup C1      NOp   1
                         Standard orientation:                         
 ---------------------------------------------------------------------
 Center     Atomic      Atomic             Coordinates (Angstroms)
 Number     Number       Type             X           Y           Z
 ---------------------------------------------------------------------
      1          7           0        0.000000    0.000000    0.705974
      2          6           0        0.000000    0.000000   -0.442069
      3          1           0        0.000000    0.000000   -2.289403
 ---------------------------------------------------------------------
 Rotational constants (GHZ):      0.0000000     35.0587368     35.0587368
 Standard basis: 6-311G(d) (5D, 7F)
 There are    23 symmetry adapted cartesian basis functions of A1  symmetry.
 There are     2 symmetry adapted cartesian basis functions of A2  symmetry.
 There are     8 symmetry adapted cartesian basis functions of B1  symmetry.
 There are     8 symmetry adapted cartesian basis functions of B2  symmetry.
 There are    21 symmetry adapted basis functions of A1  symmetry.
 There are     2 symmetry adapted basis functions of A2  symmetry.
 There are     8 symmetry adapted basis functions of B1  symmetry.
 There are     8 symmetry adapted basis functions of B2  symmetry.
    39 basis functions,    69 primitive gaussians,    41 cartesian basis functions
     7 alpha electrons        7 beta electrons
       nuclear repulsion energy        22.3148030273 Hartrees.
 NAtoms=    3 NActive=    3 NUniq=    3 SFac= 1.00D+00 NAtFMM=   60 NAOKFM=F Big=F
 Integral buffers will be    131072 words long.
 Raffenetti 1 integral format.
 Two-electron integral symmetry is turned on.
 One-electron integrals computed using PRISM.
 NBasis=    39 RedAO= T EigKep=  1.19D-02  NBF=    21     2     8     8
 NBsUse=    39 1.00D-06 EigRej= -1.00D+00 NBFU=    21     2     8     8
 Initial guess from the checkpoint file:  "HNC1806311Gs.chk"
 B after Tr=     0.000000    0.000000    0.000000
         Rot=    1.000000    0.000000    0.000000    0.000000 Ang=   0.00 deg.
 Initial guess orbital symmetries:
       Occupied  (SG) (SG) (SG) (SG) (PI) (PI) (SG)
       Virtual   (SG) (SG) (SG) (SG) (SG) (SG) (SG) (DLTA) (SG)
                 (DLTA) (SG) (SG) (SG) (SG) (SG) (SG) (DLTA) (DLTA)
                 (PI) (PI) (PI) (PI) (PI) (PI) (PI) (PI) (PI) (PI)
                 (PI) (PI) (PI) (PI)
 ExpMin= 1.03D-01 ExpMax= 6.29D+03 ExpMxC= 9.49D+02 IAcc=1 IRadAn=         1 AccDes= 0.00D+00
 Harris functional with IExCor=  205 and IRadAn=       1 diagonalized for initial guess.
 HarFok:  IExCor=  205 AccDes= 0.00D+00 IRadAn=         1 IDoV= 1 UseB2=F ITyADJ=14
 ICtDFT=  3500011 ScaDFX=  1.000000  1.000000  1.000000  1.000000
 FoFCou: FMM=F IPFlag=           0 FMFlag=      100000 FMFlg1=           0
         NFxFlg=           0 DoJE=T BraDBF=F KetDBF=T FulRan=T
         wScrn=  0.000000 ICntrl=     500 IOpCl=  0 I1Cent=   200000004 NGrid=           0
         NMat0=    1 NMatS0=      1 NMatT0=    0 NMatD0=    1 NMtDS0=    0 NMtDT0=    0
 Petite list used in FoFCou.
 Keep R1 ints in memory in symmetry-blocked form, NReq=1161817.
 Requested convergence on RMS density matrix=1.00D-08 within 128 cycles.
 Requested convergence on MAX density matrix=1.00D-06.
 Requested convergence on             energy=1.00D-06.
 No special actions if energy rises.
 SCF Done:  E(RHF) =  -92.7408365696     A.U. after   12 cycles
            NFock= 12  Conv=0.11D-08     -V/T= 2.0052
 Calling FoFJK, ICntrl=      2127 FMM=F ISym2X=1 I1Cent= 0 IOpClX= 0 NMat=1 NMatS=1 NMatT=0.
 ***** Axes restored to original set *****
 -------------------------------------------------------------------
 Center     Atomic                   Forces (Hartrees/Bohr)
 Number     Number              X              Y              Z
 -------------------------------------------------------------------
      1        7           0.000000000    0.000000000    0.044724837
      2        6           0.000000000    0.000000000    0.066262773
      3        1           0.000000000    0.000000000   -0.110987610
 -------------------------------------------------------------------
 Cartesian Forces:  Max     0.110987610 RMS     0.045594000

 GradGradGradGradGradGradGradGradGradGradGradGradGradGradGradGradGradGrad
 Berny optimization.
 Using GEDIIS/GDIIS optimizer.
 Internal  Forces:  Max     0.110987610 RMS     0.059830094
 Search for a local minimum.
 Step number   3 out of a maximum of   20
 All quantities printed in internal units (Hartrees-Bohrs-Radians)
 Mixed Optimization -- RFO/linear search
 Update second derivatives using D2CorX and points    2    3
 The second derivative matrix:
                          R1        R2        A1        A2
           R1           2.49097
           R2           0.20037   0.03200
           A1           0.00000   0.00000   0.00230
           A2           0.00000   0.00000   0.00000   0.00230
 ITU=  0  1  0
 Use linear search instead of GDIIS.
 Linear search step of   1.200 exceeds DXMaxT=   0.505 scaled by   0.841
 Quartic linear search produced a step of  1.68179.
 Iteration  1 RMS(Cart)=  0.08164966 RMS(Int)=  0.38377493
 Iteration  2 RMS(Cart)=  0.07093042 RMS(Int)=  0.27954345
 Iteration  3 RMS(Cart)=  0.08164966 RMS(Int)=  0.17954345
 Iteration  4 RMS(Cart)=  0.08164966 RMS(Int)=  0.07954345
 Iteration  5 RMS(Cart)=  0.06494695 RMS(Int)=  0.00000000
 Iteration  6 RMS(Cart)=  0.00000000 RMS(Int)=  0.00000000
 ClnCor:  largest displacement from symmetrization is 2.78D-17 for atom     1.
 Variable       Old X    -DE/DX   Delta X   Delta X   Delta X     New X
                                 (Linear)    (Quad)   (Total)
    R1        2.16949  -0.04472   0.31367   0.00000   0.31367   2.48315
    R2        3.49096  -0.11099  -0.95909   0.00000  -0.95909   2.53187
    A1        3.14159   0.00000   0.00000   0.00000   0.00000   3.14159
    A2        3.14159   0.00000   0.00000   0.00000   0.00000   3.14159
         Item               Value     Threshold  Converged?
 Maximum Force            0.110988     0.000015     NO 
 RMS     Force            0.059830     0.000010     NO 
 Maximum Displacement     0.534836     0.000060     NO 
 RMS     Displacement     0.345784     0.000040     NO 
 Predicted change in Energy=-1.544197D-02
 GradGradGradGradGradGradGradGradGradGradGradGradGradGradGradGradGradGrad

                          Input orientation:                          
 ---------------------------------------------------------------------
 Center     Atomic      Atomic             Coordinates (Angstroms)
 Number     Number       Type             X           Y           Z
 ---------------------------------------------------------------------
      1          7           0        0.000000    0.000000    0.110713
      2          6           0        0.000000    0.000000    1.424740
      3          1           0        0.000000    0.000000    2.764547
 ---------------------------------------------------------------------
                    Distance matrix (angstroms):
                    1          2          3
     1  N    0.000000
     2  C    1.314027   0.000000
     3  H    2.653834   1.339807   0.000000
 Stoichiometry    CHN
 Framework group  C*V[C*(HCN)]
 Deg. of freedom     2
 Full point group                 C*V     NOp   4
 Largest Abelian subgroup         C2V     NOp   4
 Largest concise Abelian subgroup C1      NOp   1
                         Standard orientation:                         
 ---------------------------------------------------------------------
 Center     Atomic      Atomic             Coordinates (Angstroms)
 Number     Number       Type             X           Y           Z
 ---------------------------------------------------------------------
      1          7           0        0.000000    0.000000    0.752714
      2          6           0        0.000000    0.000000   -0.561313
      3          1           0        0.000000    0.000000   -1.901120
 ---------------------------------------------------------------------
 Rotational constants (GHZ):      0.0000000     33.1935739     33.1935739
 Standard basis: 6-311G(d) (5D, 7F)
 There are    23 symmetry adapted cartesian basis functions of A1  symmetry.
 There are     2 symmetry adapted cartesian basis functions of A2  symmetry.
 There are     8 symmetry adapted cartesian basis functions of B1  symmetry.
 There are     8 symmetry adapted cartesian basis functions of B2  symmetry.
 There are    21 symmetry adapted basis functions of A1  symmetry.
 There are     2 symmetry adapted basis functions of A2  symmetry.
 There are     8 symmetry adapted basis functions of B1  symmetry.
 There are     8 symmetry adapted basis functions of B2  symmetry.
    39 basis functions,    69 primitive gaussians,    41 cartesian basis functions
     7 alpha electrons        7 beta electrons
       nuclear repulsion energy        20.6795870875 Hartrees.
 NAtoms=    3 NActive=    3 NUniq=    3 SFac= 1.00D+00 NAtFMM=   60 NAOKFM=F Big=F
 Integral buffers will be    131072 words long.
 Raffenetti 1 integral format.
 Two-electron integral symmetry is turned on.
 One-electron integrals computed using PRISM.
 NBasis=    39 RedAO= T EigKep=  1.59D-02  NBF=    21     2     8     8
 NBsUse=    39 1.00D-06 EigRej= -1.00D+00 NBFU=    21     2     8     8
 Initial guess from the checkpoint file:  "HNC1806311Gs.chk"
 B after Tr=     0.000000    0.000000    0.000000
         Rot=    1.000000    0.000000    0.000000    0.000000 Ang=   0.00 deg.
 Initial guess orbital symmetries:
       Occupied  (SG) (SG) (SG) (SG) (SG) (PI) (PI)
       Virtual   (SG) (SG) (SG) (SG) (SG) (SG) (SG) (DLTA) (SG)
                 (DLTA) (SG) (SG) (SG) (SG) (SG) (SG) (DLTA) (DLTA)
                 (PI) (PI) (PI) (PI) (PI) (PI) (PI) (PI) (PI) (PI)
                 (PI) (PI) (PI) (PI)
 ExpMin= 1.03D-01 ExpMax= 6.29D+03 ExpMxC= 9.49D+02 IAcc=1 IRadAn=         1 AccDes= 0.00D+00
 Harris functional with IExCor=  205 and IRadAn=       1 diagonalized for initial guess.
 HarFok:  IExCor=  205 AccDes= 0.00D+00 IRadAn=         1 IDoV= 1 UseB2=F ITyADJ=14
 ICtDFT=  3500011 ScaDFX=  1.000000  1.000000  1.000000  1.000000
 FoFCou: FMM=F IPFlag=           0 FMFlag=      100000 FMFlg1=           0
         NFxFlg=           0 DoJE=T BraDBF=F KetDBF=T FulRan=T
         wScrn=  0.000000 ICntrl=     500 IOpCl=  0 I1Cent=   200000004 NGrid=           0
         NMat0=    1 NMatS0=      1 NMatT0=    0 NMatD0=    1 NMtDS0=    0 NMtDT0=    0
 Petite list used in FoFCou.
 Keep R1 ints in memory in symmetry-blocked form, NReq=1161901.
 Requested convergence on RMS density matrix=1.00D-08 within 128 cycles.
 Requested convergence on MAX density matrix=1.00D-06.
 Requested convergence on             energy=1.00D-06.
 No special actions if energy rises.
 SCF Done:  E(RHF) =  -92.7919027551     A.U. after   12 cycles
            NFock= 12  Conv=0.23D-08     -V/T= 2.0109
 Calling FoFJK, ICntrl=      2127 FMM=F ISym2X=1 I1Cent= 0 IOpClX= 0 NMat=1 NMatS=1 NMatT=0.
 ***** Axes restored to original set *****
 -------------------------------------------------------------------
 Center     Atomic                   Forces (Hartrees/Bohr)
 Number     Number              X              Y              Z
 -------------------------------------------------------------------
      1        7           0.000000000    0.000000000    0.311728347
      2        6           0.000000000    0.000000000   -0.199729322
      3        1           0.000000000    0.000000000   -0.111999025
 -------------------------------------------------------------------
 Cartesian Forces:  Max     0.311728347 RMS     0.128931569

 GradGradGradGradGradGradGradGradGradGradGradGradGradGradGradGradGradGrad
 Berny optimization.
 Using GEDIIS/GDIIS optimizer.
 Internal  Forces:  Max     0.311728347 RMS     0.165618797
 Search for a local minimum.
 Step number   4 out of a maximum of   20
 All quantities printed in internal units (Hartrees-Bohrs-Radians)
 Mixed Optimization -- RFO/linear search
 Update second derivatives using D2CorX and points    3    4
 The second derivative matrix:
                          R1        R2        A1        A2
           R1           1.09753
           R2           0.08055   0.02529
           A1           0.00000   0.00000   0.00230
           A2           0.00000   0.00000   0.00000   0.00230
 ITU=  0  0  1  0
 Use linear search instead of GDIIS.
     Eigenvalues ---    0.00230   0.00230   0.01927   1.10354
 RFO step:  Lambda=-1.43869428D-01 EMin= 2.30000000D-03
 Quartic linear search produced a step of  0.11608.
 Maximum step size (   0.505) exceeded in Quadratic search.
    -- Step size scaled by   0.843
 Iteration  1 RMS(Cart)=  0.12970086 RMS(Int)=  0.18666914
 Iteration  2 RMS(Cart)=  0.08164966 RMS(Int)=  0.08666914
 Iteration  3 RMS(Cart)=  0.07076505 RMS(Int)=  0.00000000
 Iteration  4 RMS(Cart)=  0.00000000 RMS(Int)=  0.00000000
 ClnCor:  largest displacement from symmetrization is 0.00D+00 for atom     0.
 Variable       Old X    -DE/DX   Delta X   Delta X   Delta X     New X
                                 (Linear)    (Quad)   (Total)
    R1        2.48315  -0.31173   0.03641  -0.20274  -0.16633   2.31682
    R2        2.53187  -0.11200  -0.11133  -0.46201  -0.57334   1.95853
    A1        3.14159   0.00000   0.00000   0.00000   0.00000   3.14159
    A2        3.14159   0.00000   0.00000   0.00000   0.00000   3.14159
         Item               Value     Threshold  Converged?
 Maximum Force            0.311728     0.000015     NO 
 RMS     Force            0.165619     0.000010     NO 
 Maximum Displacement     0.437670     0.000060     NO 
 RMS     Displacement     0.274393     0.000040     NO 
 Predicted change in Energy=-8.904381D-02
 GradGradGradGradGradGradGradGradGradGradGradGradGradGradGradGradGradGrad

                          Input orientation:                          
 ---------------------------------------------------------------------
 Center     Atomic      Atomic             Coordinates (Angstroms)
 Number     Number       Type             X           Y           Z
 ---------------------------------------------------------------------
      1          7           0        0.000000    0.000000    0.270525
      2          6           0        0.000000    0.000000    1.496532
      3          1           0        0.000000    0.000000    2.532942
 ---------------------------------------------------------------------
                    Distance matrix (angstroms):
                    1          2          3
     1  N    0.000000
     2  C    1.226007   0.000000
     3  H    2.262417   1.036410   0.000000
 Stoichiometry    CHN
 Framework group  C*V[C*(HCN)]
 Deg. of freedom     2
 Full point group                 C*V     NOp   4
 Largest Abelian subgroup         C2V     NOp   4
 Largest concise Abelian subgroup C1      NOp   1
                         Standard orientation:                         
 ---------------------------------------------------------------------
 Center     Atomic      Atomic             Coordinates (Angstroms)
 Number     Number       Type             X           Y           Z
 ---------------------------------------------------------------------
      1          7           0        0.000000    0.000000    0.687033
      2          6           0        0.000000    0.000000   -0.538974
      3          1           0        0.000000    0.000000   -1.575384
 ---------------------------------------------------------------------
 Rotational constants (GHZ):      0.0000000     40.4105148     40.4105148
 Standard basis: 6-311G(d) (5D, 7F)
 There are    23 symmetry adapted cartesian basis functions of A1  symmetry.
 There are     2 symmetry adapted cartesian basis functions of A2  symmetry.
 There are     8 symmetry adapted cartesian basis functions of B1  symmetry.
 There are     8 symmetry adapted cartesian basis functions of B2  symmetry.
 There are    21 symmetry adapted basis functions of A1  symmetry.
 There are     2 symmetry adapted basis functions of A2  symmetry.
 There are     8 symmetry adapted basis functions of B1  symmetry.
 There are     8 symmetry adapted basis functions of B2  symmetry.
    39 basis functions,    69 primitive gaussians,    41 cartesian basis functions
     7 alpha electrons        7 beta electrons
       nuclear repulsion energy        22.8291311419 Hartrees.
 NAtoms=    3 NActive=    3 NUniq=    3 SFac= 1.00D+00 NAtFMM=   60 NAOKFM=F Big=F
 Integral buffers will be    131072 words long.
 Raffenetti 1 integral format.
 Two-electron integral symmetry is turned on.
 One-electron integrals computed using PRISM.
 NBasis=    39 RedAO= T EigKep=  1.15D-02  NBF=    21     2     8     8
 NBsUse=    39 1.00D-06 EigRej= -1.00D+00 NBFU=    21     2     8     8
 Initial guess from the checkpoint file:  "HNC1806311Gs.chk"
 B after Tr=     0.000000    0.000000    0.000000
         Rot=    1.000000    0.000000    0.000000    0.000000 Ang=   0.00 deg.
 Initial guess orbital symmetries:
       Occupied  (SG) (SG) (SG) (SG) (SG) (PI) (PI)
       Virtual   (SG) (SG) (SG) (SG) (SG) (SG) (SG) (DLTA) (DLTA)
                 (SG) (SG) (SG) (SG) (SG) (SG) (SG) (DLTA) (DLTA)
                 (PI) (PI) (PI) (PI) (PI) (PI) (PI) (PI) (PI) (PI)
                 (PI) (PI) (PI) (PI)
 ExpMin= 1.03D-01 ExpMax= 6.29D+03 ExpMxC= 9.49D+02 IAcc=1 IRadAn=         1 AccDes= 0.00D+00
 Harris functional with IExCor=  205 and IRadAn=       1 diagonalized for initial guess.
 HarFok:  IExCor=  205 AccDes= 0.00D+00 IRadAn=         1 IDoV= 1 UseB2=F ITyADJ=14
 ICtDFT=  3500011 ScaDFX=  1.000000  1.000000  1.000000  1.000000
 FoFCou: FMM=F IPFlag=           0 FMFlag=      100000 FMFlg1=           0
         NFxFlg=           0 DoJE=T BraDBF=F KetDBF=T FulRan=T
         wScrn=  0.000000 ICntrl=     500 IOpCl=  0 I1Cent=   200000004 NGrid=           0
         NMat0=    1 NMatS0=      1 NMatT0=    0 NMatD0=    1 NMtDS0=    0 NMtDT0=    0
 Petite list used in FoFCou.
 Keep R1 ints in memory in symmetry-blocked form, NReq=1162002.
 Requested convergence on RMS density matrix=1.00D-08 within 128 cycles.
 Requested convergence on MAX density matrix=1.00D-06.
 Requested convergence on             energy=1.00D-06.
 No special actions if energy rises.
 SCF Done:  E(RHF) =  -92.8739452828     A.U. after   11 cycles
            NFock= 11  Conv=0.53D-08     -V/T= 2.0046
 Calling FoFJK, ICntrl=      2127 FMM=F ISym2X=1 I1Cent= 0 IOpClX= 0 NMat=1 NMatS=1 NMatT=0.
 ***** Axes restored to original set *****
 -------------------------------------------------------------------
 Center     Atomic                   Forces (Hartrees/Bohr)
 Number     Number              X              Y              Z
 -------------------------------------------------------------------
      1        7           0.000000000    0.000000000    0.218125224
      2        6           0.000000000    0.000000000   -0.240418058
      3        1           0.000000000    0.000000000    0.022292834
 -------------------------------------------------------------------
 Cartesian Forces:  Max     0.240418058 RMS     0.108462194

 GradGradGradGradGradGradGradGradGradGradGradGradGradGradGradGradGradGrad
 Berny optimization.
 Using GEDIIS/GDIIS optimizer.
 Internal  Forces:  Max     0.218125224 RMS     0.109630726
 Search for a local minimum.
 Step number   5 out of a maximum of   20
 All quantities printed in internal units (Hartrees-Bohrs-Radians)
 Mixed Optimization -- RFO/linear search
 Update second derivatives using D2CorX and points    4    5
 DE= -8.20D-02 DEPred=-8.90D-02 R= 9.21D-01
 TightC=F SS=  1.41D+00  RLast= 5.97D-01 DXNew= 8.4853D-01 1.7909D+00
 Trust test= 9.21D-01 RLast= 5.97D-01 DXMaxT set to 8.49D-01
 The second derivative matrix:
                          R1        R2        A1        A2
           R1           0.22401
           R2           0.09827   0.20572
           A1           0.00000   0.00000   0.00230
           A2           0.00000   0.00000   0.00000   0.00230
 ITU=  1  0  0  1  0
 Use linear search instead of GDIIS.
     Eigenvalues ---    0.00230   0.00230   0.11617   0.31356
 RFO step:  Lambda=-1.46906289D-01 EMin= 2.30000000D-03
 Quartic linear search produced a step of  0.12388.
 Iteration  1 RMS(Cart)=  0.08164966 RMS(Int)=  0.22909024
 Iteration  2 RMS(Cart)=  0.07173324 RMS(Int)=  0.12636691
 Iteration  3 RMS(Cart)=  0.08164966 RMS(Int)=  0.02636691
 Iteration  4 RMS(Cart)=  0.02152850 RMS(Int)=  0.00000000
 Iteration  5 RMS(Cart)=  0.00000000 RMS(Int)=  0.00000001
 ClnCor:  largest displacement from symmetrization is 0.00D+00 for atom     0.
 Variable       Old X    -DE/DX   Delta X   Delta X   Delta X     New X
                                 (Linear)    (Quad)   (Total)
    R1        2.31682  -0.21813  -0.02060  -0.63213  -0.65273   1.66408
    R2        1.95853   0.02229  -0.07102   0.34146   0.27044   2.22897
    A1        3.14159   0.00000   0.00000   0.00000   0.00000   3.14159
    A2        3.14159   0.00000   0.00000   0.00000   0.00000   3.14159
         Item               Value     Threshold  Converged?
 Maximum Force            0.218125     0.000015     NO 
 RMS     Force            0.109631     0.000010     NO 
 Maximum Displacement     0.345010     0.000060     NO 
 RMS     Displacement     0.231903     0.000040     NO 
 Predicted change in Energy=-1.105091D-01
 GradGradGradGradGradGradGradGradGradGradGradGradGradGradGradGradGradGrad

                          Input orientation:                          
 ---------------------------------------------------------------------
 Center     Atomic      Atomic             Coordinates (Angstroms)
 Number     Number       Type             X           Y           Z
 ---------------------------------------------------------------------
      1          7           0        0.000000    0.000000    0.453097
      2          6           0        0.000000    0.000000    1.333692
      3          1           0        0.000000    0.000000    2.513211
 ---------------------------------------------------------------------
                    Distance matrix (angstroms):
                    1          2          3
     1  N    0.000000
     2  C    0.880595   0.000000
     3  H    2.060114   1.179519   0.000000
 Stoichiometry    CHN
 Framework group  C*V[C*(HCN)]
 Deg. of freedom     2
 Full point group                 C*V     NOp   4
 Largest Abelian subgroup         C2V     NOp   4
 Largest concise Abelian subgroup C1      NOp   1
                         Standard orientation:                         
 ---------------------------------------------------------------------
 Center     Atomic      Atomic             Coordinates (Angstroms)
 Number     Number       Type             X           Y           Z
 ---------------------------------------------------------------------
      1          7           0        0.000000    0.000000    0.524549
      2          6           0        0.000000    0.000000   -0.356046
      3          1           0        0.000000    0.000000   -1.535565
 ---------------------------------------------------------------------
 Rotational constants (GHZ):      0.0000000     65.9377306     65.9377306
 Standard basis: 6-311G(d) (5D, 7F)
 There are    23 symmetry adapted cartesian basis functions of A1  symmetry.
 There are     2 symmetry adapted cartesian basis functions of A2  symmetry.
 There are     8 symmetry adapted cartesian basis functions of B1  symmetry.
 There are     8 symmetry adapted cartesian basis functions of B2  symmetry.
 There are    21 symmetry adapted basis functions of A1  symmetry.
 There are     2 symmetry adapted basis functions of A2  symmetry.
 There are     8 symmetry adapted basis functions of B1  symmetry.
 There are     8 symmetry adapted basis functions of B2  symmetry.
    39 basis functions,    69 primitive gaussians,    41 cartesian basis functions
     7 alpha electrons        7 beta electrons
       nuclear repulsion energy        29.7290190534 Hartrees.
 NAtoms=    3 NActive=    3 NUniq=    3 SFac= 1.00D+00 NAtFMM=   60 NAOKFM=F Big=F
 Integral buffers will be    131072 words long.
 Raffenetti 1 integral format.
 Two-electron integral symmetry is turned on.
 One-electron integrals computed using PRISM.
 NBasis=    39 RedAO= T EigKep=  4.56D-03  NBF=    21     2     8     8
 NBsUse=    39 1.00D-06 EigRej= -1.00D+00 NBFU=    21     2     8     8
 Initial guess from the checkpoint file:  "HNC1806311Gs.chk"
 B after Tr=     0.000000    0.000000    0.000000
         Rot=    1.000000    0.000000    0.000000    0.000000 Ang=   0.00 deg.
 Initial guess orbital symmetries:
       Occupied  (SG) (SG) (SG) (SG) (SG) (PI) (PI)
       Virtual   (SG) (SG) (SG) (SG) (SG) (DLTA) (SG) (SG) (SG)
                 (DLTA) (SG) (SG) (SG) (SG) (SG) (SG) (DLTA) (DLTA)
                 (PI) (PI) (PI) (PI) (PI) (PI) (PI) (PI) (PI) (PI)
                 (PI) (PI) (PI) (PI)
 ExpMin= 1.03D-01 ExpMax= 6.29D+03 ExpMxC= 9.49D+02 IAcc=1 IRadAn=         1 AccDes= 0.00D+00
 Harris functional with IExCor=  205 and IRadAn=       1 diagonalized for initial guess.
 HarFok:  IExCor=  205 AccDes= 0.00D+00 IRadAn=         1 IDoV= 1 UseB2=F ITyADJ=14
 ICtDFT=  3500011 ScaDFX=  1.000000  1.000000  1.000000  1.000000
 FoFCou: FMM=F IPFlag=           0 FMFlag=      100000 FMFlg1=           0
         NFxFlg=           0 DoJE=T BraDBF=F KetDBF=T FulRan=T
         wScrn=  0.000000 ICntrl=     500 IOpCl=  0 I1Cent=   200000004 NGrid=           0
         NMat0=    1 NMatS0=      1 NMatT0=    0 NMatD0=    1 NMtDS0=    0 NMtDT0=    0
 Petite list used in FoFCou.
 Keep R1 ints in memory in symmetry-blocked form, NReq=1162151.
 Requested convergence on RMS density matrix=1.00D-08 within 128 cycles.
 Requested convergence on MAX density matrix=1.00D-06.
 Requested convergence on             energy=1.00D-06.
 No special actions if energy rises.
 SCF Done:  E(RHF) =  -92.5954518852     A.U. after   10 cycles
            NFock= 10  Conv=0.81D-08     -V/T= 1.9739
 Calling FoFJK, ICntrl=      2127 FMM=F ISym2X=1 I1Cent= 0 IOpClX= 0 NMat=1 NMatS=1 NMatT=0.
 ***** Axes restored to original set *****
 -------------------------------------------------------------------
 Center     Atomic                   Forces (Hartrees/Bohr)
 Number     Number              X              Y              Z
 -------------------------------------------------------------------
      1        7           0.000000000    0.000000000   -1.623415387
      2        6           0.000000000    0.000000000    1.702054195
      3        1           0.000000000    0.000000000   -0.078638808
 -------------------------------------------------------------------
 Cartesian Forces:  Max     1.702054195 RMS     0.784477892

 GradGradGradGradGradGradGradGradGradGradGradGradGradGradGradGradGradGrad
 Berny optimization.
 Using GEDIIS/GDIIS optimizer.
 Internal  Forces:  Max     1.623415387 RMS     0.812659459
 Search for a local minimum.
 Step number   6 out of a maximum of   20
 All quantities printed in internal units (Hartrees-Bohrs-Radians)
 Mixed Optimization -- RFO/linear search
 Update second derivatives using D2CorX and points    4    6    5
 DE=  2.78D-01 DEPred=-1.11D-01 R=-2.52D+00
 Trust test=-2.52D+00 RLast= 7.07D-01 DXMaxT set to 4.24D-01
 The second derivative matrix:
                          R1        R2        A1        A2
           R1           2.79378
           R2          -0.06636   0.21305
           A1           0.00000   0.00000   0.00230
           A2           0.00000   0.00000   0.00000   0.00230
 ITU= -1  1  0  0  1
 Use linear search instead of GDIIS.
     Eigenvalues ---    0.00230   0.00230   0.21134   2.79548
 RFO step:  Lambda=-4.95913755D-02 EMin= 2.30000000D-03
 Quartic linear search produced a step of -0.69924.
 Maximum step size (   0.424) exceeded in Quadratic search.
    -- Step size scaled by   0.979
 Iteration  1 RMS(Cart)=  0.14142136 RMS(Int)=  0.14217231
 Iteration  2 RMS(Cart)=  0.08949549 RMS(Int)=  0.04112955
 Iteration  3 RMS(Cart)=  0.03358214 RMS(Int)=  0.00000000
 Iteration  4 RMS(Cart)=  0.00000000 RMS(Int)=  0.00000000
 ClnCor:  largest displacement from symmetrization is 1.39D-07 for atom     2.
 Variable       Old X    -DE/DX   Delta X   Delta X   Delta X     New X
                                 (Linear)    (Quad)   (Total)
    R1        1.66408   1.62342   0.45642   0.02584   0.48226   2.14634
    R2        2.22897  -0.07864  -0.18910   0.42348   0.23438   2.46334
    A1        3.14159   0.00000   0.00000   0.00000   0.00000   3.14159
    A2        3.14159   0.00000   0.00000   0.00000   0.00000   3.14159
         Item               Value     Threshold  Converged?
 Maximum Force            1.623415     0.000015     NO 
 RMS     Force            0.812659     0.000010     NO 
 Maximum Displacement     0.399631     0.000060     NO 
 RMS     Displacement     0.258372     0.000040     NO 
 Predicted change in Energy=-1.627514D-01
 GradGradGradGradGradGradGradGradGradGradGradGradGradGradGradGradGradGrad

                          Input orientation:                          
 ---------------------------------------------------------------------
 Center     Atomic      Atomic             Coordinates (Angstroms)
 Number     Number       Type             X           Y           Z
 ---------------------------------------------------------------------
      1          7           0        0.000000    0.000000    0.241621
      2          6           0        0.000000    0.000000    1.377417
      3          1           0        0.000000    0.000000    2.680962
 ---------------------------------------------------------------------
                    Distance matrix (angstroms):
                    1          2          3
     1  N    0.000000
     2  C    1.135796   0.000000
     3  H    2.439341   1.303545   0.000000
 Stoichiometry    CHN
 Framework group  C*V[C*(HCN)]
 Deg. of freedom     2
 Full point group                 C*V     NOp   4
 Largest Abelian subgroup         C2V     NOp   4
 Largest concise Abelian subgroup C1      NOp   1
                         Standard orientation:                         
 ---------------------------------------------------------------------
 Center     Atomic      Atomic             Coordinates (Angstroms)
 Number     Number       Type             X           Y           Z
 ---------------------------------------------------------------------
      1          7           0        0.000000    0.000000    0.661008
      2          6           0        0.000000    0.000000   -0.474788
      3          1           0        0.000000    0.000000   -1.778332
 ---------------------------------------------------------------------
 Rotational constants (GHZ):      0.0000000     42.4861110     42.4861110
 Standard basis: 6-311G(d) (5D, 7F)
 There are    23 symmetry adapted cartesian basis functions of A1  symmetry.
 There are     2 symmetry adapted cartesian basis functions of A2  symmetry.
 There are     8 symmetry adapted cartesian basis functions of B1  symmetry.
 There are     8 symmetry adapted cartesian basis functions of B2  symmetry.
 There are    21 symmetry adapted basis functions of A1  symmetry.
 There are     2 symmetry adapted basis functions of A2  symmetry.
 There are     8 symmetry adapted basis functions of B1  symmetry.
 There are     8 symmetry adapted basis functions of B2  symmetry.
    39 basis functions,    69 primitive gaussians,    41 cartesian basis functions
     7 alpha electrons        7 beta electrons
       nuclear repulsion energy        23.5224255043 Hartrees.
 NAtoms=    3 NActive=    3 NUniq=    3 SFac= 1.00D+00 NAtFMM=   60 NAOKFM=F Big=F
 Integral buffers will be    131072 words long.
 Raffenetti 1 integral format.
 Two-electron integral symmetry is turned on.
 One-electron integrals computed using PRISM.
 NBasis=    39 RedAO= T EigKep=  9.86D-03  NBF=    21     2     8     8
 NBsUse=    39 1.00D-06 EigRej= -1.00D+00 NBFU=    21     2     8     8
 Lowest energy guess from the checkpoint file:  "HNC1806311Gs.chk"
 B after Tr=     0.000000    0.000000    0.000000
         Rot=    1.000000    0.000000    0.000000    0.000000 Ang=   0.00 deg.
 B after Tr=     0.000000    0.000000    0.000000
         Rot=    1.000000    0.000000    0.000000    0.000000 Ang=   0.00 deg.
 Initial guess orbital symmetries:
       Occupied  (SG) (PI) (PI) (SG) (SG) (SG) (SG)
       Virtual   (SG) (PI) (PI) (SG) (SG) (SG) (SG) (DLTA) (SG)
                 (DLTA) (SG) (SG) (SG) (SG) (SG) (SG) (DLTA) (DLTA)
                 (?A) (PI) (?A) (PI) (?A) (PI) (PI) (?A) (PI) (?A)
                 (PI) (?A) (PI) (PI)
 Keep R1 ints in memory in symmetry-blocked form, NReq=1161989.
 Requested convergence on RMS density matrix=1.00D-08 within 128 cycles.
 Requested convergence on MAX density matrix=1.00D-06.
 Requested convergence on             energy=1.00D-06.
 No special actions if energy rises.
 An orbital has undefined symmetry, so N**3 symmetry is turned off.
 SCF Done:  E(RHF) =  -92.8653455313     A.U. after   10 cycles
            NFock= 10  Conv=0.53D-08     -V/T= 2.0032
 Calling FoFJK, ICntrl=      2127 FMM=F ISym2X=1 I1Cent= 0 IOpClX= 0 NMat=1 NMatS=1 NMatT=0.
 ***** Axes restored to original set *****
 -------------------------------------------------------------------
 Center     Atomic                   Forces (Hartrees/Bohr)
 Number     Number              X              Y              Z
 -------------------------------------------------------------------
      1        7           0.000000000    0.000000000    0.020659550
      2        6           0.000000000    0.000000000    0.089044336
      3        1           0.000000000    0.000000000   -0.109703886
 -------------------------------------------------------------------
 Cartesian Forces:  Max     0.109703886 RMS     0.047598615

 GradGradGradGradGradGradGradGradGradGradGradGradGradGradGradGradGradGrad
 Berny optimization.
 Using GEDIIS/GDIIS optimizer.
 Internal  Forces:  Max     0.109703886 RMS     0.055816126
 Search for a local minimum.
 Step number   7 out of a maximum of   20
 All quantities printed in internal units (Hartrees-Bohrs-Radians)
 Mixed Optimization -- RFO/linear search
 Update second derivatives using D2CorX and points    4    7    5
 DE=  8.60D-03 DEPred=-1.63D-01 R=-5.28D-02
 Trust test=-5.28D-02 RLast= 5.33D-01 DXMaxT set to 2.12D-01
 The second derivative matrix:
                          R1        R2        A1        A2
           R1           0.98393
           R2          -0.05889   0.24159
           A1           0.00000   0.00000   0.00230
           A2           0.00000   0.00000   0.00000   0.00230
 ITU= -1 -1  1  0  0
 Use linear search instead of GDIIS.
 Energy rises -- skip Quadratic/GDIIS search.
 Quartic linear search produced a step of -0.61611.
 Iteration  1 RMS(Cart)=  0.07074051 RMS(Int)=  0.05551065
 Iteration  2 RMS(Cart)=  0.04532425 RMS(Int)=  0.00000000
 Iteration  3 RMS(Cart)=  0.00000000 RMS(Int)=  0.00000000
 ClnCor:  largest displacement from symmetrization is 0.00D+00 for atom     0.
 Variable       Old X    -DE/DX   Delta X   Delta X   Delta X     New X
                                 (Linear)    (Quad)   (Total)
    R1        2.14634  -0.02066   0.10503   0.00000   0.10503   2.25137
    R2        2.46334  -0.10970  -0.31102   0.00000  -0.31102   2.15232
    A1        3.14159   0.00000   0.00000   0.00000   0.00000   3.14159
    A2        3.14159   0.00000   0.00000   0.00000   0.00000   3.14159
         Item               Value     Threshold  Converged?
 Maximum Force            0.109704     0.000015     NO 
 RMS     Force            0.055816     0.000010     NO 
 Maximum Displacement     0.172337     0.000060     NO 
 RMS     Displacement     0.111877     0.000040     NO 
 Predicted change in Energy=-4.314584D-03
 GradGradGradGradGradGradGradGradGradGradGradGradGradGradGradGradGradGrad

                          Input orientation:                          
 ---------------------------------------------------------------------
 Center     Atomic      Atomic             Coordinates (Angstroms)
 Number     Number       Type             X           Y           Z
 ---------------------------------------------------------------------
      1          7           0        0.000000    0.000000    0.259429
      2          6           0        0.000000    0.000000    1.450806
      3          1           0        0.000000    0.000000    2.589765
 ---------------------------------------------------------------------
                    Distance matrix (angstroms):
                    1          2          3
     1  N    0.000000
     2  C    1.191376   0.000000
     3  H    2.330336   1.138959   0.000000
 Stoichiometry    CHN
 Framework group  C*V[C*(HCN)]
 Deg. of freedom     2
 Full point group                 C*V     NOp   4
 Largest Abelian subgroup         C2V     NOp   4
 Largest concise Abelian subgroup C1      NOp   1
                         Standard orientation:                         
 ---------------------------------------------------------------------
 Center     Atomic      Atomic             Coordinates (Angstroms)
 Number     Number       Type             X           Y           Z
 ---------------------------------------------------------------------
      1          7           0        0.000000    0.000000    0.677042
      2          6           0        0.000000    0.000000   -0.514334
      3          1           0        0.000000    0.000000   -1.653293
 ---------------------------------------------------------------------
 Rotational constants (GHZ):      0.0000000     41.2615470     41.2615470
 Standard basis: 6-311G(d) (5D, 7F)
 There are    23 symmetry adapted cartesian basis functions of A1  symmetry.
 There are     2 symmetry adapted cartesian basis functions of A2  symmetry.
 There are     8 symmetry adapted cartesian basis functions of B1  symmetry.
 There are     8 symmetry adapted cartesian basis functions of B2  symmetry.
 There are    21 symmetry adapted basis functions of A1  symmetry.
 There are     2 symmetry adapted basis functions of A2  symmetry.
 There are     8 symmetry adapted basis functions of B1  symmetry.
 There are     8 symmetry adapted basis functions of B2  symmetry.
    39 basis functions,    69 primitive gaussians,    41 cartesian basis functions
     7 alpha electrons        7 beta electrons
       nuclear repulsion energy        23.0325323834 Hartrees.
 NAtoms=    3 NActive=    3 NUniq=    3 SFac= 1.00D+00 NAtFMM=   60 NAOKFM=F Big=F
 Integral buffers will be    131072 words long.
 Raffenetti 1 integral format.
 Two-electron integral symmetry is turned on.
 One-electron integrals computed using PRISM.
 NBasis=    39 RedAO= T EigKep=  1.09D-02  NBF=    21     2     8     8
 NBsUse=    39 1.00D-06 EigRej= -1.00D+00 NBFU=    21     2     8     8
 Lowest energy guess from the checkpoint file:  "HNC1806311Gs.chk"
 B after Tr=     0.000000    0.000000    0.000000
         Rot=    1.000000    0.000000    0.000000    0.000000 Ang=   0.00 deg.
 B after Tr=     0.000000    0.000000    0.000000
         Rot=    1.000000    0.000000    0.000000    0.000000 Ang=   0.00 deg.
 Initial guess orbital symmetries:
       Occupied  (SG) (SG) (PI) (PI) (SG) (SG) (SG)
       Virtual   (SG) (SG) (PI) (PI) (SG) (SG) (SG) (DLTA) (DLTA)
                 (SG) (SG) (SG) (SG) (SG) (SG) (SG) (DLTA) (DLTA)
                 (?A) (?A) (?A) (?A) (?A) (?A) (PI) (?A) (?A) (?A)
                 (?A) (?A) (?A) (PI)
 Keep R1 ints in memory in symmetry-blocked form, NReq=1162002.
 Requested convergence on RMS density matrix=1.00D-08 within 128 cycles.
 Requested convergence on MAX density matrix=1.00D-06.
 Requested convergence on             energy=1.00D-06.
 No special actions if energy rises.
 An orbital has undefined symmetry, so N**3 symmetry is turned off.
 SCF Done:  E(RHF) =  -92.8825523383     A.U. after    9 cycles
            NFock=  9  Conv=0.12D-08     -V/T= 2.0047
 Calling FoFJK, ICntrl=      2127 FMM=F ISym2X=1 I1Cent= 0 IOpClX= 0 NMat=1 NMatS=1 NMatT=0.
 ***** Axes restored to original set *****
 -------------------------------------------------------------------
 Center     Atomic                   Forces (Hartrees/Bohr)
 Number     Number              X              Y              Z
 -------------------------------------------------------------------
      1        7           0.000000000    0.000000000    0.154750115
      2        6           0.000000000    0.000000000   -0.101684084
      3        1           0.000000000    0.000000000   -0.053066031
 -------------------------------------------------------------------
 Cartesian Forces:  Max     0.154750115 RMS     0.064207351

 GradGradGradGradGradGradGradGradGradGradGradGradGradGradGradGradGradGrad
 Berny optimization.
 Using GEDIIS/GDIIS optimizer.
 Internal  Forces:  Max     0.154750115 RMS     0.081797924
 Search for a local minimum.
 Step number   8 out of a maximum of   20
 All quantities printed in internal units (Hartrees-Bohrs-Radians)
 Mixed Optimization -- RFO/linear search
 Update second derivatives using D2CorX and points    4    6    7    5    8
 The second derivative matrix:
                          R1        R2        A1        A2
           R1           1.30427
           R2           0.11342   0.42717
           A1           0.00000   0.00000   0.00230
           A2           0.00000   0.00000   0.00000   0.00230
 ITU=  0 -1 -1  1  0
 Use linear search instead of GDIIS.
     Eigenvalues ---    0.00230   0.00230   0.41274   1.31870
 RFO step:  Lambda=-2.16934364D-02 EMin= 2.30000000D-03
 Quartic linear search produced a step of -0.01027.
 Iteration  1 RMS(Cart)=  0.07081675 RMS(Int)=  0.00000000
 Iteration  2 RMS(Cart)=  0.00000000 RMS(Int)=  0.00000000
 ClnCor:  largest displacement from symmetrization is 5.54D-10 for atom     2.
 Variable       Old X    -DE/DX   Delta X   Delta X   Delta X     New X
                                 (Linear)    (Quad)   (Total)
    R1        2.25137  -0.15475   0.00067  -0.10953  -0.10885   2.14252
    R2        2.15232  -0.05307  -0.00199  -0.08920  -0.09119   2.06114
    A1        3.14159   0.00000   0.00000   0.00000   0.00000   3.14159
    A2        3.14159   0.00000   0.00000   0.00000   0.00000   3.14159
         Item               Value     Threshold  Converged?
 Maximum Force            0.154750     0.000015     NO 
 RMS     Force            0.081798     0.000010     NO 
 Maximum Displacement     0.102965     0.000060     NO 
 RMS     Displacement     0.070817     0.000040     NO 
 Predicted change in Energy=-1.105501D-02
 GradGradGradGradGradGradGradGradGradGradGradGradGradGradGradGradGradGrad

                          Input orientation:                          
 ---------------------------------------------------------------------
 Center     Atomic      Atomic             Coordinates (Angstroms)
 Number     Number       Type             X           Y           Z
 ---------------------------------------------------------------------
      1          7           0        0.000000    0.000000    0.313916
      2          6           0        0.000000    0.000000    1.447689
      3          1           0        0.000000    0.000000    2.538395
 ---------------------------------------------------------------------
                    Distance matrix (angstroms):
                    1          2          3
     1  N    0.000000
     2  C    1.133773   0.000000
     3  H    2.224479   1.090706   0.000000
 Stoichiometry    CHN
 Framework group  C*V[C*(HCN)]
 Deg. of freedom     2
 Full point group                 C*V     NOp   4
 Largest Abelian subgroup         C2V     NOp   4
 Largest concise Abelian subgroup C1      NOp   1
                         Standard orientation:                         
 ---------------------------------------------------------------------
 Center     Atomic      Atomic             Coordinates (Angstroms)
 Number     Number       Type             X           Y           Z
 ---------------------------------------------------------------------
      1          7           0        0.000000    0.000000    0.644794
      2          6           0        0.000000    0.000000   -0.488979
      3          1           0        0.000000    0.000000   -1.579685
 ---------------------------------------------------------------------
 Rotational constants (GHZ):      0.0000000     45.4687302     45.4687302
 Standard basis: 6-311G(d) (5D, 7F)
 There are    23 symmetry adapted cartesian basis functions of A1  symmetry.
 There are     2 symmetry adapted cartesian basis functions of A2  symmetry.
 There are     8 symmetry adapted cartesian basis functions of B1  symmetry.
 There are     8 symmetry adapted cartesian basis functions of B2  symmetry.
 There are    21 symmetry adapted basis functions of A1  symmetry.
 There are     2 symmetry adapted basis functions of A2  symmetry.
 There are     8 symmetry adapted basis functions of B1  symmetry.
 There are     8 symmetry adapted basis functions of B2  symmetry.
    39 basis functions,    69 primitive gaussians,    41 cartesian basis functions
     7 alpha electrons        7 beta electrons
       nuclear repulsion energy        24.1793143993 Hartrees.
 NAtoms=    3 NActive=    3 NUniq=    3 SFac= 1.00D+00 NAtFMM=   60 NAOKFM=F Big=F
 Integral buffers will be    131072 words long.
 Raffenetti 1 integral format.
 Two-electron integral symmetry is turned on.
 One-electron integrals computed using PRISM.
 NBasis=    39 RedAO= T EigKep=  9.32D-03  NBF=    21     2     8     8
 NBsUse=    39 1.00D-06 EigRej= -1.00D+00 NBFU=    21     2     8     8
 Initial guess from the checkpoint file:  "HNC1806311Gs.chk"
 B after Tr=     0.000000    0.000000    0.000000
         Rot=    1.000000    0.000000    0.000000    0.000000 Ang=   0.00 deg.
 Initial guess orbital symmetries:
       Occupied  (SG) (SG) (SG) (SG) (SG) (PI) (PI)
       Virtual   (SG) (SG) (SG) (SG) (SG) (SG) (SG) (DLTA) (DLTA)
                 (SG) (SG) (SG) (SG) (SG) (SG) (SG) (DLTA) (DLTA)
                 (PI) (PI) (PI) (PI) (PI) (PI) (PI) (PI) (PI) (PI)
                 (PI) (PI) (PI) (PI)
 ExpMin= 1.03D-01 ExpMax= 6.29D+03 ExpMxC= 9.49D+02 IAcc=1 IRadAn=         1 AccDes= 0.00D+00
 Harris functional with IExCor=  205 and IRadAn=       1 diagonalized for initial guess.
 HarFok:  IExCor=  205 AccDes= 0.00D+00 IRadAn=         1 IDoV= 1 UseB2=F ITyADJ=14
 ICtDFT=  3500011 ScaDFX=  1.000000  1.000000  1.000000  1.000000
 FoFCou: FMM=F IPFlag=           0 FMFlag=      100000 FMFlg1=           0
         NFxFlg=           0 DoJE=T BraDBF=F KetDBF=T FulRan=T
         wScrn=  0.000000 ICntrl=     500 IOpCl=  0 I1Cent=   200000004 NGrid=           0
         NMat0=    1 NMatS0=      1 NMatT0=    0 NMatD0=    1 NMtDS0=    0 NMtDT0=    0
 Petite list used in FoFCou.
 Keep R1 ints in memory in symmetry-blocked form, NReq=1162031.
 Requested convergence on RMS density matrix=1.00D-08 within 128 cycles.
 Requested convergence on MAX density matrix=1.00D-06.
 Requested convergence on             energy=1.00D-06.
 No special actions if energy rises.
 An orbital has undefined symmetry, so N**3 symmetry is turned off.
 SCF Done:  E(RHF) =  -92.8960765143     A.U. after   10 cycles
            NFock= 10  Conv=0.14D-08     -V/T= 2.0008
 Calling FoFJK, ICntrl=      2127 FMM=F ISym2X=1 I1Cent= 0 IOpClX= 0 NMat=1 NMatS=1 NMatT=0.
 ***** Axes restored to original set *****
 -------------------------------------------------------------------
 Center     Atomic                   Forces (Hartrees/Bohr)
 Number     Number              X              Y              Z
 -------------------------------------------------------------------
      1        7           0.000000000    0.000000000    0.019253958
      2        6           0.000000000    0.000000000    0.005462094
      3        1           0.000000000    0.000000000   -0.024716053
 -------------------------------------------------------------------
 Cartesian Forces:  Max     0.024716053 RMS     0.010601010

 GradGradGradGradGradGradGradGradGradGradGradGradGradGradGradGradGradGrad
 Berny optimization.
 Using GEDIIS/GDIIS optimizer.
 Internal  Forces:  Max     0.024716053 RMS     0.015665234
 Search for a local minimum.
 Step number   9 out of a maximum of   20
 All quantities printed in internal units (Hartrees-Bohrs-Radians)
 Mixed Optimization -- RFO/linear search
 Update second derivatives using D2CorX and points    6    7    5    8    9
 DE= -1.35D-02 DEPred=-1.11D-02 R= 1.22D+00
 TightC=F SS=  1.41D+00  RLast= 1.42D-01 DXNew= 3.5676D-01 4.2600D-01
 Trust test= 1.22D+00 RLast= 1.42D-01 DXMaxT set to 3.57D-01
 The second derivative matrix:
                          R1        R2        A1        A2
           R1           1.23525
           R2           0.01134   0.29736
           A1           0.00000   0.00000   0.00230
           A2           0.00000   0.00000   0.00000   0.00230
 ITU=  1  0 -1 -1  1
 Use linear search instead of GDIIS.
     Eigenvalues ---    0.00230   0.00230   0.29722   1.23539
 RFO step:  Lambda=-9.34178173D-04 EMin= 2.30000000D-03
 Quartic linear search produced a step of  0.20560.
 Iteration  1 RMS(Cart)=  0.03142363 RMS(Int)=  0.00000000
 Iteration  2 RMS(Cart)=  0.00000000 RMS(Int)=  0.00000000
 ClnCor:  largest displacement from symmetrization is 8.28D-10 for atom     2.
 Variable       Old X    -DE/DX   Delta X   Delta X   Delta X     New X
                                 (Linear)    (Quad)   (Total)
    R1        2.14252  -0.01925  -0.02238   0.01087  -0.01151   2.13101
    R2        2.06114  -0.02472  -0.01875  -0.05182  -0.07057   1.99057
    A1        3.14159   0.00000   0.00000   0.00000   0.00000   3.14159
    A2        3.14159   0.00000   0.00000   0.00000   0.00000   3.14159
         Item               Value     Threshold  Converged?
 Maximum Force            0.024716     0.000015     NO 
 RMS     Force            0.015665     0.000010     NO 
 Maximum Displacement     0.050882     0.000060     NO 
 RMS     Displacement     0.031424     0.000040     NO 
 Predicted change in Energy=-1.134344D-03
 GradGradGradGradGradGradGradGradGradGradGradGradGradGradGradGradGradGrad

                          Input orientation:                          
 ---------------------------------------------------------------------
 Center     Atomic      Atomic             Coordinates (Angstroms)
 Number     Number       Type             X           Y           Z
 ---------------------------------------------------------------------
      1          7           0        0.000000    0.000000    0.330425
      2          6           0        0.000000    0.000000    1.458106
      3          1           0        0.000000    0.000000    2.511469
 ---------------------------------------------------------------------
                    Distance matrix (angstroms):
                    1          2          3
     1  N    0.000000
     2  C    1.127680   0.000000
     3  H    2.181044   1.053364   0.000000
 Stoichiometry    CHN
 Framework group  C*V[C*(HCN)]
 Deg. of freedom     2
 Full point group                 C*V     NOp   4
 Largest Abelian subgroup         C2V     NOp   4
 Largest concise Abelian subgroup C1      NOp   1
                         Standard orientation:                         
 ---------------------------------------------------------------------
 Center     Atomic      Atomic             Coordinates (Angstroms)
 Number     Number       Type             X           Y           Z
 ---------------------------------------------------------------------
      1          7           0        0.000000    0.000000    0.639080
      2          6           0        0.000000    0.000000   -0.488600
[...]
 ---------------------------------------------------------------------
                    Distance matrix (angstroms):
                    1          2          3
     1  N    0.000000
     2  C    1.126838   0.000000
     3  H    2.185144   1.058306   0.000000
 Stoichiometry    CHN
 Framework group  C*V[C*(HCN)]
 Deg. of freedom     2
 Full point group                 C*V     NOp   4
 Largest Abelian subgroup         C2V     NOp   4
 Largest concise Abelian subgroup C1      NOp   1
                         Standard orientation:                         
 ---------------------------------------------------------------------
 Center     Atomic      Atomic             Coordinates (Angstroms)
 Number     Number       Type             X           Y           Z
 ---------------------------------------------------------------------
      1          7           0        0.000000    0.000000    0.639012
      2          6           0        0.000000    0.000000   -0.487826
      3          1           0        0.000000    0.000000   -1.546132
 ---------------------------------------------------------------------
 Rotational constants (GHZ):      0.0000000     46.3840232     46.3840232
 Standard basis: 6-311G(d) (5D, 7F)
 There are    23 symmetry adapted cartesian basis functions of A1  symmetry.
 There are     2 symmetry adapted cartesian basis functions of A2  symmetry.
 There are     8 symmetry adapted cartesian basis functions of B1  symmetry.
 There are     8 symmetry adapted cartesian basis functions of B2  symmetry.
 There are    21 symmetry adapted basis functions of A1  symmetry.
 There are     2 symmetry adapted basis functions of A2  symmetry.
 There are     8 symmetry adapted basis functions of B1  symmetry.
 There are     8 symmetry adapted basis functions of B2  symmetry.
    39 basis functions,    69 primitive gaussians,    41 cartesian basis functions
     7 alpha electrons        7 beta electrons
       nuclear repulsion energy        24.4190539745 Hartrees.
 NAtoms=    3 NActive=    3 NUniq=    3 SFac= 1.00D+00 NAtFMM=   60 NAOKFM=F Big=F
 Integral buffers will be    131072 words long.
 Raffenetti 1 integral format.
 Two-electron integral symmetry is turned on.
 One-electron integrals computed using PRISM.
 NBasis=    39 RedAO= T EigKep=  9.11D-03  NBF=    21     2     8     8
 NBsUse=    39 1.00D-06 EigRej= -1.00D+00 NBFU=    21     2     8     8
 Initial guess from the checkpoint file:  "HNC1806311Gs.chk"
 B after Tr=     0.000000    0.000000    0.000000
         Rot=    1.000000    0.000000    0.000000    0.000000 Ang=   0.00 deg.
 Initial guess orbital symmetries:
       Occupied  (SG) (SG) (SG) (SG) (SG) (PI) (PI)
       Virtual   (SG) (SG) (SG) (SG) (SG) (SG) (SG) (DLTA) (DLTA)
                 (SG) (SG) (SG) (SG) (SG) (SG) (SG) (DLTA) (DLTA)
                 (PI) (PI) (PI) (PI) (PI) (PI) (PI) (PI) (PI) (PI)
                 (PI) (PI) (PI) (PI)
 Keep R1 ints in memory in symmetry-blocked form, NReq=1162045.
 Requested convergence on RMS density matrix=1.00D-08 within 128 cycles.
 Requested convergence on MAX density matrix=1.00D-06.
 Requested convergence on             energy=1.00D-06.
 No special actions if energy rises.
 An orbital has undefined symmetry, so N**3 symmetry is turned off.
 SCF Done:  E(RHF) =  -92.8969839902     A.U. after    7 cycles
            NFock=  7  Conv=0.85D-08     -V/T= 1.9998
 Calling FoFJK, ICntrl=      2127 FMM=F ISym2X=1 I1Cent= 0 IOpClX= 0 NMat=1 NMatS=1 NMatT=0.
 ***** Axes restored to original set *****
 -------------------------------------------------------------------
 Center     Atomic                   Forces (Hartrees/Bohr)
 Number     Number              X              Y              Z
 -------------------------------------------------------------------
      1        7           0.000000000    0.000000000    0.000099664
      2        6           0.000000000    0.000000000   -0.000076298
      3        1           0.000000000    0.000000000   -0.000023366
 -------------------------------------------------------------------
 Cartesian Forces:  Max     0.000099664 RMS     0.000042557

 GradGradGradGradGradGradGradGradGradGradGradGradGradGradGradGradGradGrad
 Berny optimization.
 Using GEDIIS/GDIIS optimizer.
 Internal  Forces:  Max     0.000099664 RMS     0.000051183
 Search for a local minimum.
 Step number  12 out of a maximum of   20
 All quantities printed in internal units (Hartrees-Bohrs-Radians)
 Mixed Optimization -- En-DIIS/RFO-DIIS
 Swapping is turned off.
 Update second derivatives using D2CorX and points    8    9   10   11   12
 DE= -1.24D-06 DEPred=-1.29D-06 R= 9.61D-01
 TightC=F SS=  1.41D+00  RLast= 1.45D-03 DXNew= 6.0000D-01 4.3364D-03
 Trust test= 9.61D-01 RLast= 1.45D-03 DXMaxT set to 3.57D-01
 The second derivative matrix:
                          R1        R2        A1        A2
           R1           1.56180
           R2          -0.01496   0.44211
           A1           0.00000   0.00000   0.00230
           A2           0.00000   0.00000   0.00000   0.00230
 ITU=  1  1  1  1  0
     Eigenvalues ---    0.00230   0.00230   0.44191   1.56200
 En-DIIS/RFO-DIIS IScMMF=        0 using points:    12   11
 RFO step:  Lambda=-8.79816195D-09.
 DidBck=F Rises=F RFO-DIIS coefs:    0.96014    0.03986
 Iteration  1 RMS(Cart)=  0.00004225 RMS(Int)=  0.00000000
 Iteration  2 RMS(Cart)=  0.00000000 RMS(Int)=  0.00000000
 ClnCor:  largest displacement from symmetrization is 0.00D+00 for atom     0.
 Variable       Old X    -DE/DX   Delta X   Delta X   Delta X     New X
                                 (Linear)    (Quad)   (Total)
    R1        2.12942  -0.00010  -0.00005  -0.00001  -0.00006   2.12935
    R2        1.99991  -0.00002   0.00003  -0.00008  -0.00006   1.99985
    A1        3.14159   0.00000   0.00000   0.00000   0.00000   3.14159
    A2        3.14159   0.00000   0.00000   0.00000   0.00000   3.14159
         Item               Value     Threshold  Converged?
 Maximum Force            0.000100     0.000015     NO 
 RMS     Force            0.000051     0.000010     NO 
 Maximum Displacement     0.000061     0.000060     NO 
 RMS     Displacement     0.000042     0.000040     NO 
 Predicted change in Energy=-3.849107D-09
 GradGradGradGradGradGradGradGradGradGradGradGradGradGradGradGradGradGrad

                          Input orientation:                          
 ---------------------------------------------------------------------
 Center     Atomic      Atomic             Coordinates (Angstroms)
 Number     Number       Type             X           Y           Z
 ---------------------------------------------------------------------
      1          7           0        0.000000    0.000000    0.329372
      2          6           0        0.000000    0.000000    1.456176
      3          1           0        0.000000    0.000000    2.514453
 ---------------------------------------------------------------------
                    Distance matrix (angstroms):
                    1          2          3
     1  N    0.000000
     2  C    1.126804   0.000000
     3  H    2.185081   1.058277   0.000000
 Stoichiometry    CHN
 Framework group  C*V[C*(HCN)]
 Deg. of freedom     2
 Full point group                 C*V     NOp   4
 Largest Abelian subgroup         C2V     NOp   4
 Largest concise Abelian subgroup C1      NOp   1
                         Standard orientation:                         
 ---------------------------------------------------------------------
 Center     Atomic      Atomic             Coordinates (Angstroms)
 Number     Number       Type             X           Y           Z
 ---------------------------------------------------------------------
      1          7           0        0.000000    0.000000    0.638993
      2          6           0        0.000000    0.000000   -0.487811
      3          1           0        0.000000    0.000000   -1.546088
 ---------------------------------------------------------------------
 Rotational constants (GHZ):      0.0000000     46.3867870     46.3867870
 Standard basis: 6-311G(d) (5D, 7F)
 There are    23 symmetry adapted cartesian basis functions of A1  symmetry.
 There are     2 symmetry adapted cartesian basis functions of A2  symmetry.
 There are     8 symmetry adapted cartesian basis functions of B1  symmetry.
 There are     8 symmetry adapted cartesian basis functions of B2  symmetry.
 There are    21 symmetry adapted basis functions of A1  symmetry.
 There are     2 symmetry adapted basis functions of A2  symmetry.
 There are     8 symmetry adapted basis functions of B1  symmetry.
 There are     8 symmetry adapted basis functions of B2  symmetry.
    39 basis functions,    69 primitive gaussians,    41 cartesian basis functions
     7 alpha electrons        7 beta electrons
       nuclear repulsion energy        24.4197815064 Hartrees.
 NAtoms=    3 NActive=    3 NUniq=    3 SFac= 1.00D+00 NAtFMM=   60 NAOKFM=F Big=F
 Integral buffers will be    131072 words long.
 Raffenetti 1 integral format.
 Two-electron integral symmetry is turned on.
 One-electron integrals computed using PRISM.
 NBasis=    39 RedAO= T EigKep=  9.11D-03  NBF=    21     2     8     8
 NBsUse=    39 1.00D-06 EigRej= -1.00D+00 NBFU=    21     2     8     8
 Initial guess from the checkpoint file:  "HNC1806311Gs.chk"
 B after Tr=     0.000000    0.000000    0.000000
         Rot=    1.000000    0.000000    0.000000    0.000000 Ang=   0.00 deg.
 Initial guess orbital symmetries:
       Occupied  (SG) (SG) (SG) (SG) (SG) (PI) (PI)
       Virtual   (SG) (SG) (SG) (SG) (SG) (SG) (SG) (DLTA) (DLTA)
                 (SG) (SG) (SG) (SG) (SG) (SG) (SG) (DLTA) (DLTA)
                 (PI) (PI) (PI) (PI) (PI) (PI) (PI) (PI) (PI) (PI)
                 (PI) (PI) (PI) (PI)
 Keep R1 ints in memory in symmetry-blocked form, NReq=1162045.
 Requested convergence on RMS density matrix=1.00D-08 within 128 cycles.
 Requested convergence on MAX density matrix=1.00D-06.
 Requested convergence on             energy=1.00D-06.
 No special actions if energy rises.
 An orbital has undefined symmetry, so N**3 symmetry is turned off.
 SCF Done:  E(RHF) =  -92.8969839940     A.U. after    6 cycles
            NFock=  6  Conv=0.25D-08     -V/T= 1.9998
 Calling FoFJK, ICntrl=      2127 FMM=F ISym2X=1 I1Cent= 0 IOpClX= 0 NMat=1 NMatS=1 NMatT=0.
 ***** Axes restored to original set *****
 -------------------------------------------------------------------
 Center     Atomic                   Forces (Hartrees/Bohr)
 Number     Number              X              Y              Z
 -------------------------------------------------------------------
      1        7           0.000000000    0.000000000    0.000000148
      2        6           0.000000000    0.000000000   -0.000000246
      3        1           0.000000000    0.000000000    0.000000098
 -------------------------------------------------------------------
 Cartesian Forces:  Max     0.000000246 RMS     0.000000101

 GradGradGradGradGradGradGradGradGradGradGradGradGradGradGradGradGradGrad
 Berny optimization.
 Using GEDIIS/GDIIS optimizer.
 Internal  Forces:  Max     0.000000148 RMS     0.000000089
 Search for a local minimum.
 Step number  13 out of a maximum of   20
 All quantities printed in internal units (Hartrees-Bohrs-Radians)
 Mixed Optimization -- En-DIIS/RFO-DIIS
 Swapping is turned off.
 Update second derivatives using D2CorX and points    9   10   11   12   13
 DE= -3.85D-09 DEPred=-3.85D-09 R= 1.00D+00
 Trust test= 1.00D+00 RLast= 8.47D-05 DXMaxT set to 3.57D-01
 The second derivative matrix:
                          R1        R2        A1        A2
           R1           1.56018
           R2          -0.01575   0.44482
           A1           0.00000   0.00000   0.00230
           A2           0.00000   0.00000   0.00000   0.00230
 ITU=  0  1  1  1  1
     Eigenvalues ---    0.00230   0.00230   0.44460   1.56040
 En-DIIS/RFO-DIIS IScMMF=        0 using points:    13   12   11
 RFO step:  Lambda=-3.16050061D-14.
 DidBck=F Rises=F RFO-DIIS coefs:    0.99821    0.00163    0.00017
 Iteration  1 RMS(Cart)=  0.00000008 RMS(Int)=  0.00000000
 ClnCor:  largest displacement from symmetrization is 8.53D-15 for atom     2.
 Variable       Old X    -DE/DX   Delta X   Delta X   Delta X     New X
                                 (Linear)    (Quad)   (Total)
    R1        2.12935   0.00000   0.00000   0.00000   0.00000   2.12935
    R2        1.99985   0.00000   0.00000   0.00000   0.00000   1.99985
    A1        3.14159   0.00000   0.00000   0.00000   0.00000   3.14159
    A2        3.14159   0.00000   0.00000   0.00000   0.00000   3.14159
         Item               Value     Threshold  Converged?
 Maximum Force            0.000000     0.000015     YES
 RMS     Force            0.000000     0.000010     YES
 Maximum Displacement     0.000000     0.000060     YES
 RMS     Displacement     0.000000     0.000040     YES
 Predicted change in Energy=-1.754130D-14
 Optimization completed.
    -- Stationary point found.
                           ----------------------------
                           !   Optimized Parameters   !
                           ! (Angstroms and Degrees)  !
 --------------------------                            --------------------------
 ! Name  Definition              Value          Derivative Info.                !
 --------------------------------------------------------------------------------
 ! R1    R(1,2)                  1.1268         -DE/DX =    0.0                 !
 ! R2    R(2,3)                  1.0583         -DE/DX =    0.0                 !
 ! A1    L(1,2,3,-1,-1)        180.0            -DE/DX =    0.0                 !
 ! A2    L(1,2,3,-2,-2)        180.0            -DE/DX =    0.0                 !
 --------------------------------------------------------------------------------
 GradGradGradGradGradGradGradGradGradGradGradGradGradGradGradGradGradGrad

                          Input orientation:                          
 ---------------------------------------------------------------------
 Center     Atomic      Atomic             Coordinates (Angstroms)
 Number     Number       Type             X           Y           Z
 ---------------------------------------------------------------------
      1          7           0        0.000000    0.000000    0.329372
      2          6           0        0.000000    0.000000    1.456176
      3          1           0        0.000000    0.000000    2.514453
 ---------------------------------------------------------------------
                    Distance matrix (angstroms):
                    1          2          3
     1  N    0.000000
     2  C    1.126804   0.000000
     3  H    2.185081   1.058277   0.000000
 Stoichiometry    CHN
 Framework group  C*V[C*(HCN)]
 Deg. of freedom     2
 Full point group                 C*V     NOp   4
 Largest Abelian subgroup         C2V     NOp   4
 Largest concise Abelian subgroup C1      NOp   1
                         Standard orientation:                         
 ---------------------------------------------------------------------
 Center     Atomic      Atomic             Coordinates (Angstroms)
 Number     Number       Type             X           Y           Z
 ---------------------------------------------------------------------
      1          7           0        0.000000    0.000000    0.638993
      2          6           0        0.000000    0.000000   -0.487811
      3          1           0        0.000000    0.000000   -1.546088
 ---------------------------------------------------------------------
 Rotational constants (GHZ):      0.0000000     46.3867870     46.3867870

 **********************************************************************

            Population analysis using the SCF density.

 **********************************************************************

 Orbital symmetries:
       Occupied  (SG) (SG) (SG) (SG) (SG) (PI) (PI)
       Virtual   (SG) (PI) (PI) (SG) (PI) (PI) (SG) (SG) (SG) (PI)
                 (PI) (SG) (SG) (DLTA) (DLTA) (PI) (PI) (SG) (DLTA)
                 (DLTA) (PI) (PI) (SG) (PI) (PI) (SG) (SG) (PI)
                 (PI) (SG) (SG) (SG)
 The electronic state is 1-SG.
 Alpha  occ. eigenvalues --  -15.58748 -11.28084  -1.25048  -0.81064  -0.57911
 Alpha  occ. eigenvalues --   -0.50326  -0.50326
 Alpha virt. eigenvalues --    0.15169   0.19136   0.19136   0.29919   0.57372
 Alpha virt. eigenvalues --    0.57372   0.59511   0.74767   0.81460   0.90652
 Alpha virt. eigenvalues --    0.90652   1.23349   1.37591   1.49665   1.49665
 Alpha virt. eigenvalues --    1.63679   1.63679   2.19572   2.40104   2.40104
 Alpha virt. eigenvalues --    2.85371   2.85371   2.99451   3.13099   3.13099
 Alpha virt. eigenvalues --    3.35996   3.50769   4.27143   4.27143   4.96839
 Alpha virt. eigenvalues --   25.15295  37.20697
          Condensed to atoms (all electrons):
               1          2          3
     1  N    6.345858   0.978430  -0.020160
     2  C    0.978430   4.708085   0.351638
     3  H   -0.020160   0.351638   0.326240
 Mulliken charges:
               1
     1  N   -0.304129
     2  C   -0.038153
     3  H    0.342281
 Sum of Mulliken charges =   0.00000
 Mulliken charges with hydrogens summed into heavy atoms:
               1
     1  N   -0.304129
     2  C    0.304129
 Electronic spatial extent (au):  <R**2>=             48.4147
 Charge=              0.0000 electrons
 Dipole moment (field-independent basis, Debye):
    X=              0.0000    Y=              0.0000    Z=             -3.2198  Tot=              3.2198
 Quadrupole moment (field-independent basis, Debye-Ang):
   XX=            -11.7099   YY=            -11.7099   ZZ=             -9.6320
   XY=              0.0000   XZ=              0.0000   YZ=              0.0000
 Traceless Quadrupole moment (field-independent basis, Debye-Ang):
   XX=             -0.6926   YY=             -0.6926   ZZ=              1.3853
   XY=              0.0000   XZ=              0.0000   YZ=              0.0000
 Octapole moment (field-independent basis, Debye-Ang**2):
  XXX=              0.0000  YYY=              0.0000  ZZZ=             -7.6507  XYY=              0.0000
  XXY=              0.0000  XXZ=             -0.2806  XZZ=              0.0000  YZZ=              0.0000
  YYZ=             -0.2806  XYZ=              0.0000
 Hexadecapole moment (field-independent basis, Debye-Ang**3):
 XXXX=            -11.3262 YYYY=            -11.3262 ZZZZ=            -33.6310 XXXY=              0.0000
 XXXZ=              0.0000 YYYX=              0.0000 YYYZ=              0.0000 ZZZX=              0.0000
 ZZZY=              0.0000 XXYY=             -3.7754 XXZZ=             -8.6266 YYZZ=             -8.6266
 XXYZ=              0.0000 YYXZ=              0.0000 ZZXY=              0.0000
 N-N= 2.441978150643D+01 E-N=-2.665151702311D+02  KE= 9.291177020878D+01
 Symmetry A1   KE= 8.746195071564D+01
 Symmetry A2   KE= 1.364734316096D-30
 Symmetry B1   KE= 2.724909746571D+00
 Symmetry B2   KE= 2.724909746571D+00
 B after Tr=     0.000000    0.000000   -0.574626
         Rot=    1.000000    0.000000    0.000000    0.000000 Ang=   0.00 deg.
 Final structure in terms of initial Z-matrix:
 N
 C,1,B1
 H,2,B2,1,A1
      Variables:
 B1=1.12680401
 B2=1.05827688
      Constants:
 A1=180.
 1\1\GINC-TC-NODE166\FOpt\RHF\6-311G(d)\C1H1N1\MAXB2\26-Sep-2016\0\\# o
 pt=(modredundant,tight) RHF/6-311g* gfp\\HNC-HCN\\0,1\N,0.,0.,0.329371
 7001\C,0.,0.,1.4561757099\H,0.,0.,2.51445259\\Version=ES64L-G09RevD.01
 \State=1-SG\HF=-92.896984\RMSD=2.478e-09\RMSF=1.011e-07\Dipole=0.,0.,1
 .2667558\Quadrupole=-0.5149571,-0.5149571,1.0299141,0.,0.,0.\PG=C*V [C
 *(H1C1N1)]\\@


 MODELS ARE TO BE USED, NOT BELIEVED.

    -- PARAPHRASED BY H. THIEL IN "PRINCIPLES OF ECONOMETRICS"
 Job cpu time:       0 days  0 hours  0 minutes 37.1 seconds.
 File lengths (MBytes):  RWF=     72 Int=      0 D2E=      0 Chk=      2 Scr=      1
 Normal termination of Gaussian 09 at Mon Sep 26 18:26:18 2016.
