 Entering Gaussian System, Link 0=g09
 Initial command:
 /cluster/software/gaussian/gaussian-09-D.01/g09/l1.exe "/local/scratch/maxb2/Gau-3547.inp" -scrdir="/local/scratch/maxb2/"
 Entering Link 1 = /cluster/software/gaussian/gaussian-09-D.01/g09/l1.exe PID=      3548.
  
 Copyright (c) 1988,1990,1992,1993,1995,1998,2003,2009,2013,
            Gaussian, Inc.  All Rights Reserved.
  
 This is part of the Gaussian(R) 09 program.  It is based on
 the Gaussian(R) 03 system (copyright 2003, Gaussian, Inc.),
 the Gaussian(R) 98 system (copyright 1998, Gaussian, Inc.),
 the Gaussian(R) 94 system (copyright 1995, Gaussian, Inc.),
 the Gaussian 92(TM) system (copyright 1992, Gaussian, Inc.),
 the Gaussian 90(TM) system (copyright 1990, Gaussian, Inc.),
 the Gaussian 88(TM) system (copyright 1988, Gaussian, Inc.),
 the Gaussian 86(TM) system (copyright 1986, Carnegie Mellon
 University), and the Gaussian 82(TM) system (copyright 1983,
 Carnegie Mellon University). Gaussian is a federally registered
 trademark of Gaussian, Inc.
  
 This software contains proprietary and confidential information,
 including trade secrets, belonging to Gaussian, Inc.
  
 This software is provided under written license and may be
 used, copied, transmitted, or stored only in accord with that
 written license.
  
 The following legend is applicable only to US Government
 contracts under FAR:
  
                    RESTRICTED RIGHTS LEGEND
  
 Use, reproduction and disclosure by the US Government is
 subject to restrictions as set forth in subparagraphs (a)
 and (c) of the Commercial Computer Software - Restricted
 Rights clause in FAR 52.227-19.
  
 Gaussian, Inc.
 340 Quinnipiac St., Bldg. 40, Wallingford CT 06492
  
  
 ---------------------------------------------------------------
 Warning -- This program may not be used in any manner that
 competes with the business of Gaussian, Inc. or will provide
 assistance to any competitor of Gaussian, Inc.  The licensee
 of this program is prohibited from giving any competitor of
 Gaussian, Inc. access to this program.  By using this program,
 the user acknowledges that Gaussian, Inc. is engaged in the
 business of creating and licensing software in the field of
 computational chemistry and represents and warrants to the
 licensee that it is not a competitor of Gaussian, Inc. and that
 it will not use this program in any manner prohibited above.
 ---------------------------------------------------------------
  

 Cite this work as:
 Gaussian 09, Revision D.01,
 M. J. Frisch, G. W. Trucks, H. B. Schlegel, G. E. Scuseria, 
 M. A. Robb, J. R. Cheeseman, G. Scalmani, V. Barone, B. Mennucci, 
 G. A. Petersson, H. Nakatsuji, M. Caricato, X. Li, H. P. Hratchian, 
 A. F. Izmaylov, J. Bloino, G. Zheng, J. L. Sonnenberg, M. Hada, 
 M. Ehara, K. Toyota, R. Fukuda, J. Hasegawa, M. Ishida, T. Nakajima, 
 Y. Honda, O. Kitao, H. Nakai, T. Vreven, J. A. Montgomery, Jr., 
 J. E. Peralta, F. Ogliaro, M. Bearpark, J. J. Heyd, E. Brothers, 
 K. N. Kudin, V. N. Staroverov, T. Keith, R. Kobayashi, J. Normand, 
 K. Raghavachari, A. Rendell, J. C. Burant, S. S. Iyengar, J. Tomasi, 
 M. Cossi, N. Rega, J. M. Millam, M. Klene, J. E. Knox, J. B. Cross, 
 V. Bakken, C. Adamo, J. Jaramillo, R. Gomperts, R. E. Stratmann, 
 O. Yazyev, A. J. Austin, R. Cammi, C. Pomelli, J. W. Ochterski, 
 R. L. Martin, K. Morokuma, V. G. Zakrzewski, G. A. Voth, 
 P. Salvador, J. J. Dannenberg, S. Dapprich, A. D. Daniels, 
 O. Farkas, J. B. Foresman, J. V. Ortiz, J. Cioslowski, 
 and D. J. Fox, Gaussian, Inc., Wallingford CT, 2013.
 
 ******************************************
 Gaussian 09:  ES64L-G09RevD.01 24-Apr-2013
                27-Sep-2016 
 ******************************************
 %rwf=/home/maxb2/scratch/HNCirc10/
 %int=/home/maxb2/scratch/HNCirc10/
 %d2e=/home/maxb2/scratch/HNCirc10/
 %nosave
 %mem=6GB
 %nprocshared=3
 Will use up to    3 processors via shared memory.
 %chk=HNCirc6311Gs
 ----------------------------
 # irc=calcfc rhf/6-311g* gfp
 ----------------------------
 1/10=4,18=10,38=1,44=3/1,23;
 2/12=2,17=6,18=5,29=1,40=1/2;
 3/5=4,6=6,7=1,11=1,16=1,24=100,25=1,30=1,71=2,116=1,140=1/1,2,3;
 4//1;
 5/5=2,38=5/2;
 8/6=4,10=90,11=11/1;
 11/6=1,8=1,9=11,15=111,16=1/1,2,10;
 10/6=1,13=1/2;
 6/7=2,8=2,9=2,10=2,28=1/1;
 7/10=1,18=20,25=1/1,2,3,16;
 1/10=4,18=10,44=3/23(2);
 2/29=1/2;
 99/5=20/99;
 2/29=1/2;
 3/5=4,6=6,7=1,11=1,16=1,25=1,30=1,71=2,116=1,140=1/1,2,3;
 4/5=5,16=3,69=1/1;
 5/5=2,38=5/2;
 8/6=4,10=90,11=11/1;
 11/6=1,8=1,9=11,15=111,16=1/1,2,10;
 10/6=1,13=1/2;
 7/10=1,18=20,25=1/1,2,3,16;
 1/18=10,44=3/23(-8);
 2/29=1/2;
 6/7=2,8=2,9=2,10=2,19=2,28=1/1;
 99/5=20,9=1/99;
 -------
 HNC-HCN
 -------
 Symbolic Z-matrix:
 Charge =  0 Multiplicity = 1
 N
 C                    1    B1
 H                    2    B2       1    A1
       Variables:
  B1                    1.16404                  
  B2                    1.15944                  
  A1                   77.38699                  
 
 IRC-IRC-IRC-IRC-IRC-IRC-IRC-IRC-IRC-IRC-IRC-IRC-IRC-IRC-IRC-IRC-IRC-IRC
 ------------------------------------------------------------------------
 INPUT DATA FOR L123
 ------------------------------------------------------------------------
 GENERAL PARAMETERS:
 Follow reaction path in both directions.
 Maximum points per path      =  10
 Step size                    =   0.100 bohr
 Integration scheme           = HPC                                 
    Redo corrector integration= Yes                                 
    DWI Weight Power          =  2
    DWI will use Hessian update vectors when possible.
    Max correction cycles     =  20
 Initial Hessian              = CalcFC
 Hessian evaluation           = All updating
 Hessian updating method      = Bofill                              
 ------------------------------------------------------------------------
 IRC-IRC-IRC-IRC-IRC-IRC-IRC-IRC-IRC-IRC-IRC-IRC-IRC-IRC-IRC-IRC-IRC-IRC
                          Input orientation:                          
 ---------------------------------------------------------------------
 Center     Atomic      Atomic             Coordinates (Angstroms)
 Number     Number       Type             X           Y           Z
 ---------------------------------------------------------------------
      1          7           0        0.000000    0.000000    0.000000
      2          6           0        0.000000    0.000000    1.164044
      3          1           0        1.131457    0.000000    0.910864
 ---------------------------------------------------------------------
                    Distance matrix (angstroms):
                    1          2          3
     1  N    0.000000
     2  C    1.164044   0.000000
     3  H    1.452538   1.159437   0.000000
 Symmetry turned off by external request.
 Stoichiometry    CHN
 Framework group  CS[SG(CHN)]
 Deg. of freedom     3
 Full point group                 CS      NOp   2
 Rotational constants (GHZ):    414.1983709     56.6970404     49.8705683
 Standard basis: 6-311G(d) (5D, 7F)
 AO basis set (Overlap normalization):
 Atom N1       Shell     1 S   6     bf    1 -     1          0.000000000000          0.000000000000          0.000000000000
      0.6293480000D+04  0.1969788147D-02
      0.9490440000D+03  0.1496128592D-01
      0.2187760000D+03  0.7350053084D-01
      0.6369160000D+02  0.2489367658D+00
      0.1882820000D+02  0.6024594331D+00
      0.2720230000D+01  0.2562017589D+00
 Atom N1       Shell     2 SP   3    bf    2 -     5          0.000000000000          0.000000000000          0.000000000000
      0.3063310000D+02  0.1119060795D+00  0.3831191864D-01
      0.7026140000D+01  0.9216666549D+00  0.2374031155D+00
      0.2112050000D+01 -0.2569191826D-02  0.8175923978D+00
 Atom N1       Shell     3 SP   1    bf    6 -     9          0.000000000000          0.000000000000          0.000000000000
      0.6840090000D+00  0.1000000000D+01  0.1000000000D+01
 Atom N1       Shell     4 SP   1    bf   10 -    13          0.000000000000          0.000000000000          0.000000000000
      0.2008780000D+00  0.1000000000D+01  0.1000000000D+01
 Atom N1       Shell     5 D   1     bf   14 -    18          0.000000000000          0.000000000000          0.000000000000
      0.9130000000D+00  0.1000000000D+01
 Atom C2       Shell     6 S   6     bf   19 -    19          0.000000000000          0.000000000000          2.199724801266
      0.4563240000D+04  0.1966650249D-02
      0.6820240000D+03  0.1523060193D-01
      0.1549730000D+03  0.7612690966D-01
      0.4445530000D+02  0.2608010331D+00
      0.1302900000D+02  0.6164620782D+00
      0.1827730000D+01  0.2210060280D+00
 Atom C2       Shell     7 SP   3    bf   20 -    23          0.000000000000          0.000000000000          2.199724801266
      0.2096420000D+02  0.1146600807D+00  0.4024869267D-01
      0.4803310000D+01  0.9199996477D+00  0.2375939567D+00
      0.1459330000D+01 -0.3030682134D-02  0.8158538515D+00
 Atom C2       Shell     8 SP   1    bf   24 -    27          0.000000000000          0.000000000000          2.199724801266
      0.4834560000D+00  0.1000000000D+01  0.1000000000D+01
 Atom C2       Shell     9 SP   1    bf   28 -    31          0.000000000000          0.000000000000          2.199724801266
      0.1455850000D+00  0.1000000000D+01  0.1000000000D+01
 Atom C2       Shell    10 D   1     bf   32 -    36          0.000000000000          0.000000000000          2.199724801266
      0.6260000000D+00  0.1000000000D+01
 Atom H3       Shell    11 S   3     bf   37 -    37          2.138143394414          0.000000000000          1.721283474734
      0.3386500000D+02  0.2549381454D-01
      0.5094790000D+01  0.1903731086D+00
      0.1158790000D+01  0.8521614860D+00
 Atom H3       Shell    12 S   1     bf   38 -    38          2.138143394414          0.000000000000          1.721283474734
      0.3258400000D+00  0.1000000000D+01
 Atom H3       Shell    13 S   1     bf   39 -    39          2.138143394414          0.000000000000          1.721283474734
      0.1027410000D+00  0.1000000000D+01
    39 basis functions,    69 primitive gaussians,    41 cartesian basis functions
     7 alpha electrons        7 beta electrons
       nuclear repulsion energy        24.3819339139 Hartrees.
 NAtoms=    3 NActive=    3 NUniq=    3 SFac= 1.00D+00 NAtFMM=   60 NAOKFM=F Big=F
 Integral buffers will be    131072 words long.
 Raffenetti 1 integral format.
 Two-electron integral symmetry is turned off.
 One-electron integrals computed using PRISM.
 NBasis=    39 RedAO= T EigKep=  5.89D-03  NBF=    39
 NBsUse=    39 1.00D-06 EigRej= -1.00D+00 NBFU=    39
 ExpMin= 1.03D-01 ExpMax= 6.29D+03 ExpMxC= 9.49D+02 IAcc=1 IRadAn=         1 AccDes= 0.00D+00
 Harris functional with IExCor=  205 and IRadAn=       1 diagonalized for initial guess.
 HarFok:  IExCor=  205 AccDes= 0.00D+00 IRadAn=         1 IDoV= 1 UseB2=F ITyADJ=14
 ICtDFT=  3500011 ScaDFX=  1.000000  1.000000  1.000000  1.000000
 FoFCou: FMM=F IPFlag=           0 FMFlag=      100000 FMFlg1=           0
         NFxFlg=           0 DoJE=T BraDBF=F KetDBF=T FulRan=T
         wScrn=  0.000000 ICntrl=     500 IOpCl=  0 I1Cent=   200000004 NGrid=           0
         NMat0=    1 NMatS0=      1 NMatT0=    0 NMatD0=    1 NMtDS0=    0 NMtDT0=    0
 Symmetry not used in FoFCou.
 Keep R1 ints in memory in canonical form, NReq=1159076.
 Requested convergence on RMS density matrix=1.00D-08 within 128 cycles.
 Requested convergence on MAX density matrix=1.00D-06.
 Requested convergence on             energy=1.00D-06.
 No special actions if energy rises.
 SCF Done:  E(RHF) =  -92.8162574644     A.U. after   13 cycles
            NFock= 13  Conv=0.76D-08     -V/T= 1.9997
 Range of M.O.s used for correlation:     1    39
 NBasis=    39 NAE=     7 NBE=     7 NFC=     0 NFV=     0
 NROrb=     39 NOA=     7 NOB=     7 NVA=    32 NVB=    32
 Symmetrizing basis deriv contribution to polar:
 IMax=3 JMax=2 DiffMx= 0.00D+00
 G2DrvN: will do     4 centers at a time, making    1 passes.
 Calling FoFCou, ICntrl=  3107 FMM=F I1Cent=   0 AccDes= 0.00D+00.
 End of G2Drv F.D. properties file   721 does not exist.
 End of G2Drv F.D. properties file   722 does not exist.
 End of G2Drv F.D. properties file   788 does not exist.
          IDoAtm=111
          Differentiating once with respect to nuclear coordinates.
 Keep R1 ints in memory in canonical form, NReq=1140434.
          There are    12 degrees of freedom in the 1st order CPHF.  IDoFFX=6 NUNeed=     0.
      6 vectors produced by pass  0 Test12= 1.87D-15 8.33D-09 XBig12= 6.58D-02 1.22D-01.
 AX will form     6 AO Fock derivatives at one time.
      6 vectors produced by pass  1 Test12= 1.87D-15 8.33D-09 XBig12= 8.31D-03 4.68D-02.
      6 vectors produced by pass  2 Test12= 1.87D-15 8.33D-09 XBig12= 5.51D-04 1.05D-02.
      6 vectors produced by pass  3 Test12= 1.87D-15 8.33D-09 XBig12= 6.78D-06 9.87D-04.
      6 vectors produced by pass  4 Test12= 1.87D-15 8.33D-09 XBig12= 5.24D-08 7.44D-05.
      6 vectors produced by pass  5 Test12= 1.87D-15 8.33D-09 XBig12= 6.77D-10 8.56D-06.
      6 vectors produced by pass  6 Test12= 1.87D-15 8.33D-09 XBig12= 4.61D-12 6.85D-07.
      4 vectors produced by pass  7 Test12= 1.87D-15 8.33D-09 XBig12= 2.73D-14 4.73D-08.
 InvSVY:  IOpt=1 It=  1 EMax= 6.66D-16
 Solved reduced A of dimension    46 with     6 vectors.
 End of Minotr F.D. properties file   721 does not exist.
 End of Minotr F.D. properties file   722 does not exist.
 End of Minotr F.D. properties file   788 does not exist.

 **********************************************************************

            Population analysis using the SCF density.

 **********************************************************************

 Alpha  occ. eigenvalues --  -15.64762 -11.28418  -1.31397  -0.71340  -0.62476
 Alpha  occ. eigenvalues --   -0.53632  -0.49469
 Alpha virt. eigenvalues --    0.09792   0.17350   0.17749   0.35189   0.45853
 Alpha virt. eigenvalues --    0.58366   0.59537   0.71398   0.76269   0.86425
 Alpha virt. eigenvalues --    0.86775   1.03558   1.27536   1.47462   1.60146
 Alpha virt. eigenvalues --    1.65226   1.74479   2.23104   2.29160   2.32576
 Alpha virt. eigenvalues --    2.54246   2.82195   2.82424   3.10809   3.19458
 Alpha virt. eigenvalues --    3.31890   3.40383   4.20376   4.24020   4.79358
 Alpha virt. eigenvalues --   24.98286  36.96774
          Condensed to atoms (all electrons):
               1          2          3
     1  N    6.601071   0.501896   0.059776
     2  C    0.501896   5.407865   0.237691
     3  H    0.059776   0.237691   0.392338
 Mulliken charges:
               1
     1  N   -0.162743
     2  C   -0.147452
     3  H    0.310195
 Sum of Mulliken charges =   0.00000
 Mulliken charges with hydrogens summed into heavy atoms:
               1
     1  N   -0.162743
     2  C    0.162743
 APT charges:
               1
     1  N   -0.286116
     2  C   -0.111163
     3  H    0.397279
 Sum of APT charges =   0.00000
 APT charges with hydrogens summed into heavy atoms:
               1
     1  N   -0.286116
     2  C    0.286116
 Electronic spatial extent (au):  <R**2>=             63.2238
 Charge=              0.0000 electrons
 Dipole moment (field-independent basis, Debye):
    X=              1.4525    Y=              0.0000    Z=              0.1707  Tot=              1.4625
 Quadrupole moment (field-independent basis, Debye-Ang):
   XX=             -9.4365   YY=            -12.1763   ZZ=            -14.2413
   XY=              0.0000   XZ=              1.4579   YZ=              0.0000
 Traceless Quadrupole moment (field-independent basis, Debye-Ang):
   XX=              2.5149   YY=             -0.2249   ZZ=             -2.2899
   XY=              0.0000   XZ=              1.4579   YZ=              0.0000
 Octapole moment (field-independent basis, Debye-Ang**2):
  XXX=              0.4480  YYY=              0.0000  ZZZ=            -27.3553  XYY=             -0.6293
  XXY=              0.0000  XXZ=             -5.7869  XZZ=              0.4875  YZZ=              0.0000
  YYZ=             -7.4071  XYZ=              0.0000
 Hexadecapole moment (field-independent basis, Debye-Ang**3):
 XXXX=            -12.0304 YYYY=            -11.9906 ZZZZ=            -77.1597 XXXY=              0.0000
 XXXZ=              0.5611 YYYX=              0.0000 YYYZ=              0.0000 ZZZX=             -0.8265
 ZZZY=              0.0000 XXYY=             -4.5397 XXZZ=            -12.3820 YYZZ=            -13.0694
 XXYZ=              0.0000 YYXZ=             -0.5292 ZZXY=              0.0000
 N-N= 2.438193391386D+01 E-N=-2.660141951701D+02  KE= 9.284767826130D+01
  Exact polarizability:   0.000   0.000   0.000   0.000   0.000   0.000
 Approx polarizability:  12.647   0.000   9.027   0.097   0.000  19.615
 Calling FoFJK, ICntrl=    100147 FMM=F ISym2X=0 I1Cent= 0 IOpClX= 0 NMat=1 NMatS=1 NMatT=0.
 -------------------------------------------------------------------
 Center     Atomic                   Forces (Hartrees/Bohr)
 Number     Number              X              Y              Z
 -------------------------------------------------------------------
      1        7          -0.000000520    0.000000000    0.000004769
      2        6           0.000006551    0.000000000   -0.000006652
      3        1          -0.000006031    0.000000000    0.000001883
 -------------------------------------------------------------------
 Cartesian Forces:  Max     0.000006652 RMS     0.000004084
 -----------------------------------------------------------------------------------------------
                       Internal Coordinate Forces (Hartree/Bohr or radian)
  Cent   Atom   N1       Length/X         N2         Alpha/Y        N3         Beta/Z          J
 -----------------------------------------------------------------------------------------------
      1  N 
      2  C        1  -0.000005(     1)
      3  H        2  -0.000006(     2)      1   0.000001(     3)
 -----------------------------------------------------------------------------------------------
 Internal  Forces:  Max     0.000006297 RMS     0.000004608
 IRC-IRC-IRC-IRC-IRC-IRC-IRC-IRC-IRC-IRC-IRC-IRC-IRC-IRC-IRC-IRC-IRC-IRC
          ******** Start new reaction path calculation ********
 Supplied step size of   0.1000 bohr.
    Integration on MW PES will use step size of   0.1083 sqrt(amu)*bohr.
 Point Number:   0          Path Number:   1
 Calculating another point on the path.
 IRC-IRC-IRC-IRC-IRC-IRC-IRC-IRC-IRC-IRC-IRC-IRC-IRC-IRC-IRC-IRC-IRC-IRC
                          Input orientation:                          
 ---------------------------------------------------------------------
 Center     Atomic      Atomic             Coordinates (Angstroms)
 Number     Number       Type             X           Y           Z
 ---------------------------------------------------------------------
      1          7           0       -0.038479    0.000000   -0.549773
      2          6           0       -0.046161    0.000000    0.615723
      3          1           0        1.084272    0.000000    0.307424
 ---------------------------------------------------------------------
                    Distance matrix (angstroms):
                    1          2          3
     1  N    0.000000
     2  C    1.165521   0.000000
     3  H    1.412571   1.171720   0.000000
 Symmetry turned off by external request.
 Stoichiometry    CHN
 Framework group  CS[SG(CHN)]
 Deg. of freedom     3
 Full point group                 CS      NOp   2
 Rotational constants (GHZ):    414.2173160     56.8599930     49.9968758
 Standard basis: 6-311G(d) (5D, 7F)
    39 basis functions,    69 primitive gaussians,    41 cartesian basis functions
     7 alpha electrons        7 beta electrons
       nuclear repulsion energy        24.4011836615 Hartrees.
 NAtoms=    3 NActive=    3 NUniq=    3 SFac= 1.00D+00 NAtFMM=   60 NAOKFM=F Big=F
 Integral buffers will be    131072 words long.
 Raffenetti 1 integral format.
 Two-electron integral symmetry is turned off.
 One-electron integrals computed using PRISM.
 NBasis=    39 RedAO= T EigKep=  5.98D-03  NBF=    39
 NBsUse=    39 1.00D-06 EigRej= -1.00D+00 NBFU=    39
 Initial guess from the checkpoint file:  "HNCirc6311Gs.chk"
 B after Tr=    -0.085068    0.000000   -1.044266
         Rot=    0.999997    0.000000   -0.002326    0.000000 Ang=  -0.27 deg.
 ExpMin= 1.03D-01 ExpMax= 6.29D+03 ExpMxC= 9.49D+02 IAcc=1 IRadAn=         1 AccDes= 0.00D+00
 Harris functional with IExCor=  205 and IRadAn=       1 diagonalized for initial guess.
 HarFok:  IExCor=  205 AccDes= 0.00D+00 IRadAn=         1 IDoV= 1 UseB2=F ITyADJ=14
 ICtDFT=  3500011 ScaDFX=  1.000000  1.000000  1.000000  1.000000
 FoFCou: FMM=F IPFlag=           0 FMFlag=      100000 FMFlg1=           0
         NFxFlg=           0 DoJE=T BraDBF=F KetDBF=T FulRan=T
         wScrn=  0.000000 ICntrl=     500 IOpCl=  0 I1Cent=   200000004 NGrid=           0
         NMat0=    1 NMatS0=      1 NMatT0=    0 NMatD0=    1 NMtDS0=    0 NMtDT0=    0
 Symmetry not used in FoFCou.
 Keep R1 ints in memory in canonical form, NReq=1159076.
 Requested convergence on RMS density matrix=1.00D-08 within 128 cycles.
 Requested convergence on MAX density matrix=1.00D-06.
 Requested convergence on             energy=1.00D-06.
 No special actions if energy rises.
 SCF Done:  E(RHF) =  -92.8165742275     A.U. after   12 cycles
            NFock= 12  Conv=0.23D-08     -V/T= 1.9997
 Range of M.O.s used for correlation:     1    39
 NBasis=    39 NAE=     7 NBE=     7 NFC=     0 NFV=     0
 NROrb=     39 NOA=     7 NOB=     7 NVA=    32 NVB=    32
 Symmetrizing basis deriv contribution to polar:
 IMax=3 JMax=2 DiffMx= 0.00D+00
 Calling FoFJK, ICntrl=      2147 FMM=F ISym2X=0 I1Cent= 0 IOpClX= 0 NMat=1 NMatS=1 NMatT=0.
 -------------------------------------------------------------------
 Center     Atomic                   Forces (Hartrees/Bohr)
 Number     Number              X              Y              Z
 -------------------------------------------------------------------
      1        7           0.005428723    0.000000000    0.002181577
      2        6          -0.004372507    0.000000000    0.003142295
      3        1          -0.001056217    0.000000000   -0.005323872
 -------------------------------------------------------------------
 Cartesian Forces:  Max     0.005428723 RMS     0.003209056
 -----------------------------------------------------------------------------------------------
                       Internal Coordinate Forces (Hartree/Bohr or radian)
  Cent   Atom   N1       Length/X         N2         Alpha/Y        N3         Beta/Z          J
 -----------------------------------------------------------------------------------------------
      1  N 
      2  C        1  -0.002182(     1)
      3  H        2   0.000132(     2)      1  -0.011889(     3)
 -----------------------------------------------------------------------------------------------
 Internal  Forces:  Max     0.011888540 RMS     0.006978874
 IRC-IRC-IRC-IRC-IRC-IRC-IRC-IRC-IRC-IRC-IRC-IRC-IRC-IRC-IRC-IRC-IRC-IRC
 Pt  1 Step number   1 out of a maximum of  20
 Modified Bulirsch-Stoer Extrapolation Cycles:
    EPS =    0.000010000000000
 Maximum DWI energy   std dev =  0.000000462 at pt     1
 Maximum DWI gradient std dev =  0.048449122 at pt     1
 CORRECTOR INTEGRATION CONVERGENCE:
   Recorrection delta-x convergence threshold:    0.010000
   Delta-x Convergence Met
 Point Number:   1          Path Number:   1
   CHANGE IN THE REACTION COORDINATE =    0.10830
   NET REACTION COORDINATE UP TO THIS POINT =    0.10830
  # OF POINTS ALONG THE PATH =   1
  # OF STEPS =   1

 Calculating another point on the path.
 IRC-IRC-IRC-IRC-IRC-IRC-IRC-IRC-IRC-IRC-IRC-IRC-IRC-IRC-IRC-IRC-IRC-IRC
                          Input orientation:                          
 ---------------------------------------------------------------------
 Center     Atomic      Atomic             Coordinates (Angstroms)
 Number     Number       Type             X           Y           Z
 ---------------------------------------------------------------------
      1          7           0       -0.034710    0.000000   -0.548334
      2          6           0       -0.050007    0.000000    0.618423
      3          1           0        1.077695    0.000000    0.255213
 ---------------------------------------------------------------------
                    Distance matrix (angstroms):
                    1          2          3
     1  N    0.000000
     2  C    1.166858   0.000000
     3  H    1.372273   1.184751   0.000000
 Symmetry turned off by external request.
 Stoichiometry    CHN
 Framework group  CS[SG(CHN)]
 Deg. of freedom     3
 Full point group                 CS      NOp   2
 Rotational constants (GHZ):    416.4634805     56.9812659     50.1233069
 Standard basis: 6-311G(d) (5D, 7F)
    39 basis functions,    69 primitive gaussians,    41 cartesian basis functions
     7 alpha electrons        7 beta electrons
       nuclear repulsion energy        24.4265491920 Hartrees.
 NAtoms=    3 NActive=    3 NUniq=    3 SFac= 1.00D+00 NAtFMM=   60 NAOKFM=F Big=F
 Integral buffers will be    131072 words long.
 Raffenetti 1 integral format.
 Two-electron integral symmetry is turned off.
 One-electron integrals computed using PRISM.
 NBasis=    39 RedAO= T EigKep=  6.07D-03  NBF=    39
 NBsUse=    39 1.00D-06 EigRej= -1.00D+00 NBFU=    39
 Initial guess from the checkpoint file:  "HNCirc6311Gs.chk"
 B after Tr=    -0.000537    0.000000   -0.003166
         Rot=    0.999997    0.000000   -0.002308    0.000000 Ang=  -0.26 deg.
 ExpMin= 1.03D-01 ExpMax= 6.29D+03 ExpMxC= 9.49D+02 IAcc=1 IRadAn=         1 AccDes= 0.00D+00
 Harris functional with IExCor=  205 and IRadAn=       1 diagonalized for initial guess.
 HarFok:  IExCor=  205 AccDes= 0.00D+00 IRadAn=         1 IDoV= 1 UseB2=F ITyADJ=14
 ICtDFT=  3500011 ScaDFX=  1.000000  1.000000  1.000000  1.000000
 FoFCou: FMM=F IPFlag=           0 FMFlag=      100000 FMFlg1=           0
         NFxFlg=           0 DoJE=T BraDBF=F KetDBF=T FulRan=T
         wScrn=  0.000000 ICntrl=     500 IOpCl=  0 I1Cent=   200000004 NGrid=           0
         NMat0=    1 NMatS0=      1 NMatT0=    0 NMatD0=    1 NMtDS0=    0 NMtDT0=    0
 Symmetry not used in FoFCou.
 Keep R1 ints in memory in canonical form, NReq=1159090.
 Requested convergence on RMS density matrix=1.00D-08 within 128 cycles.
 Requested convergence on MAX density matrix=1.00D-06.
 Requested convergence on             energy=1.00D-06.
 No special actions if energy rises.
 SCF Done:  E(RHF) =  -92.8175061392     A.U. after   12 cycles
            NFock= 12  Conv=0.36D-08     -V/T= 1.9997
 Range of M.O.s used for correlation:     1    39
 NBasis=    39 NAE=     7 NBE=     7 NFC=     0 NFV=     0
 NROrb=     39 NOA=     7 NOB=     7 NVA=    32 NVB=    32
 Symmetrizing basis deriv contribution to polar:
 IMax=3 JMax=2 DiffMx= 0.00D+00
 Calling FoFJK, ICntrl=      2147 FMM=F ISym2X=0 I1Cent= 0 IOpClX= 0 NMat=1 NMatS=1 NMatT=0.
 -------------------------------------------------------------------
 Center     Atomic                   Forces (Hartrees/Bohr)
 Number     Number              X              Y              Z
 -------------------------------------------------------------------
      1        7           0.010577637    0.000000000    0.004310270
      2        6          -0.008474207    0.000000000    0.006014691
      3        1          -0.002103430    0.000000000   -0.010324961
 -------------------------------------------------------------------
 Cartesian Forces:  Max     0.010577637 RMS     0.006231486
 -----------------------------------------------------------------------------------------------
                       Internal Coordinate Forces (Hartree/Bohr or radian)
  Cent   Atom   N1       Length/X         N2         Alpha/Y        N3         Beta/Z          J
 -----------------------------------------------------------------------------------------------
      1  N 
      2  C        1  -0.004310(     1)
      3  H        2   0.000202(     2)      1  -0.023083(     3)
 -----------------------------------------------------------------------------------------------
 Internal  Forces:  Max     0.023082615 RMS     0.013557609
 IRC-IRC-IRC-IRC-IRC-IRC-IRC-IRC-IRC-IRC-IRC-IRC-IRC-IRC-IRC-IRC-IRC-IRC
 Pt  2 Step number   1 out of a maximum of  20
 Modified Bulirsch-Stoer Extrapolation Cycles:
    EPS =    0.000010000000000
 Maximum DWI energy   std dev =  0.000001384 at pt    37
 Maximum DWI gradient std dev =  0.030397682 at pt    27
 CORRECTOR INTEGRATION CONVERGENCE:
   Recorrection delta-x convergence threshold:    0.010000
   Delta-x Convergence Met
 Point Number:   2          Path Number:   1
   CHANGE IN THE REACTION COORDINATE =    0.10827
   NET REACTION COORDINATE UP TO THIS POINT =    0.21657
  # OF POINTS ALONG THE PATH =   2
  # OF STEPS =   1

 Calculating another point on the path.
 IRC-IRC-IRC-IRC-IRC-IRC-IRC-IRC-IRC-IRC-IRC-IRC-IRC-IRC-IRC-IRC-IRC-IRC
                          Input orientation:                          
 ---------------------------------------------------------------------
 Center     Atomic      Atomic             Coordinates (Angstroms)
 Number     Number       Type             X           Y           Z
 ---------------------------------------------------------------------
      1          7           0       -0.030911    0.000000   -0.546812
      2          6           0       -0.053741    0.000000    0.621009
      3          1           0        1.069350    0.000000    0.203127
 ---------------------------------------------------------------------
                    Distance matrix (angstroms):
                    1          2          3
     1  N    0.000000
     2  C    1.168044   0.000000
     3  H    1.331534   1.198314   0.000000
 Symmetry turned off by external request.
 Stoichiometry    CHN
 Framework group  CS[SG(CHN)]
 Deg. of freedom     3
 Full point group                 CS      NOp   2
 Rotational constants (GHZ):    421.1150788     57.0613338     50.2521401
 Standard basis: 6-311G(d) (5D, 7F)
    39 basis functions,    69 primitive gaussians,    41 cartesian basis functions
     7 alpha electrons        7 beta electrons
       nuclear repulsion energy        24.4594605592 Hartrees.
 NAtoms=    3 NActive=    3 NUniq=    3 SFac= 1.00D+00 NAtFMM=   60 NAOKFM=F Big=F
 Integral buffers will be    131072 words long.
 Raffenetti 1 integral format.
 Two-electron integral symmetry is turned off.
 One-electron integrals computed using PRISM.
 NBasis=    39 RedAO= T EigKep=  6.14D-03  NBF=    39
 NBsUse=    39 1.00D-06 EigRej= -1.00D+00 NBFU=    39
 Initial guess from the checkpoint file:  "HNCirc6311Gs.chk"
 B after Tr=    -0.000639    0.000000   -0.003167
         Rot=    0.999997    0.000000   -0.002296    0.000000 Ang=  -0.26 deg.
 ExpMin= 1.03D-01 ExpMax= 6.29D+03 ExpMxC= 9.49D+02 IAcc=1 IRadAn=         1 AccDes= 0.00D+00
 Harris functional with IExCor=  205 and IRadAn=       1 diagonalized for initial guess.
 HarFok:  IExCor=  205 AccDes= 0.00D+00 IRadAn=         1 IDoV= 1 UseB2=F ITyADJ=14
 ICtDFT=  3500011 ScaDFX=  1.000000  1.000000  1.000000  1.000000
 FoFCou: FMM=F IPFlag=           0 FMFlag=      100000 FMFlg1=           0
         NFxFlg=           0 DoJE=T BraDBF=F KetDBF=T FulRan=T
         wScrn=  0.000000 ICntrl=     500 IOpCl=  0 I1Cent=   200000004 NGrid=           0
         NMat0=    1 NMatS0=      1 NMatT0=    0 NMatD0=    1 NMtDS0=    0 NMtDT0=    0
 Symmetry not used in FoFCou.
 Keep R1 ints in memory in canonical form, NReq=1159090.
 Requested convergence on RMS density matrix=1.00D-08 within 128 cycles.
 Requested convergence on MAX density matrix=1.00D-06.
 Requested convergence on             energy=1.00D-06.
 No special actions if energy rises.
 SCF Done:  E(RHF) =  -92.8190040601     A.U. after   12 cycles
            NFock= 12  Conv=0.20D-08     -V/T= 1.9997
 Range of M.O.s used for correlation:     1    39
 NBasis=    39 NAE=     7 NBE=     7 NFC=     0 NFV=     0
 NROrb=     39 NOA=     7 NOB=     7 NVA=    32 NVB=    32
 Symmetrizing basis deriv contribution to polar:
 IMax=3 JMax=2 DiffMx= 0.00D+00
 Calling FoFJK, ICntrl=      2147 FMM=F ISym2X=0 I1Cent= 0 IOpClX= 0 NMat=1 NMatS=1 NMatT=0.
 -------------------------------------------------------------------
 Center     Atomic                   Forces (Hartrees/Bohr)
 Number     Number              X              Y              Z
 -------------------------------------------------------------------
      1        7           0.015102709    0.000000000    0.006197442
      2        6          -0.012319512    0.000000000    0.008597170
      3        1          -0.002783197    0.000000000   -0.014794613
 -------------------------------------------------------------------
 Cartesian Forces:  Max     0.015102709 RMS     0.008936869
 -----------------------------------------------------------------------------------------------
                       Internal Coordinate Forces (Hartree/Bohr or radian)
  Cent   Atom   N1       Length/X         N2         Alpha/Y        N3         Beta/Z          J
 -----------------------------------------------------------------------------------------------
      1  N 
      2  C        1  -0.006197(     1)
      3  H        2   0.000515(     2)      1  -0.032965(     3)
 -----------------------------------------------------------------------------------------------
 Internal  Forces:  Max     0.032964600 RMS     0.019367825
 IRC-IRC-IRC-IRC-IRC-IRC-IRC-IRC-IRC-IRC-IRC-IRC-IRC-IRC-IRC-IRC-IRC-IRC
 Pt  3 Step number   1 out of a maximum of  20
 Modified Bulirsch-Stoer Extrapolation Cycles:
    EPS =    0.000010000000000
 Maximum DWI energy   std dev =  0.000003291 at pt    36
 Maximum DWI gradient std dev =  0.014804243 at pt    28
 CORRECTOR INTEGRATION CONVERGENCE:
   Recorrection delta-x convergence threshold:    0.010000
   Delta-x Convergence Met
 Point Number:   3          Path Number:   1
   CHANGE IN THE REACTION COORDINATE =    0.10828
   NET REACTION COORDINATE UP TO THIS POINT =    0.32485
  # OF POINTS ALONG THE PATH =   3
  # OF STEPS =   1

 Calculating another point on the path.
 IRC-IRC-IRC-IRC-IRC-IRC-IRC-IRC-IRC-IRC-IRC-IRC-IRC-IRC-IRC-IRC-IRC-IRC
                          Input orientation:                          
 ---------------------------------------------------------------------
 Center     Atomic      Atomic             Coordinates (Angstroms)
 Number     Number       Type             X           Y           Z
 ---------------------------------------------------------------------
      1          7           0       -0.027106    0.000000   -0.545251
      2          6           0       -0.057427    0.000000    0.623547
      3          1           0        1.060349    0.000000    0.151118
 ---------------------------------------------------------------------
                    Distance matrix (angstroms):
                    1          2          3
     1  N    0.000000
     2  C    1.169191   0.000000
     3  H    1.291313   1.213512   0.000000
 Symmetry turned off by external request.
 Stoichiometry    CHN
 Framework group  CS[SG(CHN)]
 Deg. of freedom     3
 Full point group                 CS      NOp   2
 Rotational constants (GHZ):    427.3774679     57.0899683     50.3624480
 Standard basis: 6-311G(d) (5D, 7F)
    39 basis functions,    69 primitive gaussians,    41 cartesian basis functions
     7 alpha electrons        7 beta electrons
       nuclear repulsion energy        24.4942588431 Hartrees.
 NAtoms=    3 NActive=    3 NUniq=    3 SFac= 1.00D+00 NAtFMM=   60 NAOKFM=F Big=F
 Integral buffers will be    131072 words long.
 Raffenetti 1 integral format.
 Two-electron integral symmetry is turned off.
 One-electron integrals computed using PRISM.
 NBasis=    39 RedAO= T EigKep=  6.21D-03  NBF=    39
 NBsUse=    39 1.00D-06 EigRej= -1.00D+00 NBFU=    39
 Initial guess from the checkpoint file:  "HNCirc6311Gs.chk"
 B after Tr=    -0.000667    0.000000   -0.003159
         Rot=    0.999997    0.000000   -0.002303    0.000000 Ang=  -0.26 deg.
 ExpMin= 1.03D-01 ExpMax= 6.29D+03 ExpMxC= 9.49D+02 IAcc=1 IRadAn=         1 AccDes= 0.00D+00
 Harris functional with IExCor=  205 and IRadAn=       1 diagonalized for initial guess.
 HarFok:  IExCor=  205 AccDes= 0.00D+00 IRadAn=         1 IDoV= 1 UseB2=F ITyADJ=14
 ICtDFT=  3500011 ScaDFX=  1.000000  1.000000  1.000000  1.000000
 FoFCou: FMM=F IPFlag=           0 FMFlag=      100000 FMFlg1=           0
         NFxFlg=           0 DoJE=T BraDBF=F KetDBF=T FulRan=T
         wScrn=  0.000000 ICntrl=     500 IOpCl=  0 I1Cent=   200000004 NGrid=           0
         NMat0=    1 NMatS0=      1 NMatT0=    0 NMatD0=    1 NMtDS0=    0 NMtDT0=    0
 Symmetry not used in FoFCou.
 Keep R1 ints in memory in canonical form, NReq=1159090.
 Requested convergence on RMS density matrix=1.00D-08 within 128 cycles.
 Requested convergence on MAX density matrix=1.00D-06.
 Requested convergence on             energy=1.00D-06.
 No special actions if energy rises.
 SCF Done:  E(RHF) =  -92.8209838796     A.U. after   12 cycles
            NFock= 12  Conv=0.15D-08     -V/T= 1.9997
 Range of M.O.s used for correlation:     1    39
 NBasis=    39 NAE=     7 NBE=     7 NFC=     0 NFV=     0
 NROrb=     39 NOA=     7 NOB=     7 NVA=    32 NVB=    32
 Symmetrizing basis deriv contribution to polar:
 IMax=3 JMax=2 DiffMx= 0.00D+00
 Calling FoFJK, ICntrl=      2147 FMM=F ISym2X=0 I1Cent= 0 IOpClX= 0 NMat=1 NMatS=1 NMatT=0.
 -------------------------------------------------------------------
 Center     Atomic                   Forces (Hartrees/Bohr)
 Number     Number              X              Y              Z
 -------------------------------------------------------------------
      1        7           0.018764291    0.000000000    0.007848359
      2        6          -0.015475358    0.000000000    0.010595264
      3        1          -0.003288933    0.000000000   -0.018443623
 -------------------------------------------------------------------
 Cartesian Forces:  Max     0.018764291 RMS     0.011137654
 -----------------------------------------------------------------------------------------------
                       Internal Coordinate Forces (Hartree/Bohr or radian)
  Cent   Atom   N1       Length/X         N2         Alpha/Y        N3         Beta/Z          J
 -----------------------------------------------------------------------------------------------
      1  N 
      2  C        1  -0.007848(     1)
      3  H        2   0.000818(     2)      1  -0.041009(     3)
 -----------------------------------------------------------------------------------------------
 Internal  Forces:  Max     0.041008673 RMS     0.024110695
 IRC-IRC-IRC-IRC-IRC-IRC-IRC-IRC-IRC-IRC-IRC-IRC-IRC-IRC-IRC-IRC-IRC-IRC
 Pt  4 Step number   1 out of a maximum of  20
 Modified Bulirsch-Stoer Extrapolation Cycles:
    EPS =    0.000010000000000
 Maximum DWI energy   std dev =  0.000005451 at pt    36
 Maximum DWI gradient std dev =  0.005471894 at pt    38
 CORRECTOR INTEGRATION CONVERGENCE:
   Recorrection delta-x convergence threshold:    0.010000
   Delta-x Convergence Met
 Point Number:   4          Path Number:   1
   CHANGE IN THE REACTION COORDINATE =    0.10829
   NET REACTION COORDINATE UP TO THIS POINT =    0.43314
  # OF POINTS ALONG THE PATH =   4
  # OF STEPS =   1

 Calculating another point on the path.
 IRC-IRC-IRC-IRC-IRC-IRC-IRC-IRC-IRC-IRC-IRC-IRC-IRC-IRC-IRC-IRC-IRC-IRC
                          Input orientation:                          
 ---------------------------------------------------------------------
 Center     Atomic      Atomic             Coordinates (Angstroms)
 Number     Number       Type             X           Y           Z
 ---------------------------------------------------------------------
      1          7           0       -0.023303    0.000000   -0.543654
      2          6           0       -0.061102    0.000000    0.626050
      3          1           0        1.051265    0.000000    0.099116
 ---------------------------------------------------------------------
                    Distance matrix (angstroms):
                    1          2          3
     1  N    0.000000
     2  C    1.170314   0.000000
     3  H    1.252138   1.230861   0.000000
 Symmetry turned off by external request.
 Stoichiometry    CHN
 Framework group  CS[SG(CHN)]
 Deg. of freedom     3
 Full point group                 CS      NOp   2
 Rotational constants (GHZ):    434.8637199     57.0665370     50.4465139
 Standard basis: 6-311G(d) (5D, 7F)
    39 basis functions,    69 primitive gaussians,    41 cartesian basis functions
     7 alpha electrons        7 beta electrons
       nuclear repulsion energy        24.5288814813 Hartrees.
 NAtoms=    3 NActive=    3 NUniq=    3 SFac= 1.00D+00 NAtFMM=   60 NAOKFM=F Big=F
 Integral buffers will be    131072 words long.
 Raffenetti 1 integral format.
 Two-electron integral symmetry is turned off.
 One-electron integrals computed using PRISM.
 NBasis=    39 RedAO= T EigKep=  6.27D-03  NBF=    39
 NBsUse=    39 1.00D-06 EigRej= -1.00D+00 NBFU=    39
 Initial guess from the checkpoint file:  "HNCirc6311Gs.chk"
 B after Tr=    -0.000656    0.000000   -0.003155
         Rot=    0.999997    0.000000   -0.002316    0.000000 Ang=  -0.27 deg.
 ExpMin= 1.03D-01 ExpMax= 6.29D+03 ExpMxC= 9.49D+02 IAcc=1 IRadAn=         1 AccDes= 0.00D+00
 Harris functional with IExCor=  205 and IRadAn=       1 diagonalized for initial guess.
 HarFok:  IExCor=  205 AccDes= 0.00D+00 IRadAn=         1 IDoV= 1 UseB2=F ITyADJ=14
 ICtDFT=  3500011 ScaDFX=  1.000000  1.000000  1.000000  1.000000
 FoFCou: FMM=F IPFlag=           0 FMFlag=      100000 FMFlg1=           0
         NFxFlg=           0 DoJE=T BraDBF=F KetDBF=T FulRan=T
         wScrn=  0.000000 ICntrl=     500 IOpCl=  0 I1Cent=   200000004 NGrid=           0
         NMat0=    1 NMatS0=      1 NMatT0=    0 NMatD0=    1 NMtDS0=    0 NMtDT0=    0
 Symmetry not used in FoFCou.
 Keep R1 ints in memory in canonical form, NReq=1159104.
 Requested convergence on RMS density matrix=1.00D-08 within 128 cycles.
 Requested convergence on MAX density matrix=1.00D-06.
 Requested convergence on             energy=1.00D-06.
 No special actions if energy rises.
 SCF Done:  E(RHF) =  -92.8233317950     A.U. after   12 cycles
            NFock= 12  Conv=0.13D-08     -V/T= 1.9996
 Range of M.O.s used for correlation:     1    39
 NBasis=    39 NAE=     7 NBE=     7 NFC=     0 NFV=     0
 NROrb=     39 NOA=     7 NOB=     7 NVA=    32 NVB=    32
 Symmetrizing basis deriv contribution to polar:
 IMax=3 JMax=2 DiffMx= 0.00D+00
 Calling FoFJK, ICntrl=      2147 FMM=F ISym2X=0 I1Cent= 0 IOpClX= 0 NMat=1 NMatS=1 NMatT=0.
 -------------------------------------------------------------------
 Center     Atomic                   Forces (Hartrees/Bohr)
 Number     Number              X              Y              Z
 -------------------------------------------------------------------
      1        7           0.021259382    0.000000000    0.009071649
      2        6          -0.017843773    0.000000000    0.011973812
      3        1          -0.003415609    0.000000000   -0.021045461
 -------------------------------------------------------------------
 Cartesian Forces:  Max     0.021259382 RMS     0.012695609
 -----------------------------------------------------------------------------------------------
                       Internal Coordinate Forces (Hartree/Bohr or radian)
  Cent   Atom   N1       Length/X         N2         Alpha/Y        N3         Beta/Z          J
 -----------------------------------------------------------------------------------------------
      1  N 
      2  C        1  -0.009072(     1)
      3  H        2   0.001262(     2)      1  -0.046632(     3)
 -----------------------------------------------------------------------------------------------
 Internal  Forces:  Max     0.046632383 RMS     0.027437612
 IRC-IRC-IRC-IRC-IRC-IRC-IRC-IRC-IRC-IRC-IRC-IRC-IRC-IRC-IRC-IRC-IRC-IRC
 Pt  5 Step number   1 out of a maximum of  20
 Modified Bulirsch-Stoer Extrapolation Cycles:
    EPS =    0.000010000000000
 Maximum DWI energy   std dev =  0.000007303 at pt    47
 Maximum DWI gradient std dev =  0.002070484 at pt    38
 CORRECTOR INTEGRATION CONVERGENCE:
   Recorrection delta-x convergence threshold:    0.010000
   Delta-x Convergence Met
 Point Number:   5          Path Number:   1
   CHANGE IN THE REACTION COORDINATE =    0.10829
   NET REACTION COORDINATE UP TO THIS POINT =    0.54143
  # OF POINTS ALONG THE PATH =   5
  # OF STEPS =   1

 Calculating another point on the path.
 IRC-IRC-IRC-IRC-IRC-IRC-IRC-IRC-IRC-IRC-IRC-IRC-IRC-IRC-IRC-IRC-IRC-IRC
                          Input orientation:                          
 ---------------------------------------------------------------------
 Center     Atomic      Atomic             Coordinates (Angstroms)
 Number     Number       Type             X           Y           Z
 ---------------------------------------------------------------------
      1          7           0       -0.019518    0.000000   -0.542032
      2          6           0       -0.064806    0.000000    0.628534
      3          1           0        1.042782    0.000000    0.047019
 ---------------------------------------------------------------------
                    Distance matrix (angstroms):
                    1          2          3
     1  N    0.000000
     2  C    1.171442   0.000000
     3  H    1.214686   1.250964   0.000000
 Symmetry turned off by external request.
 Stoichiometry    CHN
 Framework group  CS[SG(CHN)]
 Deg. of freedom     3
 Full point group                 CS      NOp   2
 Rotational constants (GHZ):    443.0651993     56.9892343     50.4943957
 Standard basis: 6-311G(d) (5D, 7F)
    39 basis functions,    69 primitive gaussians,    41 cartesian basis functions
     7 alpha electrons        7 beta electrons
       nuclear repulsion energy        24.5603563795 Hartrees.
 NAtoms=    3 NActive=    3 NUniq=    3 SFac= 1.00D+00 NAtFMM=   60 NAOKFM=F Big=F
 Integral buffers will be    131072 words long.
 Raffenetti 1 integral format.
 Two-electron integral symmetry is turned off.
 One-electron integrals computed using PRISM.
 NBasis=    39 RedAO= T EigKep=  6.31D-03  NBF=    39
 NBsUse=    39 1.00D-06 EigRej= -1.00D+00 NBFU=    39
 Initial guess from the checkpoint file:  "HNCirc6311Gs.chk"
 B after Tr=    -0.000599    0.000000   -0.003159
         Rot=    0.999997    0.000000   -0.002335    0.000000 Ang=  -0.27 deg.
 ExpMin= 1.03D-01 ExpMax= 6.29D+03 ExpMxC= 9.49D+02 IAcc=1 IRadAn=         1 AccDes= 0.00D+00
 Harris functional with IExCor=  205 and IRadAn=       1 diagonalized for initial guess.
 HarFok:  IExCor=  205 AccDes= 0.00D+00 IRadAn=         1 IDoV= 1 UseB2=F ITyADJ=14
 ICtDFT=  3500011 ScaDFX=  1.000000  1.000000  1.000000  1.000000
 FoFCou: FMM=F IPFlag=           0 FMFlag=      100000 FMFlg1=           0
         NFxFlg=           0 DoJE=T BraDBF=F KetDBF=T FulRan=T
         wScrn=  0.000000 ICntrl=     500 IOpCl=  0 I1Cent=   200000004 NGrid=           0
         NMat0=    1 NMatS0=      1 NMatT0=    0 NMatD0=    1 NMtDS0=    0 NMtDT0=    0
 Symmetry not used in FoFCou.
 Keep R1 ints in memory in canonical form, NReq=1159119.
 Requested convergence on RMS density matrix=1.00D-08 within 128 cycles.
 Requested convergence on MAX density matrix=1.00D-06.
 Requested convergence on             energy=1.00D-06.
 No special actions if energy rises.
 SCF Done:  E(RHF) =  -92.8259105506     A.U. after   12 cycles
            NFock= 12  Conv=0.10D-08     -V/T= 1.9996
 Range of M.O.s used for correlation:     1    39
 NBasis=    39 NAE=     7 NBE=     7 NFC=     0 NFV=     0
 NROrb=     39 NOA=     7 NOB=     7 NVA=    32 NVB=    32
 Symmetrizing basis deriv contribution to polar:
 IMax=3 JMax=2 DiffMx= 0.00D+00
 Calling FoFJK, ICntrl=      2147 FMM=F ISym2X=0 I1Cent= 0 IOpClX= 0 NMat=1 NMatS=1 NMatT=0.
 -------------------------------------------------------------------
 Center     Atomic                   Forces (Hartrees/Bohr)
 Number     Number              X              Y              Z
 -------------------------------------------------------------------
      1        7           0.022357211    0.000000000    0.009763925
      2        6          -0.019387001    0.000000000    0.012704341
      3        1          -0.002970210    0.000000000   -0.022468265
 -------------------------------------------------------------------
 Cartesian Forces:  Max     0.022468265 RMS     0.013523972
 -----------------------------------------------------------------------------------------------
                       Internal Coordinate Forces (Hartree/Bohr or radian)
  Cent   Atom   N1       Length/X         N2         Alpha/Y        N3         Beta/Z          J
 -----------------------------------------------------------------------------------------------
      1  N 
      2  C        1  -0.009764(     1)
      3  H        2   0.002008(     2)      1  -0.049461(     3)
 -----------------------------------------------------------------------------------------------
 Internal  Forces:  Max     0.049461444 RMS     0.029130738
 IRC-IRC-IRC-IRC-IRC-IRC-IRC-IRC-IRC-IRC-IRC-IRC-IRC-IRC-IRC-IRC-IRC-IRC
 Pt  6 Step number   1 out of a maximum of  20
 Modified Bulirsch-Stoer Extrapolation Cycles:
    EPS =    0.000010000000000
 Maximum DWI energy   std dev =  0.000008464 at pt    47
 Maximum DWI gradient std dev =  0.008472202 at pt    29
 CORRECTOR INTEGRATION CONVERGENCE:
   Recorrection delta-x convergence threshold:    0.010000
   Delta-x Convergence Met
 Point Number:   6          Path Number:   1
   CHANGE IN THE REACTION COORDINATE =    0.10829
   NET REACTION COORDINATE UP TO THIS POINT =    0.64972
  # OF POINTS ALONG THE PATH =   6
  # OF STEPS =   1

 Calculating another point on the path.
 IRC-IRC-IRC-IRC-IRC-IRC-IRC-IRC-IRC-IRC-IRC-IRC-IRC-IRC-IRC-IRC-IRC-IRC
                          Input orientation:                          
 ---------------------------------------------------------------------
 Center     Atomic      Atomic             Coordinates (Angstroms)
 Number     Number       Type             X           Y           Z
 ---------------------------------------------------------------------
      1          7           0       -0.015782    0.000000   -0.540393
      2          6           0       -0.068577    0.000000    0.631018
      3          1           0        1.035778    0.000000   -0.005290
 ---------------------------------------------------------------------
                    Distance matrix (angstroms):
                    1          2          3
     1  N    0.000000
     2  C    1.172600   0.000000
     3  H    1.179878   1.274554   0.000000
 Symmetry turned off by external request.
 Stoichiometry    CHN
 Framework group  CS[SG(CHN)]
 Deg. of freedom     3
 Full point group                 CS      NOp   2
 Rotational constants (GHZ):    451.2552269     56.8564493     50.4943522
 Standard basis: 6-311G(d) (5D, 7F)
    39 basis functions,    69 primitive gaussians,    41 cartesian basis functions
     7 alpha electrons        7 beta electrons
       nuclear repulsion energy        24.5846141656 Hartrees.
 NAtoms=    3 NActive=    3 NUniq=    3 SFac= 1.00D+00 NAtFMM=   60 NAOKFM=F Big=F
 Integral buffers will be    131072 words long.
 Raffenetti 1 integral format.
 Two-electron integral symmetry is turned off.
 One-electron integrals computed using PRISM.
 NBasis=    39 RedAO= T EigKep=  6.34D-03  NBF=    39
 NBsUse=    39 1.00D-06 EigRej= -1.00D+00 NBFU=    39
 Initial guess from the checkpoint file:  "HNCirc6311Gs.chk"
 B after Tr=    -0.000484    0.000000   -0.003170
         Rot=    0.999997    0.000000   -0.002360    0.000000 Ang=  -0.27 deg.
 ExpMin= 1.03D-01 ExpMax= 6.29D+03 ExpMxC= 9.49D+02 IAcc=1 IRadAn=         1 AccDes= 0.00D+00
 Harris functional with IExCor=  205 and IRadAn=       1 diagonalized for initial guess.
 HarFok:  IExCor=  205 AccDes= 0.00D+00 IRadAn=         1 IDoV= 1 UseB2=F ITyADJ=14
 ICtDFT=  3500011 ScaDFX=  1.000000  1.000000  1.000000  1.000000
 FoFCou: FMM=F IPFlag=           0 FMFlag=      100000 FMFlg1=           0
         NFxFlg=           0 DoJE=T BraDBF=F KetDBF=T FulRan=T
         wScrn=  0.000000 ICntrl=     500 IOpCl=  0 I1Cent=   200000004 NGrid=           0
         NMat0=    1 NMatS0=      1 NMatT0=    0 NMatD0=    1 NMtDS0=    0 NMtDT0=    0
 Symmetry not used in FoFCou.
 Keep R1 ints in memory in canonical form, NReq=1159119.
 Requested convergence on RMS density matrix=1.00D-08 within 128 cycles.
 Requested convergence on MAX density matrix=1.00D-06.
 Requested convergence on             energy=1.00D-06.
 No special actions if energy rises.
 SCF Done:  E(RHF) =  -92.8285763761     A.U. after   11 cycles
            NFock= 11  Conv=0.87D-08     -V/T= 1.9995
 Range of M.O.s used for correlation:     1    39
 NBasis=    39 NAE=     7 NBE=     7 NFC=     0 NFV=     0
 NROrb=     39 NOA=     7 NOB=     7 NVA=    32 NVB=    32
 Symmetrizing basis deriv contribution to polar:
 IMax=3 JMax=2 DiffMx= 0.00D+00
 Calling FoFJK, ICntrl=      2147 FMM=F ISym2X=0 I1Cent= 0 IOpClX= 0 NMat=1 NMatS=1 NMatT=0.
 -------------------------------------------------------------------
 Center     Atomic                   Forces (Hartrees/Bohr)
 Number     Number              X              Y              Z
 -------------------------------------------------------------------
      1        7           0.022028007    0.000000000    0.009939231
      2        6          -0.020110692    0.000000000    0.012796751
      3        1          -0.001917315    0.000000000   -0.022735982
 -------------------------------------------------------------------
 Cartesian Forces:  Max     0.022735982 RMS     0.013633370
 -----------------------------------------------------------------------------------------------
                       Internal Coordinate Forces (Hartree/Bohr or radian)
  Cent   Atom   N1       Length/X         N2         Alpha/Y        N3         Beta/Z          J
 -----------------------------------------------------------------------------------------------
      1  N 
      2  C        1  -0.009939(     1)
      3  H        2   0.003094(     2)      1  -0.049530(     3)
 -----------------------------------------------------------------------------------------------
 Internal  Forces:  Max     0.049530112 RMS     0.029220947
 IRC-IRC-IRC-IRC-IRC-IRC-IRC-IRC-IRC-IRC-IRC-IRC-IRC-IRC-IRC-IRC-IRC-IRC
 Pt  7 Step number   1 out of a maximum of  20
 Modified Bulirsch-Stoer Extrapolation Cycles:
    EPS =    0.000010000000000
 Maximum DWI energy   std dev =  0.000008330 at pt    47
 Maximum DWI gradient std dev =  0.014851710 at pt    29
 CORRECTOR INTEGRATION CONVERGENCE:
   Recorrection delta-x convergence threshold:    0.010000
   Delta-x Convergence Met
 Point Number:   7          Path Number:   1
   CHANGE IN THE REACTION COORDINATE =    0.10828
   NET REACTION COORDINATE UP TO THIS POINT =    0.75800
  # OF POINTS ALONG THE PATH =   7
  # OF STEPS =   1

 Calculating another point on the path.
 IRC-IRC-IRC-IRC-IRC-IRC-IRC-IRC-IRC-IRC-IRC-IRC-IRC-IRC-IRC-IRC-IRC-IRC
                          Input orientation:                          
 ---------------------------------------------------------------------
 Center     Atomic      Atomic             Coordinates (Angstroms)
 Number     Number       Type             X           Y           Z
 ---------------------------------------------------------------------
      1          7           0       -0.012138    0.000000   -0.538738
      2          6           0       -0.072445    0.000000    0.633507
      3          1           0        1.031213    0.000000   -0.057885
 ---------------------------------------------------------------------
                    Distance matrix (angstroms):
                    1          2          3
     1  N    0.000000
     2  C    1.173795   0.000000
     3  H    1.148826   1.302338   0.000000
 Symmetry turned off by external request.
 Stoichiometry    CHN
 Framework group  CS[SG(CHN)]
 Deg. of freedom     3
 Full point group                 CS      NOp   2
 Rotational constants (GHZ):    458.5575836     56.6680614     50.4353181
 Standard basis: 6-311G(d) (5D, 7F)
    39 basis functions,    69 primitive gaussians,    41 cartesian basis functions
     7 alpha electrons        7 beta electrons
       nuclear repulsion energy        24.5970354647 Hartrees.
 NAtoms=    3 NActive=    3 NUniq=    3 SFac= 1.00D+00 NAtFMM=   60 NAOKFM=F Big=F
 Integral buffers will be    131072 words long.
 Raffenetti 1 integral format.
 Two-electron integral symmetry is turned off.
 One-electron integrals computed using PRISM.
 NBasis=    39 RedAO= T EigKep=  6.36D-03  NBF=    39
 NBsUse=    39 1.00D-06 EigRej= -1.00D+00 NBFU=    39
 Initial guess from the checkpoint file:  "HNCirc6311Gs.chk"
 B after Tr=    -0.000304    0.000000   -0.003189
         Rot=    0.999997    0.000000   -0.002385    0.000000 Ang=  -0.27 deg.
 ExpMin= 1.03D-01 ExpMax= 6.29D+03 ExpMxC= 9.49D+02 IAcc=1 IRadAn=         1 AccDes= 0.00D+00
 Harris functional with IExCor=  205 and IRadAn=       1 diagonalized for initial guess.
 HarFok:  IExCor=  205 AccDes= 0.00D+00 IRadAn=         1 IDoV= 1 UseB2=F ITyADJ=14
 ICtDFT=  3500011 ScaDFX=  1.000000  1.000000  1.000000  1.000000
 FoFCou: FMM=F IPFlag=           0 FMFlag=      100000 FMFlg1=           0
         NFxFlg=           0 DoJE=T BraDBF=F KetDBF=T FulRan=T
         wScrn=  0.000000 ICntrl=     500 IOpCl=  0 I1Cent=   200000004 NGrid=           0
         NMat0=    1 NMatS0=      1 NMatT0=    0 NMatD0=    1 NMtDS0=    0 NMtDT0=    0
 Symmetry not used in FoFCou.
 Keep R1 ints in memory in canonical form, NReq=1159119.
 Requested convergence on RMS density matrix=1.00D-08 within 128 cycles.
 Requested convergence on MAX density matrix=1.00D-06.
 Requested convergence on             energy=1.00D-06.
 No special actions if energy rises.
 SCF Done:  E(RHF) =  -92.8312055925     A.U. after   11 cycles
            NFock= 11  Conv=0.79D-08     -V/T= 1.9994
 Range of M.O.s used for correlation:     1    39
 NBasis=    39 NAE=     7 NBE=     7 NFC=     0 NFV=     0
 NROrb=     39 NOA=     7 NOB=     7 NVA=    32 NVB=    32
 Symmetrizing basis deriv contribution to polar:
 IMax=3 JMax=2 DiffMx= 0.00D+00
 Calling FoFJK, ICntrl=      2147 FMM=F ISym2X=0 I1Cent= 0 IOpClX= 0 NMat=1 NMatS=1 NMatT=0.
 -------------------------------------------------------------------
 Center     Atomic                   Forces (Hartrees/Bohr)
 Number     Number              X              Y              Z
 -------------------------------------------------------------------
      1        7           0.020577373    0.000000000    0.009758772
      2        6          -0.020091299    0.000000000    0.012326105
      3        1          -0.000486074    0.000000000   -0.022084877
 -------------------------------------------------------------------
 Cartesian Forces:  Max     0.022084877 RMS     0.013175032
 -----------------------------------------------------------------------------------------------
                       Internal Coordinate Forces (Hartree/Bohr or radian)
  Cent   Atom   N1       Length/X         N2         Alpha/Y        N3         Beta/Z          J
 -----------------------------------------------------------------------------------------------
      1  N 
      2  C        1  -0.009759(     1)
      3  H        2   0.004348(     2)      1  -0.047453(     3)
 -----------------------------------------------------------------------------------------------
 Internal  Forces:  Max     0.047453192 RMS     0.028082890
 IRC-IRC-IRC-IRC-IRC-IRC-IRC-IRC-IRC-IRC-IRC-IRC-IRC-IRC-IRC-IRC-IRC-IRC
 Reaction path inflection point has been passed.
   Previous lowest Hessian eigenvalue=   -0.0018078088
   Current lowest Hessian eigenvalue =    0.0069323084
 Pt  8 Step number   1 out of a maximum of  20
 Modified Bulirsch-Stoer Extrapolation Cycles:
    EPS =    0.000010000000000
 Maximum DWI energy   std dev =  0.000006490 at pt    35
 Maximum DWI gradient std dev =  0.020075352 at pt    29
 CORRECTOR INTEGRATION CONVERGENCE:
   Recorrection delta-x convergence threshold:    0.010000
   Delta-x Convergence Met
 Point Number:   8          Path Number:   1
   CHANGE IN THE REACTION COORDINATE =    0.10828
   NET REACTION COORDINATE UP TO THIS POINT =    0.86628
  # OF POINTS ALONG THE PATH =   8
  # OF STEPS =   1

 Calculating another point on the path.
 IRC-IRC-IRC-IRC-IRC-IRC-IRC-IRC-IRC-IRC-IRC-IRC-IRC-IRC-IRC-IRC-IRC-IRC
                          Input orientation:                          
 ---------------------------------------------------------------------
 Center     Atomic      Atomic             Coordinates (Angstroms)
 Number     Number       Type             X           Y           Z
 ---------------------------------------------------------------------
      1          7           0       -0.008636    0.000000   -0.537059
      2          6           0       -0.076413    0.000000    0.635983
      3          1           0        1.029800    0.000000   -0.110725
 ---------------------------------------------------------------------
                    Distance matrix (angstroms):
                    1          2          3
     1  N    0.000000
     2  C    1.174998   0.000000
     3  H    1.122547   1.334646   0.000000
 Symmetry turned off by external request.
 Stoichiometry    CHN
 Framework group  CS[SG(CHN)]
 Deg. of freedom     3
 Full point group                 CS      NOp   2
 Rotational constants (GHZ):    464.2406546     56.4273869     50.3120702
 Standard basis: 6-311G(d) (5D, 7F)
    39 basis functions,    69 primitive gaussians,    41 cartesian basis functions
     7 alpha electrons        7 beta electrons
       nuclear repulsion energy        24.5941062727 Hartrees.
 NAtoms=    3 NActive=    3 NUniq=    3 SFac= 1.00D+00 NAtFMM=   60 NAOKFM=F Big=F
 Integral buffers will be    131072 words long.
 Raffenetti 1 integral format.
 Two-electron integral symmetry is turned off.
 One-electron integrals computed using PRISM.
 NBasis=    39 RedAO= T EigKep=  6.37D-03  NBF=    39
 NBsUse=    39 1.00D-06 EigRej= -1.00D+00 NBFU=    39
 Initial guess from the checkpoint file:  "HNCirc6311Gs.chk"
 B after Tr=    -0.000077    0.000000   -0.003209
         Rot=    0.999997    0.000000   -0.002401    0.000000 Ang=  -0.28 deg.
 ExpMin= 1.03D-01 ExpMax= 6.29D+03 ExpMxC= 9.49D+02 IAcc=1 IRadAn=         1 AccDes= 0.00D+00
 Harris functional with IExCor=  205 and IRadAn=       1 diagonalized for initial guess.
 HarFok:  IExCor=  205 AccDes= 0.00D+00 IRadAn=         1 IDoV= 1 UseB2=F ITyADJ=14
 ICtDFT=  3500011 ScaDFX=  1.000000  1.000000  1.000000  1.000000
 FoFCou: FMM=F IPFlag=           0 FMFlag=      100000 FMFlg1=           0
         NFxFlg=           0 DoJE=T BraDBF=F KetDBF=T FulRan=T
         wScrn=  0.000000 ICntrl=     500 IOpCl=  0 I1Cent=   200000004 NGrid=           0
         NMat0=    1 NMatS0=      1 NMatT0=    0 NMatD0=    1 NMtDS0=    0 NMtDT0=    0
 Symmetry not used in FoFCou.
 Keep R1 ints in memory in canonical form, NReq=1159105.
 Requested convergence on RMS density matrix=1.00D-08 within 128 cycles.
 Requested convergence on MAX density matrix=1.00D-06.
 Requested convergence on             energy=1.00D-06.
 No special actions if energy rises.
 SCF Done:  E(RHF) =  -92.8337209050     A.U. after   11 cycles
            NFock= 11  Conv=0.74D-08     -V/T= 1.9994
 Range of M.O.s used for correlation:     1    39
 NBasis=    39 NAE=     7 NBE=     7 NFC=     0 NFV=     0
 NROrb=     39 NOA=     7 NOB=     7 NVA=    32 NVB=    32
 Symmetrizing basis deriv contribution to polar:
 IMax=3 JMax=2 DiffMx= 0.00D+00
 Calling FoFJK, ICntrl=      2147 FMM=F ISym2X=0 I1Cent= 0 IOpClX= 0 NMat=1 NMatS=1 NMatT=0.
 -------------------------------------------------------------------
 Center     Atomic                   Forces (Hartrees/Bohr)
 Number     Number              X              Y              Z
 -------------------------------------------------------------------
      1        7           0.018668696    0.000000000    0.009484412
      2        6          -0.019506375    0.000000000    0.011458634
      3        1           0.000837679    0.000000000   -0.020943046
 -------------------------------------------------------------------
 Cartesian Forces:  Max     0.020943046 RMS     0.012425718
 -----------------------------------------------------------------------------------------------
                       Internal Coordinate Forces (Hartree/Bohr or radian)
  Cent   Atom   N1       Length/X         N2         Alpha/Y        N3         Beta/Z          J
 -----------------------------------------------------------------------------------------------
      1  N 
      2  C        1  -0.009484(     1)
      3  H        2   0.005391(     2)      1  -0.044378(     3)
 -----------------------------------------------------------------------------------------------
 Internal  Forces:  Max     0.044378454 RMS     0.026384723
 IRC-IRC-IRC-IRC-IRC-IRC-IRC-IRC-IRC-IRC-IRC-IRC-IRC-IRC-IRC-IRC-IRC-IRC
 Pt  9 Step number   1 out of a maximum of  20
 Modified Bulirsch-Stoer Extrapolation Cycles:
    EPS =    0.000010000000000
 Maximum DWI energy   std dev =  0.000003367 at pt    35
 Maximum DWI gradient std dev =  0.021699217 at pt    29
 CORRECTOR INTEGRATION CONVERGENCE:
   Recorrection delta-x convergence threshold:    0.010000
   Delta-x Convergence Met
 Point Number:   9          Path Number:   1
   CHANGE IN THE REACTION COORDINATE =    0.10827
   NET REACTION COORDINATE UP TO THIS POINT =    0.97455
  # OF POINTS ALONG THE PATH =   9
  # OF STEPS =   1

 Calculating another point on the path.
 IRC-IRC-IRC-IRC-IRC-IRC-IRC-IRC-IRC-IRC-IRC-IRC-IRC-IRC-IRC-IRC-IRC-IRC
                          Input orientation:                          
 ---------------------------------------------------------------------
 Center     Atomic      Atomic             Coordinates (Angstroms)
 Number     Number       Type             X           Y           Z
 ---------------------------------------------------------------------
      1          7           0       -0.005294    0.000000   -0.535336
      2          6           0       -0.080456    0.000000    0.638404
      3          1           0        1.031491    0.000000   -0.163649
 ---------------------------------------------------------------------
                    Distance matrix (angstroms):
                    1          2          3
     1  N    0.000000
     2  C    1.176144   0.000000
     3  H    1.101397   1.371028   0.000000
 Symmetry turned off by external request.
 Stoichiometry    CHN
 Framework group  CS[SG(CHN)]
 Deg. of freedom     3
 Full point group                 CS      NOp   2
 Rotational constants (GHZ):    468.2305406     56.1419531     50.1311136
 Standard basis: 6-311G(d) (5D, 7F)
    39 basis functions,    69 primitive gaussians,    41 cartesian basis functions
     7 alpha electrons        7 beta electrons
       nuclear repulsion energy        24.5759170272 Hartrees.
 NAtoms=    3 NActive=    3 NUniq=    3 SFac= 1.00D+00 NAtFMM=   60 NAOKFM=F Big=F
 Integral buffers will be    131072 words long.
 Raffenetti 1 integral format.
 Two-electron integral symmetry is turned off.
 One-electron integrals computed using PRISM.
 NBasis=    39 RedAO= T EigKep=  6.38D-03  NBF=    39
 NBsUse=    39 1.00D-06 EigRej= -1.00D+00 NBFU=    39
 Initial guess from the checkpoint file:  "HNCirc6311Gs.chk"
 B after Tr=     0.000148    0.000000   -0.003224
         Rot=    0.999997    0.000000   -0.002396    0.000000 Ang=  -0.27 deg.
 ExpMin= 1.03D-01 ExpMax= 6.29D+03 ExpMxC= 9.49D+02 IAcc=1 IRadAn=         1 AccDes= 0.00D+00
 Harris functional with IExCor=  205 and IRadAn=       1 diagonalized for initial guess.
 HarFok:  IExCor=  205 AccDes= 0.00D+00 IRadAn=         1 IDoV= 1 UseB2=F ITyADJ=14
 ICtDFT=  3500011 ScaDFX=  1.000000  1.000000  1.000000  1.000000
 FoFCou: FMM=F IPFlag=           0 FMFlag=      100000 FMFlg1=           0
         NFxFlg=           0 DoJE=T BraDBF=F KetDBF=T FulRan=T
         wScrn=  0.000000 ICntrl=     500 IOpCl=  0 I1Cent=   200000004 NGrid=           0
         NMat0=    1 NMatS0=      1 NMatT0=    0 NMatD0=    1 NMtDS0=    0 NMtDT0=    0
 Symmetry not used in FoFCou.
 Keep R1 ints in memory in canonical form, NReq=1159105.
 Requested convergence on RMS density matrix=1.00D-08 within 128 cycles.
 Requested convergence on MAX density matrix=1.00D-06.
 Requested convergence on             energy=1.00D-06.
 No special actions if energy rises.
 SCF Done:  E(RHF) =  -92.8360988986     A.U. after   11 cycles
            NFock= 11  Conv=0.67D-08     -V/T= 1.9993
 Range of M.O.s used for correlation:     1    39
 NBasis=    39 NAE=     7 NBE=     7 NFC=     0 NFV=     0
 NROrb=     39 NOA=     7 NOB=     7 NVA=    32 NVB=    32
 Symmetrizing basis deriv contribution to polar:
 IMax=3 JMax=2 DiffMx= 0.00D+00
 Calling FoFJK, ICntrl=      2147 FMM=F ISym2X=0 I1Cent= 0 IOpClX= 0 NMat=1 NMatS=1 NMatT=0.
 -------------------------------------------------------------------
 Center     Atomic                   Forces (Hartrees/Bohr)
 Number     Number              X              Y              Z
 -------------------------------------------------------------------
      1        7           0.017047921    0.000000000    0.009336994
      2        6          -0.018632956    0.000000000    0.010432727
      3        1           0.001585035    0.000000000   -0.019769721
 -------------------------------------------------------------------
 Cartesian Forces:  Max     0.019769721 RMS     0.011677110
 -----------------------------------------------------------------------------------------------
                       Internal Coordinate Forces (Hartree/Bohr or radian)
  Cent   Atom   N1       Length/X         N2         Alpha/Y        N3         Beta/Z          J
 -----------------------------------------------------------------------------------------------
      1  N 
      2  C        1  -0.009337(     1)
      3  H        2   0.005864(     2)      1  -0.041512(     3)
 -----------------------------------------------------------------------------------------------
 Internal  Forces:  Max     0.041512153 RMS     0.024798000
 IRC-IRC-IRC-IRC-IRC-IRC-IRC-IRC-IRC-IRC-IRC-IRC-IRC-IRC-IRC-IRC-IRC-IRC
 Pt 10 Step number   1 out of a maximum of  20
 Modified Bulirsch-Stoer Extrapolation Cycles:
    EPS =    0.000010000000000
 Maximum DWI energy   std dev =  0.000000432 at pt    32
 Maximum DWI gradient std dev =  0.017507472 at pt    29
 CORRECTOR INTEGRATION CONVERGENCE:
   Recorrection delta-x convergence threshold:    0.010000
   Delta-x Convergence Met
 Point Number:  10          Path Number:   1
   CHANGE IN THE REACTION COORDINATE =    0.10828
   NET REACTION COORDINATE UP TO THIS POINT =    1.08283
  # OF POINTS ALONG THE PATH =  10
  # OF STEPS =   1

 Maximum number of steps reached.
 Calculation of FORWARD path complete.
 Beginning calculation of the REVERSE path.
 
 Calculating another point on the path.
 IRC-IRC-IRC-IRC-IRC-IRC-IRC-IRC-IRC-IRC-IRC-IRC-IRC-IRC-IRC-IRC-IRC-IRC
                          Input orientation:                          
 ---------------------------------------------------------------------
 Center     Atomic      Atomic             Coordinates (Angstroms)
 Number     Number       Type             X           Y           Z
 ---------------------------------------------------------------------
      1          7           0       -0.045954    0.000000   -0.552488
      2          6           0       -0.038273    0.000000    0.610105
      3          1           0        1.094208    0.000000    0.412044
 ---------------------------------------------------------------------
                    Distance matrix (angstroms):
                    1          2          3
     1  N    0.000000
     2  C    1.162618   0.000000
     3  H    1.493415   1.149670   0.000000
 Symmetry turned off by external request.
 Stoichiometry    CHN
 Framework group  CS[SG(CHN)]
 Deg. of freedom     3
 Full point group                 CS      NOp   2
 Rotational constants (GHZ):    415.1489824     56.4755036     49.7127451
 Standard basis: 6-311G(d) (5D, 7F)
    39 basis functions,    69 primitive gaussians,    41 cartesian basis functions
     7 alpha electrons        7 beta electrons
       nuclear repulsion energy        24.3588240928 Hartrees.
 NAtoms=    3 NActive=    3 NUniq=    3 SFac= 1.00D+00 NAtFMM=   60 NAOKFM=F Big=F
 Integral buffers will be    131072 words long.
 Raffenetti 1 integral format.
 Two-electron integral symmetry is turned off.
 One-electron integrals computed using PRISM.
 NBasis=    39 RedAO= T EigKep=  5.80D-03  NBF=    39
 NBsUse=    39 1.00D-06 EigRej= -1.00D+00 NBFU=    39
 Initial guess from the checkpoint file:  "HNCirc6311Gs.chk"
 B after Tr=     0.003727    0.000000    0.034861
         Rot=    0.999640    0.000000    0.026827    0.000000 Ang=   3.07 deg.
 ExpMin= 1.03D-01 ExpMax= 6.29D+03 ExpMxC= 9.49D+02 IAcc=1 IRadAn=         1 AccDes= 0.00D+00
 Harris functional with IExCor=  205 and IRadAn=       1 diagonalized for initial guess.
 HarFok:  IExCor=  205 AccDes= 0.00D+00 IRadAn=         1 IDoV= 1 UseB2=F ITyADJ=14
 ICtDFT=  3500011 ScaDFX=  1.000000  1.000000  1.000000  1.000000
 FoFCou: FMM=F IPFlag=           0 FMFlag=      100000 FMFlg1=           0
         NFxFlg=           0 DoJE=T BraDBF=F KetDBF=T FulRan=T
         wScrn=  0.000000 ICntrl=     500 IOpCl=  0 I1Cent=   200000004 NGrid=           0
         NMat0=    1 NMatS0=      1 NMatT0=    0 NMatD0=    1 NMtDS0=    0 NMtDT0=    0
 Symmetry not used in FoFCou.
 Keep R1 ints in memory in canonical form, NReq=1159061.
 Requested convergence on RMS density matrix=1.00D-08 within 128 cycles.
 Requested convergence on MAX density matrix=1.00D-06.
 Requested convergence on             energy=1.00D-06.
 No special actions if energy rises.
 SCF Done:  E(RHF) =  -92.8165771336     A.U. after   14 cycles
            NFock= 14  Conv=0.36D-08     -V/T= 1.9997
 Range of M.O.s used for correlation:     1    39
 NBasis=    39 NAE=     7 NBE=     7 NFC=     0 NFV=     0
 NROrb=     39 NOA=     7 NOB=     7 NVA=    32 NVB=    32
 Symmetrizing basis deriv contribution to polar:
 IMax=3 JMax=2 DiffMx= 0.00D+00
 Calling FoFJK, ICntrl=      2147 FMM=F ISym2X=0 I1Cent= 0 IOpClX= 0 NMat=1 NMatS=1 NMatT=0.
 -------------------------------------------------------------------
 Center     Atomic                   Forces (Hartrees/Bohr)
 Number     Number              X              Y              Z
 -------------------------------------------------------------------
      1        7          -0.005280159    0.000000000   -0.001694355
      2        6           0.005392695    0.000000000   -0.003734385
      3        1          -0.000112536    0.000000000    0.005428740
 -------------------------------------------------------------------
 Cartesian Forces:  Max     0.005428740 RMS     0.003387257
 -----------------------------------------------------------------------------------------------
                       Internal Coordinate Forces (Hartree/Bohr or radian)
  Cent   Atom   N1       Length/X         N2         Alpha/Y        N3         Beta/Z          J
 -----------------------------------------------------------------------------------------------
      1  N 
      2  C        1   0.001694(     1)
      3  H        2  -0.001295(     2)      1   0.011554(     3)
 -----------------------------------------------------------------------------------------------
 Internal  Forces:  Max     0.011553582 RMS     0.006783161
 IRC-IRC-IRC-IRC-IRC-IRC-IRC-IRC-IRC-IRC-IRC-IRC-IRC-IRC-IRC-IRC-IRC-IRC
 Pt 11 Step number   1 out of a maximum of  20
 Modified Bulirsch-Stoer Extrapolation Cycles:
    EPS =    0.000010000000000
 Maximum DWI energy   std dev =  0.000000436 at pt     7
 Maximum DWI gradient std dev =  0.056844654 at pt     1
 CORRECTOR INTEGRATION CONVERGENCE:
   Recorrection delta-x convergence threshold:    0.010000
   Delta-x Convergence Met
 Point Number:   1          Path Number:   2
   CHANGE IN THE REACTION COORDINATE =    0.10830
   NET REACTION COORDINATE UP TO THIS POINT =    0.10830
  # OF POINTS ALONG THE PATH =  11
  # OF STEPS =   1

 Calculating another point on the path.
 IRC-IRC-IRC-IRC-IRC-IRC-IRC-IRC-IRC-IRC-IRC-IRC-IRC-IRC-IRC-IRC-IRC-IRC
                          Input orientation:                          
 ---------------------------------------------------------------------
 Center     Atomic      Atomic             Coordinates (Angstroms)
 Number     Number       Type             X           Y           Z
 ---------------------------------------------------------------------
      1          7           0       -0.049677    0.000000   -0.553754
      2          6           0       -0.034192    0.000000    0.607199
      3          1           0        1.097353    0.000000    0.464341
 ---------------------------------------------------------------------
                    Distance matrix (angstroms):
                    1          2          3
     1  N    0.000000
     2  C    1.161056   0.000000
     3  H    1.533686   1.140527   0.000000
 Symmetry turned off by external request.
 Stoichiometry    CHN
 Framework group  CS[SG(CHN)]
 Deg. of freedom     3
 Full point group                 CS      NOp   2
 Rotational constants (GHZ):    418.5034409     56.2147704     49.5579784
 Standard basis: 6-311G(d) (5D, 7F)
    39 basis functions,    69 primitive gaussians,    41 cartesian basis functions
     7 alpha electrons        7 beta electrons
       nuclear repulsion energy        24.3415404499 Hartrees.
 NAtoms=    3 NActive=    3 NUniq=    3 SFac= 1.00D+00 NAtFMM=   60 NAOKFM=F Big=F
 Integral buffers will be    131072 words long.
 Raffenetti 1 integral format.
 Two-electron integral symmetry is turned off.
 One-electron integrals computed using PRISM.
 NBasis=    39 RedAO= T EigKep=  5.72D-03  NBF=    39
 NBsUse=    39 1.00D-06 EigRej= -1.00D+00 NBFU=    39
 Initial guess from the checkpoint file:  "HNCirc6311Gs.chk"
 B after Tr=     0.000341    0.000000    0.003169
         Rot=    0.999997    0.000000    0.002318    0.000000 Ang=   0.27 deg.
 ExpMin= 1.03D-01 ExpMax= 6.29D+03 ExpMxC= 9.49D+02 IAcc=1 IRadAn=         1 AccDes= 0.00D+00
 Harris functional with IExCor=  205 and IRadAn=       1 diagonalized for initial guess.
 HarFok:  IExCor=  205 AccDes= 0.00D+00 IRadAn=         1 IDoV= 1 UseB2=F ITyADJ=14
 ICtDFT=  3500011 ScaDFX=  1.000000  1.000000  1.000000  1.000000
 FoFCou: FMM=F IPFlag=           0 FMFlag=      100000 FMFlg1=           0
         NFxFlg=           0 DoJE=T BraDBF=F KetDBF=T FulRan=T
         wScrn=  0.000000 ICntrl=     500 IOpCl=  0 I1Cent=   200000004 NGrid=           0
         NMat0=    1 NMatS0=      1 NMatT0=    0 NMatD0=    1 NMtDS0=    0 NMtDT0=    0
 Symmetry not used in FoFCou.
 Keep R1 ints in memory in canonical form, NReq=1159047.
 Requested convergence on RMS density matrix=1.00D-08 within 128 cycles.
 Requested convergence on MAX density matrix=1.00D-06.
 Requested convergence on             energy=1.00D-06.
 No special actions if energy rises.
 SCF Done:  E(RHF) =  -92.8175286525     A.U. after   12 cycles
            NFock= 12  Conv=0.27D-08     -V/T= 1.9997
 Range of M.O.s used for correlation:     1    39
 NBasis=    39 NAE=     7 NBE=     7 NFC=     0 NFV=     0
 NROrb=     39 NOA=     7 NOB=     7 NVA=    32 NVB=    32
 Symmetrizing basis deriv contribution to polar:
 IMax=3 JMax=2 DiffMx= 0.00D+00
 Calling FoFJK, ICntrl=      2147 FMM=F ISym2X=0 I1Cent= 0 IOpClX= 0 NMat=1 NMatS=1 NMatT=0.
 -------------------------------------------------------------------
 Center     Atomic                   Forces (Hartrees/Bohr)
[...]
      3        1          -0.006620422    0.000000000    0.031767126
 -------------------------------------------------------------------
 Cartesian Forces:  Max     0.037989569 RMS     0.021458000
 -----------------------------------------------------------------------------------------------
                       Internal Coordinate Forces (Hartree/Bohr or radian)
  Cent   Atom   N1       Length/X         N2         Alpha/Y        N3         Beta/Z          J
 -----------------------------------------------------------------------------------------------
      1  N 
      2  C        1   0.006961(     1)
      3  H        2  -0.013397(     2)      1   0.064755(     3)
 -----------------------------------------------------------------------------------------------
 Internal  Forces:  Max     0.064755186 RMS     0.038389154
 IRC-IRC-IRC-IRC-IRC-IRC-IRC-IRC-IRC-IRC-IRC-IRC-IRC-IRC-IRC-IRC-IRC-IRC
 Pt 18 Step number   1 out of a maximum of  20
 Modified Bulirsch-Stoer Extrapolation Cycles:
    EPS =    0.000010000000000
 Maximum DWI energy   std dev =  0.000004171 at pt    36
 Maximum DWI gradient std dev =  0.012663310 at pt    29
 CORRECTOR INTEGRATION CONVERGENCE:
   Recorrection delta-x convergence threshold:    0.010000
   Delta-x Convergence Met
 Point Number:   8          Path Number:   2
   CHANGE IN THE REACTION COORDINATE =    0.10828
   NET REACTION COORDINATE UP TO THIS POINT =    0.86623
  # OF POINTS ALONG THE PATH =  18
  # OF STEPS =   1

 Calculating another point on the path.
 IRC-IRC-IRC-IRC-IRC-IRC-IRC-IRC-IRC-IRC-IRC-IRC-IRC-IRC-IRC-IRC-IRC-IRC
                          Input orientation:                          
 ---------------------------------------------------------------------
 Center     Atomic      Atomic             Coordinates (Angstroms)
 Number     Number       Type             X           Y           Z
 ---------------------------------------------------------------------
      1          7           0       -0.075098    0.000000   -0.560448
      2          6           0       -0.001644    0.000000    0.584894
      3          1           0        1.063080    0.000000    0.824515
 ---------------------------------------------------------------------
                    Distance matrix (angstroms):
                    1          2          3
     1  N    0.000000
     2  C    1.147695   0.000000
     3  H    1.792643   1.091355   0.000000
 Symmetry turned off by external request.
 Stoichiometry    CHN
 Framework group  CS[SG(CHN)]
 Deg. of freedom     3
 Full point group                 CS      NOp   2
 Rotational constants (GHZ):    527.2271826     53.4895922     48.5626871
 Standard basis: 6-311G(d) (5D, 7F)
    39 basis functions,    69 primitive gaussians,    41 cartesian basis functions
     7 alpha electrons        7 beta electrons
       nuclear repulsion energy        24.3409316529 Hartrees.
 NAtoms=    3 NActive=    3 NUniq=    3 SFac= 1.00D+00 NAtFMM=   60 NAOKFM=F Big=F
 Integral buffers will be    131072 words long.
 Raffenetti 1 integral format.
 Two-electron integral symmetry is turned off.
 One-electron integrals computed using PRISM.
 NBasis=    39 RedAO= T EigKep=  5.64D-03  NBF=    39
 NBsUse=    39 1.00D-06 EigRej= -1.00D+00 NBFU=    39
 Initial guess from the checkpoint file:  "HNCirc6311Gs.chk"
 B after Tr=    -0.000460    0.000000    0.003027
         Rot=    0.999997    0.000000    0.002460    0.000000 Ang=   0.28 deg.
 ExpMin= 1.03D-01 ExpMax= 6.29D+03 ExpMxC= 9.49D+02 IAcc=1 IRadAn=         1 AccDes= 0.00D+00
 Harris functional with IExCor=  205 and IRadAn=       1 diagonalized for initial guess.
 HarFok:  IExCor=  205 AccDes= 0.00D+00 IRadAn=         1 IDoV= 1 UseB2=F ITyADJ=14
 ICtDFT=  3500011 ScaDFX=  1.000000  1.000000  1.000000  1.000000
 FoFCou: FMM=F IPFlag=           0 FMFlag=      100000 FMFlg1=           0
         NFxFlg=           0 DoJE=T BraDBF=F KetDBF=T FulRan=T
         wScrn=  0.000000 ICntrl=     500 IOpCl=  0 I1Cent=   200000004 NGrid=           0
         NMat0=    1 NMatS0=      1 NMatT0=    0 NMatD0=    1 NMtDS0=    0 NMtDT0=    0
 Symmetry not used in FoFCou.
 Keep R1 ints in memory in canonical form, NReq=1159047.
 Requested convergence on RMS density matrix=1.00D-08 within 128 cycles.
 Requested convergence on MAX density matrix=1.00D-06.
 Requested convergence on             energy=1.00D-06.
 No special actions if energy rises.
 SCF Done:  E(RHF) =  -92.8381492849     A.U. after   12 cycles
            NFock= 12  Conv=0.20D-08     -V/T= 1.9996
 Range of M.O.s used for correlation:     1    39
 NBasis=    39 NAE=     7 NBE=     7 NFC=     0 NFV=     0
 NROrb=     39 NOA=     7 NOB=     7 NVA=    32 NVB=    32
 Symmetrizing basis deriv contribution to polar:
 IMax=3 JMax=2 DiffMx= 0.00D+00
 Calling FoFJK, ICntrl=      2147 FMM=F ISym2X=0 I1Cent= 0 IOpClX= 0 NMat=1 NMatS=1 NMatT=0.
 -------------------------------------------------------------------
 Center     Atomic                   Forces (Hartrees/Bohr)
 Number     Number              X              Y              Z
 -------------------------------------------------------------------
      1        7          -0.032819549    0.000000000   -0.006830354
      2        6           0.041098985    0.000000000   -0.026139651
      3        1          -0.008279436    0.000000000    0.032970004
 -------------------------------------------------------------------
 Cartesian Forces:  Max     0.041098985 RMS     0.022734591
 -----------------------------------------------------------------------------------------------
                       Internal Coordinate Forces (Hartree/Bohr or radian)
  Cent   Atom   N1       Length/X         N2         Alpha/Y        N3         Beta/Z          J
 -----------------------------------------------------------------------------------------------
      1  N 
      2  C        1   0.006830(     1)
      3  H        2  -0.015279(     2)      1   0.066533(     3)
 -----------------------------------------------------------------------------------------------
 Internal  Forces:  Max     0.066533373 RMS     0.039609742
 IRC-IRC-IRC-IRC-IRC-IRC-IRC-IRC-IRC-IRC-IRC-IRC-IRC-IRC-IRC-IRC-IRC-IRC
 Pt 19 Step number   1 out of a maximum of  20
 Modified Bulirsch-Stoer Extrapolation Cycles:
    EPS =    0.000010000000000
 Maximum DWI energy   std dev =  0.000004178 at pt    36
 Maximum DWI gradient std dev =  0.012145249 at pt    29
 CORRECTOR INTEGRATION CONVERGENCE:
   Recorrection delta-x convergence threshold:    0.010000
   Delta-x Convergence Met
 Point Number:   9          Path Number:   2
   CHANGE IN THE REACTION COORDINATE =    0.10828
   NET REACTION COORDINATE UP TO THIS POINT =    0.97452
  # OF POINTS ALONG THE PATH =  19
  # OF STEPS =   1

 Calculating another point on the path.
 IRC-IRC-IRC-IRC-IRC-IRC-IRC-IRC-IRC-IRC-IRC-IRC-IRC-IRC-IRC-IRC-IRC-IRC
                          Input orientation:                          
 ---------------------------------------------------------------------
 Center     Atomic      Atomic             Coordinates (Angstroms)
 Number     Number       Type             X           Y           Z
 ---------------------------------------------------------------------
      1          7           0       -0.078659    0.000000   -0.561168
      2          6           0        0.003583    0.000000    0.581590
      3          1           0        1.050318    0.000000    0.874108
 ---------------------------------------------------------------------
                    Distance matrix (angstroms):
                    1          2          3
     1  N    0.000000
     2  C    1.145714   0.000000
     3  H    1.826091   1.086840   0.000000
 Symmetry turned off by external request.
 Stoichiometry    CHN
 Framework group  CS[SG(CHN)]
 Deg. of freedom     3
 Full point group                 CS      NOp   2
 Rotational constants (GHZ):    559.3695720     53.0090398     48.4204434
 Standard basis: 6-311G(d) (5D, 7F)
    39 basis functions,    69 primitive gaussians,    41 cartesian basis functions
     7 alpha electrons        7 beta electrons
       nuclear repulsion energy        24.3486539924 Hartrees.
 NAtoms=    3 NActive=    3 NUniq=    3 SFac= 1.00D+00 NAtFMM=   60 NAOKFM=F Big=F
 Integral buffers will be    131072 words long.
 Raffenetti 1 integral format.
 Two-electron integral symmetry is turned off.
 One-electron integrals computed using PRISM.
 NBasis=    39 RedAO= T EigKep=  5.74D-03  NBF=    39
 NBsUse=    39 1.00D-06 EigRej= -1.00D+00 NBFU=    39
 Initial guess from the checkpoint file:  "HNCirc6311Gs.chk"
 B after Tr=    -0.000578    0.000000    0.002985
         Rot=    0.999997    0.000000    0.002482    0.000000 Ang=   0.28 deg.
 ExpMin= 1.03D-01 ExpMax= 6.29D+03 ExpMxC= 9.49D+02 IAcc=1 IRadAn=         1 AccDes= 0.00D+00
 Harris functional with IExCor=  205 and IRadAn=       1 diagonalized for initial guess.
 HarFok:  IExCor=  205 AccDes= 0.00D+00 IRadAn=         1 IDoV= 1 UseB2=F ITyADJ=14
 ICtDFT=  3500011 ScaDFX=  1.000000  1.000000  1.000000  1.000000
 FoFCou: FMM=F IPFlag=           0 FMFlag=      100000 FMFlg1=           0
         NFxFlg=           0 DoJE=T BraDBF=F KetDBF=T FulRan=T
         wScrn=  0.000000 ICntrl=     500 IOpCl=  0 I1Cent=   200000004 NGrid=           0
         NMat0=    1 NMatS0=      1 NMatT0=    0 NMatD0=    1 NMtDS0=    0 NMtDT0=    0
 Symmetry not used in FoFCou.
 Keep R1 ints in memory in canonical form, NReq=1159032.
 Requested convergence on RMS density matrix=1.00D-08 within 128 cycles.
 Requested convergence on MAX density matrix=1.00D-06.
 Requested convergence on             energy=1.00D-06.
 No special actions if energy rises.
 SCF Done:  E(RHF) =  -92.8423087897     A.U. after   12 cycles
            NFock= 12  Conv=0.19D-08     -V/T= 1.9996
 Range of M.O.s used for correlation:     1    39
 NBasis=    39 NAE=     7 NBE=     7 NFC=     0 NFV=     0
 NROrb=     39 NOA=     7 NOB=     7 NVA=    32 NVB=    32
 Symmetrizing basis deriv contribution to polar:
 IMax=3 JMax=2 DiffMx= 0.00D+00
 Calling FoFJK, ICntrl=      2147 FMM=F ISym2X=0 I1Cent= 0 IOpClX= 0 NMat=1 NMatS=1 NMatT=0.
 -------------------------------------------------------------------
 Center     Atomic                   Forces (Hartrees/Bohr)
 Number     Number              X              Y              Z
 -------------------------------------------------------------------
      1        7          -0.033725703    0.000000000   -0.006578825
      2        6           0.043669279    0.000000000   -0.026945044
      3        1          -0.009943575    0.000000000    0.033523869
 -------------------------------------------------------------------
 Cartesian Forces:  Max     0.043669279 RMS     0.023656030
 -----------------------------------------------------------------------------------------------
                       Internal Coordinate Forces (Hartree/Bohr or radian)
  Cent   Atom   N1       Length/X         N2         Alpha/Y        N3         Beta/Z          J
 -----------------------------------------------------------------------------------------------
      1  N 
      2  C        1   0.006579(     1)
      3  H        2  -0.017024(     2)      1   0.066921(     3)
 -----------------------------------------------------------------------------------------------
 Internal  Forces:  Max     0.066921423 RMS     0.040048203
 IRC-IRC-IRC-IRC-IRC-IRC-IRC-IRC-IRC-IRC-IRC-IRC-IRC-IRC-IRC-IRC-IRC-IRC
 Pt 20 Step number   1 out of a maximum of  20
 Modified Bulirsch-Stoer Extrapolation Cycles:
    EPS =    0.000010000000000
 Maximum DWI energy   std dev =  0.000004049 at pt    36
 Maximum DWI gradient std dev =  0.011876169 at pt    29
 CORRECTOR INTEGRATION CONVERGENCE:
   Recorrection delta-x convergence threshold:    0.010000
   Delta-x Convergence Met
 Point Number:  10          Path Number:   2
   CHANGE IN THE REACTION COORDINATE =    0.10828
   NET REACTION COORDINATE UP TO THIS POINT =    1.08280
  # OF POINTS ALONG THE PATH =  20
  # OF STEPS =   1

 Maximum number of steps reached.
 Calculation of REVERSE path complete.
 Reaction path calculation complete.
 
 Energies reported relative to the TS energy of         -92.816257
 --------------------------------------------------------------------------
    Summary of reaction path following
 --------------------------------------------------------------------------
                        Energy    RxCoord
   1                   -0.02605  -1.08280
   2                   -0.02189  -0.97452
   3                   -0.01790  -0.86623
   4                   -0.01413  -0.75795
   5                   -0.01068  -0.64967
   6                   -0.00759  -0.54139
   7                   -0.00496  -0.43311
   8                   -0.00283  -0.32483
   9                   -0.00127  -0.21656
  10                   -0.00032  -0.10830
  11                    0.00000   0.00000
  12                   -0.00032   0.10830
  13                   -0.00125   0.21657
  14                   -0.00275   0.32485
  15                   -0.00473   0.43314
  16                   -0.00707   0.54143
  17                   -0.00965   0.64972
  18                   -0.01232   0.75800
  19                   -0.01495   0.86628
  20                   -0.01747   0.97455
  21                   -0.01984   1.08283
 --------------------------------------------------------------------------
 
 Total number of points:                   20
 Total number of gradient calculations:    21
 Total number of Hessian calculations:      1
 IRC-IRC-IRC-IRC-IRC-IRC-IRC-IRC-IRC-IRC-IRC-IRC-IRC-IRC-IRC-IRC-IRC-IRC
                          Input orientation:                          
 ---------------------------------------------------------------------
 Center     Atomic      Atomic             Coordinates (Angstroms)
 Number     Number       Type             X           Y           Z
 ---------------------------------------------------------------------
      1          7           0       -0.078659    0.000000   -0.561168
      2          6           0        0.003583    0.000000    0.581590
      3          1           0        1.050318    0.000000    0.874108
 ---------------------------------------------------------------------
                    Distance matrix (angstroms):
                    1          2          3
     1  N    0.000000
     2  C    1.145714   0.000000
     3  H    1.826091   1.086840   0.000000
 Symmetry turned off by external request.
 Stoichiometry    CHN
 Framework group  CS[SG(CHN)]
 Deg. of freedom     3
 Full point group                 CS      NOp   2
 Rotational constants (GHZ):    559.3695720     53.0090398     48.4204434

 **********************************************************************

            Population analysis using the SCF density.

 **********************************************************************

 Alpha  occ. eigenvalues --  -15.62034 -11.27553  -1.27216  -0.75727  -0.59828
 Alpha  occ. eigenvalues --   -0.51675  -0.49419
 Alpha virt. eigenvalues --    0.08182   0.17853   0.18348   0.35619   0.53089
 Alpha virt. eigenvalues --    0.58171   0.59459   0.72007   0.80377   0.88426
 Alpha virt. eigenvalues --    0.88890   1.07677   1.29740   1.47141   1.60210
 Alpha virt. eigenvalues --    1.65953   1.72161   2.20835   2.31946   2.36025
 Alpha virt. eigenvalues --    2.64373   2.84356   2.91294   3.12181   3.14821
 Alpha virt. eigenvalues --    3.27234   3.59430   4.23671   4.23830   4.85568
 Alpha virt. eigenvalues --   25.02582  37.05920
          Condensed to atoms (all electrons):
               1          2          3
     1  N    6.395167   0.801409  -0.016652
     2  C    0.801409   4.982375   0.355316
     3  H   -0.016652   0.355316   0.342313
 Mulliken charges:
               1
     1  N   -0.179923
     2  C   -0.139100
     3  H    0.319024
 Sum of Mulliken charges =   0.00000
 Mulliken charges with hydrogens summed into heavy atoms:
               1
     1  N   -0.179923
     2  C    0.179923
 APT charges:
               1
     1  N   -0.176130
     2  C   -0.278166
     3  H    0.454296
 Sum of APT charges =   0.00000
 APT charges with hydrogens summed into heavy atoms:
               1
     1  N   -0.176130
     2  C    0.176130
 Electronic spatial extent (au):  <R**2>=             47.5688
 Charge=              0.0000 electrons
 Dipole moment (field-independent basis, Debye):
    X=              1.5713    Y=              0.0000    Z=              1.4748  Tot=              2.1550
 Quadrupole moment (field-independent basis, Debye-Ang):
   XX=            -10.0061   YY=            -11.9268   ZZ=            -12.5357
   XY=              0.0000   XZ=              1.1100   YZ=              0.0000
 Traceless Quadrupole moment (field-independent basis, Debye-Ang):
   XX=              1.4834   YY=             -0.4373   ZZ=             -1.0461
   XY=              0.0000   XZ=              1.1100   YZ=              0.0000
 Octapole moment (field-independent basis, Debye-Ang**2):
  XXX=              1.9739  YYY=              0.0000  ZZZ=             -1.0217  XYY=              0.0053
  XXY=              0.0000  XXZ=              0.4603  XZZ=              1.2343  YZZ=              0.0000
  YYZ=             -0.5379  XYZ=              0.0000
 Hexadecapole moment (field-independent basis, Debye-Ang**3):
 XXXX=            -12.5534 YYYY=            -11.6037 ZZZZ=            -40.3056 XXXY=              0.0000
 XXXZ=             -0.1869 YYYX=              0.0000 YYYZ=              0.0000 ZZZX=             -1.5820
 ZZZY=              0.0000 XXYY=             -4.4689 XXZZ=             -7.6028 YYZZ=             -8.2969
 XXYZ=              0.0000 YYXZ=             -0.7228 ZZXY=              0.0000
 N-N= 2.434865399235D+01 E-N=-2.661921106787D+02  KE= 9.287921454771D+01
  Exact polarizability:   0.000   0.000   0.000   0.000   0.000   0.000
 Approx polarizability:  10.280   0.000   8.213  -0.286   0.000  22.583

 This type of calculation cannot be archived.


 "THE ACADEMIC HIERARCHY"


 THE PRESIDENT:
   LEAPS TALL BUILDINGS IN A SINGLE BOUND,
     IS MORE POWERFUL THAN A LOCOMOTIVE,
       IS FASTER THAN A SPEEDING BULLET,
         WALKS ON WATER,
           GIVES POLICY TO GOD.

 THE VICE PRESIDENT FOR ACADEMIC AFFAIRS:
   LEAPS SHORT BUILDINGS IN A SINGLE BOUND,
     IS MORE POWERFUL THAN A SWITCH ENGINE,
       IS JUST AS FAST AS A SPEEDING BULLET,
         WALKS ON WATER IF SEA IS CALM,
           TALKS WITH GOD.

 PROFESSOR:
   LEAPS SHORT BUILDINGS WITH A RUNNING START AND FAVORABLE WINDS,
     IS ALMOST AS POWERFUL AS A SWITCH ENGINE,
       CAN FIRE A SPEEDING BULLET,
         WALKS ON WATER IN AN INDOOR SWIMMING POOL,
          TALKS WITH GOD IF SPECIAL REQUEST IS APPROVED.

 ASSOCIATE PROFESSOR:
   BARELY CLEARS A QUONSET HUT,
     LOSES TUG OF WAR WITH LOCOMOTIVE,
       MISFIRES FREQUENTLY,
         SWIMS WELL,
           IS OCCASIONALLY ADDRESSED BY GOD.

 ASSISTANT PROFESSOR:
   MAKES HIGH MARKS ON WALLS WHEN TRYING TO LEAP TALL BUILDINGS,
     IS RUN OVER BY LOCOMOTIVES,
       CAN SOMETIMES HANDLE A GUN WITHOUT INFLICTING SELF INJURY,
         DOG PADDLES,
           TALKS TO ANIMALS.

 GRADUATE STUDENT:
   RUNS INTO BUILDINGS,
     RECOGNIZES LOCOMOTIVES TWO OUT OF THREE TIMES,
       IS NOT ISSUED AMMUNITION,
         CAN STAY AFLOAT WITH A LIFE JACKET,
           TALKS TO WALLS.

 UNDERGRADUATE AND WORK STUDY STUDENT:
   FALLS OVER DOORSTEP WHEN TRYING TO ENTER BUILDINGS,
     SAYS, "LOOK AT THE CHOO-CHOO,"
       WETS HIMSELF WITH A WATER PISTOL,
        PLAYS IN MUD PUDDLES,
          MUMBLES TO HIMSELF.

 DEPARTMENT SECRETARY:
   LIFTS TALL BUILDINGS AND WALKS UNDER THEM,
     KICKS LOCOMOTIVES OFF THE TRACKS,
       CATCHES SPEEDING BULLETS IN HER TEETH AND EATS THEM,
         FREEZES WATER WITH A SINGLE GLANCE,
           IS GOD.
 Job cpu time:       0 days  0 hours  1 minutes 25.3 seconds.
 File lengths (MBytes):  RWF=     72 Int=      0 D2E=      0 Chk=      2 Scr=      1
 Normal termination of Gaussian 09 at Tue Sep 27 11:28:14 2016.
