 Entering Gaussian System, Link 0=g09
 Initial command:
 /cluster/software/gaussian/gaussian-09-D.01/g09/l1.exe "/local/scratch/maxb2/Gau-1466.inp" -scrdir="/local/scratch/maxb2/"
 Entering Link 1 = /cluster/software/gaussian/gaussian-09-D.01/g09/l1.exe PID=      1467.
  
 Copyright (c) 1988,1990,1992,1993,1995,1998,2003,2009,2013,
            Gaussian, Inc.  All Rights Reserved.
  
 This is part of the Gaussian(R) 09 program.  It is based on
 the Gaussian(R) 03 system (copyright 2003, Gaussian, Inc.),
 the Gaussian(R) 98 system (copyright 1998, Gaussian, Inc.),
 the Gaussian(R) 94 system (copyright 1995, Gaussian, Inc.),
 the Gaussian 92(TM) system (copyright 1992, Gaussian, Inc.),
 the Gaussian 90(TM) system (copyright 1990, Gaussian, Inc.),
 the Gaussian 88(TM) system (copyright 1988, Gaussian, Inc.),
 the Gaussian 86(TM) system (copyright 1986, Carnegie Mellon
 University), and the Gaussian 82(TM) system (copyright 1983,
 Carnegie Mellon University). Gaussian is a federally registered
 trademark of Gaussian, Inc.
  
 This software contains proprietary and confidential information,
 including trade secrets, belonging to Gaussian, Inc.
  
 This software is provided under written license and may be
 used, copied, transmitted, or stored only in accord with that
 written license.
  
 The following legend is applicable only to US Government
 contracts under FAR:
  
                    RESTRICTED RIGHTS LEGEND
  
 Use, reproduction and disclosure by the US Government is
 subject to restrictions as set forth in subparagraphs (a)
 and (c) of the Commercial Computer Software - Restricted
 Rights clause in FAR 52.227-19.
  
 Gaussian, Inc.
 340 Quinnipiac St., Bldg. 40, Wallingford CT 06492
  
  
 ---------------------------------------------------------------
 Warning -- This program may not be used in any manner that
 competes with the business of Gaussian, Inc. or will provide
 assistance to any competitor of Gaussian, Inc.  The licensee
 of this program is prohibited from giving any competitor of
 Gaussian, Inc. access to this program.  By using this program,
 the user acknowledges that Gaussian, Inc. is engaged in the
 business of creating and licensing software in the field of
 computational chemistry and represents and warrants to the
 licensee that it is not a competitor of Gaussian, Inc. and that
 it will not use this program in any manner prohibited above.
 ---------------------------------------------------------------
  

 Cite this work as:
 Gaussian 09, Revision D.01,
 M. J. Frisch, G. W. Trucks, H. B. Schlegel, G. E. Scuseria, 
 M. A. Robb, J. R. Cheeseman, G. Scalmani, V. Barone, B. Mennucci, 
 G. A. Petersson, H. Nakatsuji, M. Caricato, X. Li, H. P. Hratchian, 
 A. F. Izmaylov, J. Bloino, G. Zheng, J. L. Sonnenberg, M. Hada, 
 M. Ehara, K. Toyota, R. Fukuda, J. Hasegawa, M. Ishida, T. Nakajima, 
 Y. Honda, O. Kitao, H. Nakai, T. Vreven, J. A. Montgomery, Jr., 
 J. E. Peralta, F. Ogliaro, M. Bearpark, J. J. Heyd, E. Brothers, 
 K. N. Kudin, V. N. Staroverov, T. Keith, R. Kobayashi, J. Normand, 
 K. Raghavachari, A. Rendell, J. C. Burant, S. S. Iyengar, J. Tomasi, 
 M. Cossi, N. Rega, J. M. Millam, M. Klene, J. E. Knox, J. B. Cross, 
 V. Bakken, C. Adamo, J. Jaramillo, R. Gomperts, R. E. Stratmann, 
 O. Yazyev, A. J. Austin, R. Cammi, C. Pomelli, J. W. Ochterski, 
 R. L. Martin, K. Morokuma, V. G. Zakrzewski, G. A. Voth, 
 P. Salvador, J. J. Dannenberg, S. Dapprich, A. D. Daniels, 
 O. Farkas, J. B. Foresman, J. V. Ortiz, J. Cioslowski, 
 and D. J. Fox, Gaussian, Inc., Wallingford CT, 2013.
 
 ******************************************
 Gaussian 09:  ES64L-G09RevD.01 24-Apr-2013
                26-Sep-2016 
 ******************************************
 %rwf=/home/maxb2/scratch/HNC12/
 %int=/home/maxb2/scratch/HNC12/
 %d2e=/home/maxb2/scratch/HNC12/
 %nosave
 %mem=6GB
 %nprocshared=2
 Will use up to    2 processors via shared memory.
 %chk=HNC6311ppGss
 ---------------------------------------------
 # opt=(modredundant,tight) RHF/6-311++g** gfp
 ---------------------------------------------
 1/7=10,18=120,19=15,38=1/1,3;
 2/9=110,12=2,17=6,18=5,40=1/2;
 3/5=4,6=6,7=1111,11=1,16=1,24=100,25=1,30=1,71=1,116=1/1,2,3;
 4//1;
 5/5=2,38=5/2;
 6/7=2,8=2,9=2,10=2,28=1/1;
 7//1,2,3,16;
 1/7=10,18=20,19=15/3(2);
 2/9=110/2;
 99//99;
 2/9=110/2;
 3/5=4,6=6,7=1111,11=1,16=1,25=1,30=1,71=1,116=1/1,2,3;
 4/5=5,16=3,69=1/1;
 5/5=2,38=5/2;
 7//1,2,3,16;
 1/7=10,18=20,19=15/3(-5);
 2/9=110/2;
 6/7=2,8=2,9=2,10=2,19=2,28=1/1;
 99/9=1/99;
 -------
 HNC-HCN
 -------
 Symbolic Z-matrix:
 Charge =  0 Multiplicity = 1
 N
 C                    1    B1
 H                    2    B2       1    A1
       Variables:
  B1                    1.                       
  B2                    2.3                      
  A1                   10.                       
 
 Add virtual bond connecting atoms H3         and N1         Dist= 2.51D+00.
 The following ModRedundant input section has been read:
 A       1       2       3 S  30 5.3000                                        
 

 GradGradGradGradGradGradGradGradGradGradGradGradGradGradGradGradGradGrad
 Berny optimization.
 Initialization pass.
                           ----------------------------
                           !    Initial Parameters    !
                           ! (Angstroms and Degrees)  !
 --------------------------                            --------------------------
 ! Name  Definition              Value          Derivative Info.                !
 --------------------------------------------------------------------------------
 ! R1    R(1,2)                  1.0            estimate D2E/DX2                !
 ! R2    R(1,3)                  1.3266         estimate D2E/DX2                !
 ! A1    A(2,1,3)              162.4786         estimate D2E/DX2                !
 ! A2    A(1,2,3)                10.0           Scan                            !
 --------------------------------------------------------------------------------
 Trust Radius=3.00D-01 FncErr=1.00D-07 GrdErr=1.00D-07
 Number of optimizations in scan=  31
 Number of steps in this run=     20 maximum allowed number of steps=    100.
 GradGradGradGradGradGradGradGradGradGradGradGradGradGradGradGradGradGrad

                          Input orientation:                          
 ---------------------------------------------------------------------
 Center     Atomic      Atomic             Coordinates (Angstroms)
 Number     Number       Type             X           Y           Z
 ---------------------------------------------------------------------
      1          7           0        0.000000    0.000000    0.000000
      2          6           0        0.000000    0.000000    1.000000
      3          1           0        0.399391    0.000000   -1.265058
 ---------------------------------------------------------------------
                    Distance matrix (angstroms):
                    1          2          3
     1  N    0.000000
     2  C    1.000000   0.000000
     3  H    1.326606   2.300000   0.000000
 Stoichiometry    CHN
 Framework group  CS[SG(CHN)]
 Deg. of freedom     3
 Full point group                 CS      NOp   2
 Largest Abelian subgroup         CS      NOp   2
 Largest concise Abelian subgroup C1      NOp   1
                         Standard orientation:                         
 ---------------------------------------------------------------------
 Center     Atomic      Atomic             Coordinates (Angstroms)
 Number     Number       Type             X           Y           Z
 ---------------------------------------------------------------------
      1          7           0        0.028528    0.338210    0.000000
      2          6           0        0.028528   -0.661790    0.000000
      3          1           0       -0.370863    1.603268    0.000000
 ---------------------------------------------------------------------
 Rotational constants (GHZ):   4751.4500828     53.7478820     53.1466925
 Standard basis: 6-311++G(d,p) (5D, 7F)
 AO basis set (Overlap normalization):
 Atom N1       Shell     1 S   6     bf    1 -     1          0.053909946308          0.639124568051          0.000000000000
      0.6293480000D+04  0.1969788147D-02
      0.9490440000D+03  0.1496128592D-01
      0.2187760000D+03  0.7350053084D-01
      0.6369160000D+02  0.2489367658D+00
      0.1882820000D+02  0.6024594331D+00
      0.2720230000D+01  0.2562017589D+00
 Atom N1       Shell     2 SP   3    bf    2 -     5          0.053909946308          0.639124568051          0.000000000000
      0.3063310000D+02  0.1119060795D+00  0.3831191864D-01
      0.7026140000D+01  0.9216666549D+00  0.2374031155D+00
      0.2112050000D+01 -0.2569191826D-02  0.8175923978D+00
 Atom N1       Shell     3 SP   1    bf    6 -     9          0.053909946308          0.639124568051          0.000000000000
      0.6840090000D+00  0.1000000000D+01  0.1000000000D+01
 Atom N1       Shell     4 SP   1    bf   10 -    13          0.053909946308          0.639124568051          0.000000000000
      0.2008780000D+00  0.1000000000D+01  0.1000000000D+01
 Atom N1       Shell     5 SP   1    bf   14 -    17          0.053909946308          0.639124568051          0.000000000000
      0.6390000000D-01  0.1000000000D+01  0.1000000000D+01
 Atom N1       Shell     6 D   1     bf   18 -    22          0.053909946308          0.639124568051          0.000000000000
      0.9130000000D+00  0.1000000000D+01
 Atom C2       Shell     7 S   6     bf   23 -    23          0.053909946308         -1.250601564835          0.000000000000
      0.4563240000D+04  0.1966650249D-02
      0.6820240000D+03  0.1523060193D-01
      0.1549730000D+03  0.7612690966D-01
      0.4445530000D+02  0.2608010331D+00
      0.1302900000D+02  0.6164620782D+00
      0.1827730000D+01  0.2210060280D+00
 Atom C2       Shell     8 SP   3    bf   24 -    27          0.053909946308         -1.250601564835          0.000000000000
      0.2096420000D+02  0.1146600807D+00  0.4024869267D-01
      0.4803310000D+01  0.9199996477D+00  0.2375939567D+00
      0.1459330000D+01 -0.3030682134D-02  0.8158538515D+00
 Atom C2       Shell     9 SP   1    bf   28 -    31          0.053909946308         -1.250601564835          0.000000000000
      0.4834560000D+00  0.1000000000D+01  0.1000000000D+01
 Atom C2       Shell    10 SP   1    bf   32 -    35          0.053909946308         -1.250601564835          0.000000000000
      0.1455850000D+00  0.1000000000D+01  0.1000000000D+01
 Atom C2       Shell    11 SP   1    bf   36 -    39          0.053909946308         -1.250601564835          0.000000000000
      0.4380000000D-01  0.1000000000D+01  0.1000000000D+01
 Atom C2       Shell    12 D   1     bf   40 -    44          0.053909946308         -1.250601564835          0.000000000000
      0.6260000000D+00  0.1000000000D+01
 Atom H3       Shell    13 S   3     bf   45 -    45         -0.700829302002          3.029737412657          0.000000000000
      0.3386500000D+02  0.2549381454D-01
      0.5094790000D+01  0.1903731086D+00
      0.1158790000D+01  0.8521614860D+00
 Atom H3       Shell    14 S   1     bf   46 -    46         -0.700829302002          3.029737412657          0.000000000000
      0.3258400000D+00  0.1000000000D+01
 Atom H3       Shell    15 S   1     bf   47 -    47         -0.700829302002          3.029737412657          0.000000000000
      0.1027410000D+00  0.1000000000D+01
 Atom H3       Shell    16 S   1     bf   48 -    48         -0.700829302002          3.029737412657          0.000000000000
      0.3600000000D-01  0.1000000000D+01
 Atom H3       Shell    17 P   1     bf   49 -    51         -0.700829302002          3.029737412657          0.000000000000
      0.7500000000D+00  0.1000000000D+01
 There are    40 symmetry adapted cartesian basis functions of A'  symmetry.
 There are    13 symmetry adapted cartesian basis functions of A"  symmetry.
 There are    38 symmetry adapted basis functions of A'  symmetry.
 There are    13 symmetry adapted basis functions of A"  symmetry.
    51 basis functions,    81 primitive gaussians,    53 cartesian basis functions
     7 alpha electrons        7 beta electrons
       nuclear repulsion energy        26.3981731013 Hartrees.
 NAtoms=    3 NActive=    3 NUniq=    3 SFac= 1.00D+00 NAtFMM=   60 NAOKFM=F Big=F
 Integral buffers will be    131072 words long.
 Raffenetti 1 integral format.
 Two-electron integral symmetry is turned on.
 One-electron integrals computed using PRISM.
 NBasis=    51 RedAO= T EigKep=  1.52D-03  NBF=    38    13
 NBsUse=    51 1.00D-06 EigRej= -1.00D+00 NBFU=    38    13
 ExpMin= 3.60D-02 ExpMax= 6.29D+03 ExpMxC= 9.49D+02 IAcc=3 IRadAn=         5 AccDes= 0.00D+00
 Harris functional with IExCor=  205 and IRadAn=       5 diagonalized for initial guess.
 HarFok:  IExCor=  205 AccDes= 0.00D+00 IRadAn=         5 IDoV= 1 UseB2=F ITyADJ=14
 ICtDFT=  3500011 ScaDFX=  1.000000  1.000000  1.000000  1.000000
 FoFCou: FMM=F IPFlag=           0 FMFlag=      100000 FMFlg1=           0
         NFxFlg=           0 DoJE=T BraDBF=F KetDBF=T FulRan=T
         wScrn=  0.000000 ICntrl=     500 IOpCl=  0 I1Cent=   200000004 NGrid=           0
         NMat0=    1 NMatS0=      1 NMatT0=    0 NMatD0=    1 NMtDS0=    0 NMtDT0=    0
 Petite list used in FoFCou.
 Initial guess orbital symmetries:
       Occupied  (A') (A') (A') (A') (A") (A') (A')
       Virtual   (A') (A") (A') (A') (A") (A') (A') (A') (A') (A")
                 (A') (A') (A') (A') (A") (A') (A') (A") (A') (A')
                 (A') (A') (A") (A') (A") (A') (A') (A") (A') (A")
                 (A') (A') (A') (A") (A') (A") (A') (A') (A') (A")
                 (A') (A') (A') (A')
 The electronic state of the initial guess is 1-A'.
 Keep R1 ints in memory in symmetry-blocked form, NReq=1745462.
 Requested convergence on RMS density matrix=1.00D-08 within 128 cycles.
 Requested convergence on MAX density matrix=1.00D-06.
 Requested convergence on             energy=1.00D-06.
 No special actions if energy rises.
 SCF Done:  E(RHF) =  -92.7425010978     A.U. after   12 cycles
            NFock= 12  Conv=0.16D-08     -V/T= 1.9919

 **********************************************************************

            Population analysis using the SCF density.

 **********************************************************************

 Orbital symmetries:
       Occupied  (A') (A') (A') (A') (A') (A") (A')
       Virtual   (A') (A') (A') (A") (A') (A') (A") (A') (A') (A")
                 (A') (A') (A') (A') (A") (A') (A') (A") (A') (A')
                 (A') (A") (A') (A') (A") (A') (A') (A") (A') (A")
                 (A') (A') (A') (A") (A') (A") (A') (A') (A') (A")
                 (A') (A') (A') (A')
 The electronic state is 1-A'.
 Alpha  occ. eigenvalues --  -15.58960 -11.21422  -1.32968  -0.76049  -0.57179
 Alpha  occ. eigenvalues --   -0.57080  -0.44479
 Alpha virt. eigenvalues --    0.01432   0.09626   0.11453   0.11810   0.13069
 Alpha virt. eigenvalues --    0.14552   0.18276   0.18742   0.28662   0.32091
 Alpha virt. eigenvalues --    0.32627   0.34918   0.52603   0.57391   0.75323
 Alpha virt. eigenvalues --    0.76143   0.96117   1.02276   1.03918   1.10151
 Alpha virt. eigenvalues --    1.28161   1.48333   1.51295   1.54265   1.54480
 Alpha virt. eigenvalues --    1.59337   1.85256   1.91231   2.10838   2.43903
 Alpha virt. eigenvalues --    2.44190   2.61995   2.85664   3.08543   3.16378
 Alpha virt. eigenvalues --    3.21389   3.23183   3.31083   3.98491   4.41049
 Alpha virt. eigenvalues --    4.41944   5.21284  25.35967  37.50123
          Condensed to atoms (all electrons):
               1          2          3
     1  N    6.465458   0.552344   0.287837
     2  C    0.552344   5.563957   0.002920
     3  H    0.287837   0.002920   0.284384
 Mulliken charges:
               1
     1  N   -0.305639
     2  C   -0.119221
     3  H    0.424860
 Sum of Mulliken charges =   0.00000
 Mulliken charges with hydrogens summed into heavy atoms:
               1
     1  N    0.119221
     2  C   -0.119221
 Electronic spatial extent (au):  <R**2>=             46.2510
 Charge=              0.0000 electrons
 Dipole moment (field-independent basis, Debye):
    X=             -0.8898    Y=              4.3601    Z=              0.0000  Tot=              4.4499
 Quadrupole moment (field-independent basis, Debye-Ang):
   XX=            -11.6518   YY=             -9.0105   ZZ=            -12.0211
   XY=             -1.4223   XZ=              0.0000   YZ=              0.0000
 Traceless Quadrupole moment (field-independent basis, Debye-Ang):
   XX=             -0.7573   YY=              1.8839   ZZ=             -1.1266
   XY=             -1.4223   XZ=              0.0000   YZ=              0.0000
 Octapole moment (field-independent basis, Debye-Ang**2):
  XXX=             -0.6391  YYY=             19.0545  ZZZ=              0.0000  XYY=             -2.8432
  XXY=              2.1187  XXZ=              0.0000  XZZ=             -0.1647  YZZ=              1.5259
  YYZ=              0.0000  XYZ=              0.0000
 Hexadecapole moment (field-independent basis, Debye-Ang**3):
 XXXX=            -12.8594 YYYY=            -32.1575 ZZZZ=            -12.5364 XXXY=              0.7506
 XXXZ=              0.0000 YYYX=             -3.2983 YYYZ=              0.0000 ZZZX=              0.0000
 ZZZY=              0.0000 XXYY=             -8.7205 XXZZ=             -4.2429 YYZZ=             -9.7280
 XXYZ=              0.0000 YYXZ=              0.0000 ZZXY=              0.3364
 N-N= 2.639817310127D+01 E-N=-2.708221762412D+02  KE= 9.350357132434D+01
 Symmetry A'   KE= 9.042841516292D+01
 Symmetry A"   KE= 3.075156161423D+00
 Calling FoFJK, ICntrl=      2127 FMM=F ISym2X=1 I1Cent= 0 IOpClX= 0 NMat=1 NMatS=1 NMatT=0.
 ***** Axes restored to original set *****
 -------------------------------------------------------------------
 Center     Atomic                   Forces (Hartrees/Bohr)
 Number     Number              X              Y              Z
 -------------------------------------------------------------------
      1        7           0.056705765    0.000000000   -0.760092896
      2        6          -0.007656127    0.000000000    0.623899223
      3        1          -0.049049637    0.000000000    0.136193673
 -------------------------------------------------------------------
 Cartesian Forces:  Max     0.760092896 RMS     0.331866806

 GradGradGradGradGradGradGradGradGradGradGradGradGradGradGradGradGradGrad
 Berny optimization.
 FormGI is forming the generalized inverse of G from B-inverse, IUseBI=4.
 Internal  Forces:  Max     0.622770638 RMS     0.319890592
 Search for a local minimum.
 Step number   1 out of a maximum of   20 on scan point     1 out of    31
 All quantities printed in internal units (Hartrees-Bohrs-Radians)
 Mixed Optimization -- RFO/linear search
 Second derivative matrix not updated -- first step.
 The second derivative matrix:
                          R1        R2        A1        A2
           R1           3.32740
           R2           0.00000   0.17328
           A1           0.00000   0.00000   0.16000
           A2           0.00000   0.00000   0.00000   0.16000
 ITU=  0
     Eigenvalues ---    0.17325   3.312051000.000001000.00000
 RFO step:  Lambda=-1.70703724D-01 EMin= 1.73245494D-01
 Linear search not attempted -- first point.
 Maximum step size (   0.300) exceeded in Quadratic search.
    -- Step size scaled by   0.660
 Iteration  1 RMS(Cart)=  0.07298005 RMS(Int)=  0.03770836
 Iteration  2 RMS(Cart)=  0.03071953 RMS(Int)=  0.00066300
 Iteration  3 RMS(Cart)=  0.00002360 RMS(Int)=  0.00066230
 Iteration  4 RMS(Cart)=  0.00000000 RMS(Int)=  0.00066230
 Iteration  1 RMS(Cart)=  0.00021386 RMS(Int)=  0.00051699
 Iteration  2 RMS(Cart)=  0.00016696 RMS(Int)=  0.00055951
 Iteration  3 RMS(Cart)=  0.00013033 RMS(Int)=  0.00064219
 Iteration  4 RMS(Cart)=  0.00010174 RMS(Int)=  0.00072715
 Iteration  5 RMS(Cart)=  0.00007942 RMS(Int)=  0.00080198
 Iteration  6 RMS(Cart)=  0.00006200 RMS(Int)=  0.00086422
 Iteration  7 RMS(Cart)=  0.00004839 RMS(Int)=  0.00091466
 Iteration  8 RMS(Cart)=  0.00003777 RMS(Int)=  0.00095498
 Iteration  9 RMS(Cart)=  0.00002949 RMS(Int)=  0.00098696
 Iteration 10 RMS(Cart)=  0.00002302 RMS(Int)=  0.00101220
 Iteration 11 RMS(Cart)=  0.00001796 RMS(Int)=  0.00103205
 Iteration 12 RMS(Cart)=  0.00001402 RMS(Int)=  0.00104764
 Iteration 13 RMS(Cart)=  0.00001095 RMS(Int)=  0.00105986
 Iteration 14 RMS(Cart)=  0.00000854 RMS(Int)=  0.00106943
 Iteration 15 RMS(Cart)=  0.00000667 RMS(Int)=  0.00107692
 Iteration 16 RMS(Cart)=  0.00000521 RMS(Int)=  0.00108277
 Iteration 17 RMS(Cart)=  0.00000406 RMS(Int)=  0.00108735
 Iteration 18 RMS(Cart)=  0.00000317 RMS(Int)=  0.00109092
 Iteration 19 RMS(Cart)=  0.00000248 RMS(Int)=  0.00109372
 Iteration 20 RMS(Cart)=  0.00000193 RMS(Int)=  0.00109590
 Iteration 21 RMS(Cart)=  0.00000151 RMS(Int)=  0.00109760
 Iteration 22 RMS(Cart)=  0.00000118 RMS(Int)=  0.00109894
 Iteration 23 RMS(Cart)=  0.00000092 RMS(Int)=  0.00109997
 ClnCor:  largest displacement from symmetrization is 2.78D-17 for atom     1.
 Variable       Old X    -DE/DX   Delta X   Delta X   Delta X     New X
                                 (Linear)    (Quad)   (Total)
    R1        1.88973   0.62277   0.00000   0.11746   0.11724   2.00697
    R2        2.50692  -0.14379   0.00000  -0.27511  -0.27492   2.23201
    A1        2.83579  -0.00168   0.00000  -0.02270  -0.02550   2.81029
    A2        0.17453  -0.02825   0.00000   0.00000   0.00000   0.17453
         Item               Value     Threshold  Converged?
 Maximum Force            0.619345     0.000015     NO 
 RMS     Force            0.367922     0.000010     NO 
 Maximum Displacement     0.145089     0.000060     NO 
 RMS     Displacement     0.099807     0.000040     NO 
 Predicted change in Energy=-8.311908D-02
 GradGradGradGradGradGradGradGradGradGradGradGradGradGradGradGradGradGrad

                          Input orientation:                          
 ---------------------------------------------------------------------
 Center     Atomic      Atomic             Coordinates (Angstroms)
 Number     Number       Type             X           Y           Z
 ---------------------------------------------------------------------
      1          7           0        0.005162    0.000000   -0.069402
      2          6           0        0.010686    0.000000    0.992624
      3          1           0        0.383543    0.000000   -1.188280
 ---------------------------------------------------------------------
                    Distance matrix (angstroms):
                    1          2          3
     1  N    0.000000
     2  C    1.062041   0.000000
     3  H    1.181127   2.212547   0.000000
 Stoichiometry    CHN
 Framework group  CS[SG(CHN)]
 Deg. of freedom     3
 Full point group                 CS      NOp   2
 Largest Abelian subgroup         CS      NOp   2
 Largest concise Abelian subgroup C1      NOp   1
                         Standard orientation:                         
 ---------------------------------------------------------------------
 Center     Atomic      Atomic             Coordinates (Angstroms)
 Number     Number       Type             X           Y           Z
 ---------------------------------------------------------------------
      1          7           0        0.027443    0.375382    0.000000
      2          6           0        0.027443   -0.686659    0.000000
      3          1           0       -0.356754    1.492277    0.000000
 ---------------------------------------------------------------------
 Rotational constants (GHZ):   4759.9069558     51.4039726     50.8547734
 Standard basis: 6-311++G(d,p) (5D, 7F)
 There are    40 symmetry adapted cartesian basis functions of A'  symmetry.
 There are    13 symmetry adapted cartesian basis functions of A"  symmetry.
 There are    38 symmetry adapted basis functions of A'  symmetry.
 There are    13 symmetry adapted basis functions of A"  symmetry.
    51 basis functions,    81 primitive gaussians,    53 cartesian basis functions
     7 alpha electrons        7 beta electrons
       nuclear repulsion energy        25.4983298057 Hartrees.
 NAtoms=    3 NActive=    3 NUniq=    3 SFac= 1.00D+00 NAtFMM=   60 NAOKFM=F Big=F
 Integral buffers will be    131072 words long.
 Raffenetti 1 integral format.
 Two-electron integral symmetry is turned on.
 One-electron integrals computed using PRISM.
 NBasis=    51 RedAO= T EigKep=  1.79D-03  NBF=    38    13
 NBsUse=    51 1.00D-06 EigRej= -1.00D+00 NBFU=    38    13
 Initial guess from the checkpoint file:  "HNC6311ppGss.chk"
 B after Tr=     0.000000    0.000000    0.000000
         Rot=    0.999999    0.000000    0.000000   -0.001623 Ang=  -0.19 deg.
 Initial guess orbital symmetries:
       Occupied  (A') (A') (A') (A') (A') (A") (A')
       Virtual   (A') (A') (A') (A') (A') (A') (A') (A') (A') (A')
                 (A') (A') (A') (A') (A') (A') (A') (A') (A') (A')
                 (A') (A') (A') (A') (A') (A') (A') (A') (A') (A')
                 (A') (A') (A") (A") (A") (A") (A") (A") (A") (A")
                 (A") (A") (A") (A")
 ExpMin= 3.60D-02 ExpMax= 6.29D+03 ExpMxC= 9.49D+02 IAcc=3 IRadAn=         5 AccDes= 0.00D+00
 Harris functional with IExCor=  205 and IRadAn=       5 diagonalized for initial guess.
 HarFok:  IExCor=  205 AccDes= 0.00D+00 IRadAn=         5 IDoV= 1 UseB2=F ITyADJ=14
 ICtDFT=  3500011 ScaDFX=  1.000000  1.000000  1.000000  1.000000
 FoFCou: FMM=F IPFlag=           0 FMFlag=      100000 FMFlg1=           0
         NFxFlg=           0 DoJE=T BraDBF=F KetDBF=T FulRan=T
         wScrn=  0.000000 ICntrl=     500 IOpCl=  0 I1Cent=   200000004 NGrid=           0
         NMat0=    1 NMatS0=      1 NMatT0=    0 NMatD0=    1 NMtDS0=    0 NMtDT0=    0
 Petite list used in FoFCou.
 Keep R1 ints in memory in symmetry-blocked form, NReq=1745504.
 Requested convergence on RMS density matrix=1.00D-08 within 128 cycles.
 Requested convergence on MAX density matrix=1.00D-06.
 Requested convergence on             energy=1.00D-06.
 No special actions if energy rises.
 SCF Done:  E(RHF) =  -92.8325850919     A.U. after   12 cycles
            NFock= 12  Conv=0.79D-08     -V/T= 1.9968
 Calling FoFJK, ICntrl=      2127 FMM=F ISym2X=1 I1Cent= 0 IOpClX= 0 NMat=1 NMatS=1 NMatT=0.
 ***** Axes restored to original set *****
 -------------------------------------------------------------------
 Center     Atomic                   Forces (Hartrees/Bohr)
 Number     Number              X              Y              Z
 -------------------------------------------------------------------
      1        7           0.049414417    0.000000000   -0.415779581
      2        6          -0.005146851    0.000000000    0.303760753
      3        1          -0.044267567    0.000000000    0.112018828
 -------------------------------------------------------------------
 Cartesian Forces:  Max     0.415779581 RMS     0.177049700

 GradGradGradGradGradGradGradGradGradGradGradGradGradGradGradGradGradGrad
 Berny optimization.
 Using GEDIIS/GDIIS optimizer.
 FormGI is forming the generalized inverse of G from B-inverse, IUseBI=4.
 Internal  Forces:  Max     0.302944575 RMS     0.163131299
 Search for a local minimum.
 Step number   2 out of a maximum of   20 on scan point     1 out of    31
 All quantities printed in internal units (Hartrees-Bohrs-Radians)
 Mixed Optimization -- RFO/linear search
 Update second derivatives using D2CorX and points    1    2
 DE= -9.01D-02 DEPred=-8.31D-02 R= 1.08D+00
 TightC=F SS=  1.41D+00  RLast= 3.00D-01 DXNew= 5.0454D-01 8.9987D-01
 Trust test= 1.08D+00 RLast= 3.00D-01 DXMaxT set to 5.05D-01
 The second derivative matrix:
                          R1        R2        A1        A2
           R1           3.05518
           R2           0.14053   0.14800
           A1          -0.01066  -0.00045   0.16033
           A2          -0.06745   0.00510   0.00110   0.16197
 ITU=  1  0
 Use linear search instead of GDIIS.
 Linear search step of   0.532 exceeds DXMaxT=   0.505 but not scaled.
 Quartic linear search produced a step of  1.77505.
 Iteration  1 RMS(Cart)=  0.08467487 RMS(Int)=  0.14450115
 Iteration  2 RMS(Cart)=  0.07988174 RMS(Int)=  0.04457309
 Iteration  3 RMS(Cart)=  0.03606573 RMS(Int)=  0.00407047
 Iteration  4 RMS(Cart)=  0.00008931 RMS(Int)=  0.00406875
 Iteration  5 RMS(Cart)=  0.00000009 RMS(Int)=  0.00406875
 Iteration  1 RMS(Cart)=  0.00112594 RMS(Int)=  0.00340400
 Iteration  2 RMS(Cart)=  0.00094118 RMS(Int)=  0.00363041
 Iteration  3 RMS(Cart)=  0.00078659 RMS(Int)=  0.00411756
 Iteration  4 RMS(Cart)=  0.00065729 RMS(Int)=  0.00467044
 Iteration  5 RMS(Cart)=  0.00054917 RMS(Int)=  0.00520209
 Iteration  6 RMS(Cart)=  0.00045878 RMS(Int)=  0.00568122
 Iteration  7 RMS(Cart)=  0.00038324 RMS(Int)=  0.00610005
 Iteration  8 RMS(Cart)=  0.00032010 RMS(Int)=  0.00646032
 Iteration  9 RMS(Cart)=  0.00026736 RMS(Int)=  0.00676731
 Iteration 10 RMS(Cart)=  0.00022329 RMS(Int)=  0.00702739
 Iteration 11 RMS(Cart)=  0.00018647 RMS(Int)=  0.00724687
 Iteration 12 RMS(Cart)=  0.00015572 RMS(Int)=  0.00743161
 Iteration 13 RMS(Cart)=  0.00013004 RMS(Int)=  0.00758682
 Iteration 14 RMS(Cart)=  0.00010859 RMS(Int)=  0.00771704
 Iteration 15 RMS(Cart)=  0.00009067 RMS(Int)=  0.00782619
 Iteration 16 RMS(Cart)=  0.00007571 RMS(Int)=  0.00791759
 Iteration 17 RMS(Cart)=  0.00006322 RMS(Int)=  0.00799410
 Iteration 18 RMS(Cart)=  0.00005279 RMS(Int)=  0.00805811
 Iteration 19 RMS(Cart)=  0.00004408 RMS(Int)=  0.00811163
 Iteration 20 RMS(Cart)=  0.00003680 RMS(Int)=  0.00815638
 Iteration 21 RMS(Cart)=  0.00003073 RMS(Int)=  0.00819379
 Iteration 22 RMS(Cart)=  0.00002566 RMS(Int)=  0.00822505
 Iteration 23 RMS(Cart)=  0.00002142 RMS(Int)=  0.00825117
 Iteration 24 RMS(Cart)=  0.00001789 RMS(Int)=  0.00827299
 Iteration 25 RMS(Cart)=  0.00001494 RMS(Int)=  0.00829121
 Iteration 26 RMS(Cart)=  0.00001247 RMS(Int)=  0.00830644
 Iteration 27 RMS(Cart)=  0.00001041 RMS(Int)=  0.00831915
 Iteration 28 RMS(Cart)=  0.00000869 RMS(Int)=  0.00832977
 Iteration 29 RMS(Cart)=  0.00000726 RMS(Int)=  0.00833864
 Iteration 30 RMS(Cart)=  0.00000606 RMS(Int)=  0.00834605
 Iteration 31 RMS(Cart)=  0.00000506 RMS(Int)=  0.00835224
 Iteration 32 RMS(Cart)=  0.00000422 RMS(Int)=  0.00835740
 Iteration 33 RMS(Cart)=  0.00000353 RMS(Int)=  0.00836171
 Iteration 34 RMS(Cart)=  0.00000295 RMS(Int)=  0.00836532
 Iteration 35 RMS(Cart)=  0.00000246 RMS(Int)=  0.00836832
 Iteration 36 RMS(Cart)=  0.00000205 RMS(Int)=  0.00837083
 Iteration 37 RMS(Cart)=  0.00000171 RMS(Int)=  0.00837293
 Iteration 38 RMS(Cart)=  0.00000143 RMS(Int)=  0.00837468
 Iteration 39 RMS(Cart)=  0.00000119 RMS(Int)=  0.00837614
 Iteration 40 RMS(Cart)=  0.00000100 RMS(Int)=  0.00837736
 ClnCor:  largest displacement from symmetrization is 1.62D-15 for atom     3.
 Variable       Old X    -DE/DX   Delta X   Delta X   Delta X     New X
                                 (Linear)    (Quad)   (Total)
    R1        2.00697   0.30294   0.20811   0.00000   0.20615   2.21311
    R2        2.23201  -0.11959  -0.48799   0.00000  -0.48549   1.74651
    A1        2.81029   0.00353  -0.04527   0.00000  -0.06507   2.74522
    A2        0.17453  -0.01891  -0.00001   0.00000   0.00000   0.17453
         Item               Value     Threshold  Converged?
 Maximum Force            0.300151     0.000015     NO 
 RMS     Force            0.186921     0.000010     NO 
 Maximum Displacement     0.259996     0.000060     NO 
 RMS     Displacement     0.178145     0.000040     NO 
 Predicted change in Energy=-5.151867D-02
 GradGradGradGradGradGradGradGradGradGradGradGradGradGradGradGradGradGrad

                          Input orientation:                          
 ---------------------------------------------------------------------
 Center     Atomic      Atomic             Coordinates (Angstroms)
 Number     Number       Type             X           Y           Z
 ---------------------------------------------------------------------
      1          7           0        0.012548    0.000000   -0.192674
      2          6           0        0.030823    0.000000    0.978312
      3          1           0        0.356020    0.000000   -1.050696
 ---------------------------------------------------------------------
                    Distance matrix (angstroms):
                    1          2          3
     1  N    0.000000
     2  C    1.171129   0.000000
     3  H    0.924216   2.054903   0.000000
 Stoichiometry    CHN
 Framework group  CS[SG(CHN)]
 Deg. of freedom     3
 Full point group                 CS      NOp   2
 Largest Abelian subgroup         CS      NOp   2
 Largest concise Abelian subgroup C1      NOp   1
                         Standard orientation:                         
 ---------------------------------------------------------------------
 Center     Atomic      Atomic             Coordinates (Angstroms)
 Number     Number       Type             X           Y           Z
 ---------------------------------------------------------------------
      1          7           0        0.025487    0.441015    0.000000
      2          6           0        0.025487   -0.730113    0.000000
      3          1           0       -0.331332    1.293573    0.000000
 ---------------------------------------------------------------------
 Rotational constants (GHZ):   4970.3275041     46.9345958     46.4955404
 Standard basis: 6-311++G(d,p) (5D, 7F)
 There are    40 symmetry adapted cartesian basis functions of A'  symmetry.
 There are    13 symmetry adapted cartesian basis functions of A"  symmetry.
 There are    38 symmetry adapted basis functions of A'  symmetry.
 There are    13 symmetry adapted basis functions of A"  symmetry.
    51 basis functions,    81 primitive gaussians,    53 cartesian basis functions
     7 alpha electrons        7 beta electrons
       nuclear repulsion energy        24.5308926280 Hartrees.
 NAtoms=    3 NActive=    3 NUniq=    3 SFac= 1.00D+00 NAtFMM=   60 NAOKFM=F Big=F
 Integral buffers will be    131072 words long.
 Raffenetti 1 integral format.
 Two-electron integral symmetry is turned on.
 One-electron integrals computed using PRISM.
 NBasis=    51 RedAO= T EigKep=  2.17D-03  NBF=    38    13
 NBsUse=    51 1.00D-06 EigRej= -1.00D+00 NBFU=    38    13
 Initial guess from the checkpoint file:  "HNC6311ppGss.chk"
 B after Tr=     0.000000    0.000000    0.000000
         Rot=    0.999996    0.000000    0.000000   -0.002851 Ang=  -0.33 deg.
 Initial guess orbital symmetries:
       Occupied  (A') (A') (A') (A') (A') (A") (A')
       Virtual   (A') (A') (A') (A') (A') (A') (A') (A') (A') (A')
                 (A') (A') (A') (A') (A') (A') (A') (A') (A') (A')
                 (A') (A') (A') (A') (A') (A') (A') (A') (A') (A')
                 (A') (A') (A") (A") (A") (A") (A") (A") (A") (A")
                 (A") (A") (A") (A")
 ExpMin= 3.60D-02 ExpMax= 6.29D+03 ExpMxC= 9.49D+02 IAcc=3 IRadAn=         5 AccDes= 0.00D+00
 Harris functional with IExCor=  205 and IRadAn=       5 diagonalized for initial guess.
 HarFok:  IExCor=  205 AccDes= 0.00D+00 IRadAn=         5 IDoV= 1 UseB2=F ITyADJ=14
 ICtDFT=  3500011 ScaDFX=  1.000000  1.000000  1.000000  1.000000
 FoFCou: FMM=F IPFlag=           0 FMFlag=      100000 FMFlg1=           0
         NFxFlg=           0 DoJE=T BraDBF=F KetDBF=T FulRan=T
         wScrn=  0.000000 ICntrl=     500 IOpCl=  0 I1Cent=   200000004 NGrid=           0
         NMat0=    1 NMatS0=      1 NMatT0=    0 NMatD0=    1 NMtDS0=    0 NMtDT0=    0
 Petite list used in FoFCou.
 Keep R1 ints in memory in symmetry-blocked form, NReq=1745474.
 Requested convergence on RMS density matrix=1.00D-08 within 128 cycles.
 Requested convergence on MAX density matrix=1.00D-06.
 Requested convergence on             energy=1.00D-06.
 No special actions if energy rises.
 SCF Done:  E(RHF) =  -92.8769456487     A.U. after   13 cycles
            NFock= 13  Conv=0.63D-08     -V/T= 1.9998
 Calling FoFJK, ICntrl=      2127 FMM=F ISym2X=1 I1Cent= 0 IOpClX= 0 NMat=1 NMatS=1 NMatT=0.
 ***** Axes restored to original set *****
 -------------------------------------------------------------------
 Center     Atomic                   Forces (Hartrees/Bohr)
 Number     Number              X              Y              Z
 -------------------------------------------------------------------
      1        7          -0.018497125    0.000000000    0.121499380
      2        6          -0.005925306    0.000000000   -0.042553239
      3        1           0.024422431    0.000000000   -0.078946141
 -------------------------------------------------------------------
 Cartesian Forces:  Max     0.121499380 RMS     0.051401555

 GradGradGradGradGradGradGradGradGradGradGradGradGradGradGradGradGradGrad
 Berny optimization.
 Using GEDIIS/GDIIS optimizer.
 FormGI is forming the generalized inverse of G from B-inverse, IUseBI=4.
 Internal  Forces:  Max     0.082298799 RMS     0.046734551
 Search for a local minimum.
 Step number   3 out of a maximum of   20 on scan point     1 out of    31
 All quantities printed in internal units (Hartrees-Bohrs-Radians)
 Mixed Optimization -- RFO/linear search
 Update second derivatives using D2CorX and points    2    3
 The second derivative matrix:
                          R1        R2        A1        A2
           R1           1.45935
           R2          -0.09506   0.37468
           A1           0.02249   0.00597   0.15965
           A2          -0.04114   0.02391   0.00064   0.16239
 ITU=  0  1  0
 Use linear search instead of GDIIS.
     Eigenvalues ---    0.36533   1.446661000.000001000.00000
 RFO step:  Lambda=-2.65952004D-03 EMin= 3.65330600D-01
 Quartic linear search produced a step of -0.23328.
 Iteration  1 RMS(Cart)=  0.06907420 RMS(Int)=  0.00086986
 Iteration  2 RMS(Cart)=  0.00056944 RMS(Int)=  0.00045456
 Iteration  3 RMS(Cart)=  0.00000032 RMS(Int)=  0.00045456
 Iteration  1 RMS(Cart)=  0.00013510 RMS(Int)=  0.00037020
 Iteration  2 RMS(Cart)=  0.00011071 RMS(Int)=  0.00039663
 Iteration  3 RMS(Cart)=  0.00009072 RMS(Int)=  0.00045183
 Iteration  4 RMS(Cart)=  0.00007435 RMS(Int)=  0.00051268
 Iteration  5 RMS(Cart)=  0.00006093 RMS(Int)=  0.00056970
 Iteration  6 RMS(Cart)=  0.00004993 RMS(Int)=  0.00061992
 Iteration  7 RMS(Cart)=  0.00004092 RMS(Int)=  0.00066288
 Iteration  8 RMS(Cart)=  0.00003353 RMS(Int)=  0.00069908
 Iteration  9 RMS(Cart)=  0.00002748 RMS(Int)=  0.00072930
 Iteration 10 RMS(Cart)=  0.00002252 RMS(Int)=  0.00075440
 Iteration 11 RMS(Cart)=  0.00001846 RMS(Int)=  0.00077518
 Iteration 12 RMS(Cart)=  0.00001513 RMS(Int)=  0.00079232
 Iteration 13 RMS(Cart)=  0.00001240 RMS(Int)=  0.00080646
 Iteration 14 RMS(Cart)=  0.00001016 RMS(Int)=  0.00081809
 Iteration 15 RMS(Cart)=  0.00000833 RMS(Int)=  0.00082765
 Iteration 16 RMS(Cart)=  0.00000682 RMS(Int)=  0.00083551
 Iteration 17 RMS(Cart)=  0.00000559 RMS(Int)=  0.00084197
 Iteration 18 RMS(Cart)=  0.00000458 RMS(Int)=  0.00084727
 Iteration 19 RMS(Cart)=  0.00000376 RMS(Int)=  0.00085162
 Iteration 20 RMS(Cart)=  0.00000308 RMS(Int)=  0.00085518
 Iteration 21 RMS(Cart)=  0.00000252 RMS(Int)=  0.00085811
 Iteration 22 RMS(Cart)=  0.00000207 RMS(Int)=  0.00086051
 Iteration 23 RMS(Cart)=  0.00000169 RMS(Int)=  0.00086248
 Iteration 24 RMS(Cart)=  0.00000139 RMS(Int)=  0.00086409
 Iteration 25 RMS(Cart)=  0.00000114 RMS(Int)=  0.00086542
 Iteration 26 RMS(Cart)=  0.00000093 RMS(Int)=  0.00086650
 ClnCor:  largest displacement from symmetrization is 1.81D-15 for atom     3.
 Variable       Old X    -DE/DX   Delta X   Delta X   Delta X     New X
                                 (Linear)    (Quad)   (Total)
    R1        2.21311  -0.04259  -0.04809   0.03428  -0.01362   2.19950
    R2        1.74651   0.08230   0.11325   0.05901   0.17204   1.91856
    A1        2.74522   0.01218   0.01518   0.00414   0.02142   2.76663
    A2        0.17453   0.00122   0.00000   0.00000   0.00001   0.17454
         Item               Value     Threshold  Converged?
 Maximum Force            0.081948     0.000015     NO 
 RMS     Force            0.053936     0.000010     NO 
 Maximum Displacement     0.110518     0.000060     NO 
 RMS     Displacement     0.069333     0.000040     NO 
 Predicted change in Energy=-9.044544D-03
 GradGradGradGradGradGradGradGradGradGradGradGradGradGradGradGradGradGrad

                          Input orientation:                          
 ---------------------------------------------------------------------
 Center     Atomic      Atomic             Coordinates (Angstroms)
 Number     Number       Type             X           Y           Z
 ---------------------------------------------------------------------
      1          7           0        0.008280    0.000000   -0.159855
      2          6           0        0.022930    0.000000    1.003977
      3          1           0        0.368181    0.000000   -1.109180
 ---------------------------------------------------------------------
                    Distance matrix (angstroms):
                    1          2          3
     1  N    0.000000
     2  C    1.163924   0.000000
     3  H    1.015257   2.141174   0.000000
 Stoichiometry    CHN
 Framework group  CS[SG(CHN)]
 Deg. of freedom     3
 Full point group                 CS      NOp   2
 Largest Abelian subgroup         CS      NOp   2
 Largest concise Abelian subgroup C1      NOp   1
                         Standard orientation:                         
 ---------------------------------------------------------------------
 Center     Atomic      Atomic             Coordinates (Angstroms)
 Number     Number       Type             X           Y           Z
 ---------------------------------------------------------------------
      1          7           0        0.026559    0.431344    0.000000
      2          6           0        0.026559   -0.732579    0.000000
      3          1           0       -0.345262    1.376064    0.000000
 ---------------------------------------------------------------------
 Rotational constants (GHZ):   4696.0535079     46.3163495     45.8640009
 Standard basis: 6-311++G(d,p) (5D, 7F)
 There are    40 symmetry adapted cartesian basis functions of A'  symmetry.
 There are    13 symmetry adapted cartesian basis functions of A"  symmetry.
 There are    38 symmetry adapted basis functions of A'  symmetry.
 There are    13 symmetry adapted basis functions of A"  symmetry.
    51 basis functions,    81 primitive gaussians,    53 cartesian basis functions
     7 alpha electrons        7 beta electrons
       nuclear repulsion energy        24.2267122655 Hartrees.
 NAtoms=    3 NActive=    3 NUniq=    3 SFac= 1.00D+00 NAtFMM=   60 NAOKFM=F Big=F
 Integral buffers will be    131072 words long.
 Raffenetti 1 integral format.
 Two-electron integral symmetry is turned on.
 One-electron integrals computed using PRISM.
 NBasis=    51 RedAO= T EigKep=  2.24D-03  NBF=    38    13
 NBsUse=    51 1.00D-06 EigRej= -1.00D+00 NBFU=    38    13
 Initial guess from the checkpoint file:  "HNC6311ppGss.chk"
 B after Tr=     0.000000    0.000000    0.000000
         Rot=    1.000000    0.000000    0.000000    0.000778 Ang=   0.09 deg.
 Initial guess orbital symmetries:
       Occupied  (A') (A') (A') (A') (A') (A") (A')
       Virtual   (A') (A') (A') (A') (A') (A') (A') (A') (A') (A')
                 (A') (A') (A') (A') (A') (A') (A') (A') (A') (A')
                 (A') (A') (A') (A') (A') (A') (A') (A') (A') (A')
                 (A') (A') (A") (A") (A") (A") (A") (A") (A") (A")
                 (A") (A") (A") (A")
 ExpMin= 3.60D-02 ExpMax= 6.29D+03 ExpMxC= 9.49D+02 IAcc=3 IRadAn=         5 AccDes= 0.00D+00
 Harris functional with IExCor=  205 and IRadAn=       5 diagonalized for initial guess.
 HarFok:  IExCor=  205 AccDes= 0.00D+00 IRadAn=         5 IDoV= 1 UseB2=F ITyADJ=14
 ICtDFT=  3500011 ScaDFX=  1.000000  1.000000  1.000000  1.000000
 FoFCou: FMM=F IPFlag=           0 FMFlag=      100000 FMFlg1=           0
         NFxFlg=           0 DoJE=T BraDBF=F KetDBF=T FulRan=T
         wScrn=  0.000000 ICntrl=     500 IOpCl=  0 I1Cent=   200000004 NGrid=           0
         NMat0=    1 NMatS0=      1 NMatT0=    0 NMatD0=    1 NMtDS0=    0 NMtDT0=    0
 Petite list used in FoFCou.
 Keep R1 ints in memory in symmetry-blocked form, NReq=1745474.
 Requested convergence on RMS density matrix=1.00D-08 within 128 cycles.
 Requested convergence on MAX density matrix=1.00D-06.
 Requested convergence on             energy=1.00D-06.
 No special actions if energy rises.
 SCF Done:  E(RHF) =  -92.8815078752     A.U. after   12 cycles
            NFock= 12  Conv=0.24D-08     -V/T= 2.0015
 Calling FoFJK, ICntrl=      2127 FMM=F ISym2X=1 I1Cent= 0 IOpClX= 0 NMat=1 NMatS=1 NMatT=0.
 ***** Axes restored to original set *****
 -------------------------------------------------------------------
 Center     Atomic                   Forces (Hartrees/Bohr)
 Number     Number              X              Y              Z
 -------------------------------------------------------------------
      1        7           0.019234987    0.000000000    0.001058602
      2        6          -0.004783872    0.000000000   -0.024712927
      3        1          -0.014451114    0.000000000    0.023654326
 -------------------------------------------------------------------
 Cartesian Forces:  Max     0.024712927 RMS     0.014035991

 GradGradGradGradGradGradGradGradGradGradGradGradGradGradGradGradGradGrad
 Berny optimization.
 Using GEDIIS/GDIIS optimizer.
 FormGI is forming the generalized inverse of G from B-inverse, IUseBI=4.
 Internal  Forces:  Max     0.027045503 RMS     0.018928742
 Search for a local minimum.
 Step number   4 out of a maximum of   20 on scan point     1 out of    31
 All quantities printed in internal units (Hartrees-Bohrs-Radians)
 Mixed Optimization -- RFO/linear search
 Update second derivatives using D2CorX and points    2    3    4
 DE= -4.56D-03 DEPred=-9.04D-03 R= 5.04D-01
 TightC=F SS=  1.41D+00  RLast= 1.74D-01 DXNew= 8.4853D-01 5.2171D-01
 Trust test= 5.04D-01 RLast= 1.74D-01 DXMaxT set to 5.22D-01
 The second derivative matrix:
                          R1        R2        A1        A2
           R1           1.63539
           R2           0.02349   0.63659
           A1           0.02720   0.00672   0.15888
           A2          -0.04174   0.02688   0.00015   0.16225
 ITU=  1  0  1  0
 Use linear search instead of GDIIS.
     Eigenvalues ---    0.63178   1.619511000.000001000.00000
 RFO step:  Lambda=-5.57808211D-04 EMin= 6.31779084D-01
 Quartic linear search produced a step of -0.26863.
 Iteration  1 RMS(Cart)=  0.02386610 RMS(Int)=  0.00009914
 Iteration  2 RMS(Cart)=  0.00003272 RMS(Int)=  0.00008908
 Iteration  3 RMS(Cart)=  0.00000000 RMS(Int)=  0.00008908
 Iteration  1 RMS(Cart)=  0.00002637 RMS(Int)=  0.00007413
 Iteration  2 RMS(Cart)=  0.00002169 RMS(Int)=  0.00007936
 Iteration  3 RMS(Cart)=  0.00001784 RMS(Int)=  0.00009033
 Iteration  4 RMS(Cart)=  0.00001467 RMS(Int)=  0.00010250
 Iteration  5 RMS(Cart)=  0.00001207 RMS(Int)=  0.00011395
 Iteration  6 RMS(Cart)=  0.00000992 RMS(Int)=  0.00012409
 Iteration  7 RMS(Cart)=  0.00000816 RMS(Int)=  0.00013279
 Iteration  8 RMS(Cart)=  0.00000671 RMS(Int)=  0.00014015
 Iteration  9 RMS(Cart)=  0.00000552 RMS(Int)=  0.00014632
 Iteration 10 RMS(Cart)=  0.00000454 RMS(Int)=  0.00015147
 Iteration 11 RMS(Cart)=  0.00000374 RMS(Int)=  0.00015574
 Iteration 12 RMS(Cart)=  0.00000307 RMS(Int)=  0.00015928
 Iteration 13 RMS(Cart)=  0.00000253 RMS(Int)=  0.00016221
 Iteration 14 RMS(Cart)=  0.00000208 RMS(Int)=  0.00016463
 Iteration 15 RMS(Cart)=  0.00000171 RMS(Int)=  0.00016663
 Iteration 16 RMS(Cart)=  0.00000141 RMS(Int)=  0.00016828
 Iteration 17 RMS(Cart)=  0.00000116 RMS(Int)=  0.00016964
 Iteration 18 RMS(Cart)=  0.00000095 RMS(Int)=  0.00017075
 ClnCor:  largest displacement from symmetrization is 4.44D-16 for atom     3.
 Variable       Old X    -DE/DX   Delta X   Delta X   Delta X     New X
                                 (Linear)    (Quad)   (Total)
    R1        2.19950  -0.02494   0.00366  -0.01834  -0.01465   2.18485
    R2        1.91856  -0.02705  -0.04622  -0.00302  -0.04928   1.86928
    A1        2.76663   0.00799  -0.00575   0.00137  -0.00397   2.76267
    A2        0.17454  -0.00397   0.00000   0.00000   0.00000   0.17454
         Item               Value     Threshold  Converged?
 Maximum Force            0.026158     0.000015     NO 
 RMS     Force            0.021179     0.000010     NO 
 Maximum Displacement     0.037110     0.000060     NO 
 RMS     Displacement     0.023829     0.000040     NO 
 Predicted change in Energy=-6.969042D-04
 GradGradGradGradGradGradGradGradGradGradGradGradGradGradGradGradGradGrad

                          Input orientation:                          
 ---------------------------------------------------------------------
 Center     Atomic      Atomic             Coordinates (Angstroms)
 Number     Number       Type             X           Y           Z
 ---------------------------------------------------------------------
      1          7           0        0.010126    0.000000   -0.165794
      2          6           0        0.025351    0.000000    0.990278
      3          1           0        0.363914    0.000000   -1.089542
 ---------------------------------------------------------------------
                    Distance matrix (angstroms):
                    1          2          3
     1  N    0.000000
     2  C    1.156172   0.000000
     3  H    0.989179   2.107196   0.000000
 Stoichiometry    CHN
 Framework group  CS[SG(CHN)]
 Deg. of freedom     3
 Full point group                 CS      NOp   2
 Largest Abelian subgroup         CS      NOp   2
 Largest concise Abelian subgroup C1      NOp   1
                         Standard orientation:                         
 ---------------------------------------------------------------------
 Center     Atomic      Atomic             Coordinates (Angstroms)
 Number     Number       Type             X           Y           Z
 ---------------------------------------------------------------------
      1          7           0        0.026137    0.429859    0.000000
      2          6           0        0.026137   -0.726313    0.000000
      3          1           0       -0.339784    1.348868    0.000000
 ---------------------------------------------------------------------
 Rotational constants (GHZ):   4823.4302822     47.1854615     46.7283391
 Standard basis: 6-311++G(d,p) (5D, 7F)
 There are    40 symmetry adapted cartesian basis functions of A'  symmetry.
 There are    13 symmetry adapted cartesian basis functions of A"  symmetry.
 There are    38 symmetry adapted basis functions of A'  symmetry.
 There are    13 symmetry adapted basis functions of A"  symmetry.
    51 basis functions,    81 primitive gaussians,    53 cartesian basis functions
     7 alpha electrons        7 beta electrons
       nuclear repulsion energy        24.4748291993 Hartrees.
 NAtoms=    3 NActive=    3 NUniq=    3 SFac= 1.00D+00 NAtFMM=   60 NAOKFM=F Big=F
 Integral buffers will be    131072 words long.
 Raffenetti 1 integral format.
 Two-electron integral symmetry is turned on.
 One-electron integrals computed using PRISM.
 NBasis=    51 RedAO= T EigKep=  2.17D-03  NBF=    38    13
 NBsUse=    51 1.00D-06 EigRej= -1.00D+00 NBFU=    38    13
 Initial guess from the checkpoint file:  "HNC6311ppGss.chk"
 B after Tr=     0.000000    0.000000    0.000000
         Rot=    1.000000    0.000000    0.000000   -0.000154 Ang=  -0.02 deg.
 Initial guess orbital symmetries:
       Occupied  (A') (A') (A') (A') (A') (A") (A')
       Virtual   (A') (A') (A') (A') (A') (A') (A') (A') (A') (A')
                 (A') (A') (A') (A') (A') (A') (A') (A') (A') (A')
                 (A') (A') (A') (A') (A') (A') (A') (A') (A') (A')
                 (A') (A') (A") (A") (A") (A") (A") (A") (A") (A")
                 (A") (A") (A") (A")
 ExpMin= 3.60D-02 ExpMax= 6.29D+03 ExpMxC= 9.49D+02 IAcc=3 IRadAn=         5 AccDes= 0.00D+00
 Harris functional with IExCor=  205 and IRadAn=       5 diagonalized for initial guess.
 HarFok:  IExCor=  205 AccDes= 0.00D+00 IRadAn=         5 IDoV= 1 UseB2=F ITyADJ=14
 ICtDFT=  3500011 ScaDFX=  1.000000  1.000000  1.000000  1.000000
 FoFCou: FMM=F IPFlag=           0 FMFlag=      100000 FMFlg1=           0
         NFxFlg=           0 DoJE=T BraDBF=F KetDBF=T FulRan=T
         wScrn=  0.000000 ICntrl=     500 IOpCl=  0 I1Cent=   200000004 NGrid=           0
         NMat0=    1 NMatS0=      1 NMatT0=    0 NMatD0=    1 NMtDS0=    0 NMtDT0=    0
 Petite list used in FoFCou.
 Keep R1 ints in memory in symmetry-blocked form, NReq=1745474.
 Requested convergence on RMS density matrix=1.00D-08 within 128 cycles.
 Requested convergence on MAX density matrix=1.00D-06.
 Requested convergence on             energy=1.00D-06.
 No special actions if energy rises.
 SCF Done:  E(RHF) =  -92.8824384625     A.U. after   11 cycles
            NFock= 11  Conv=0.33D-08     -V/T= 2.0005
 Calling FoFJK, ICntrl=      2127 FMM=F ISym2X=1 I1Cent= 0 IOpClX= 0 NMat=1 NMatS=1 NMatT=0.
 ***** Axes restored to original set *****
 -------------------------------------------------------------------
 Center     Atomic                   Forces (Hartrees/Bohr)
 Number     Number              X              Y              Z
 -------------------------------------------------------------------
      1        7           0.011509544    0.000000000    0.006951653
      2        6          -0.005191458    0.000000000   -0.006775748
      3        1          -0.006318085    0.000000000   -0.000175905
 -------------------------------------------------------------------
 Cartesian Forces:  Max     0.011509544 RMS     0.005711647

 GradGradGradGradGradGradGradGradGradGradGradGradGradGradGradGradGradGrad
 Berny optimization.
 Using GEDIIS/GDIIS optimizer.
 FormGI is forming the generalized inverse of G from B-inverse, IUseBI=4.
 Internal  Forces:  Max     0.009281970 RMS     0.006234277
 Search for a local minimum.
 Step number   5 out of a maximum of   20 on scan point     1 out of    31
 All quantities printed in internal units (Hartrees-Bohrs-Radians)
 Mixed Optimization -- RFO/linear search
 Update second derivatives using D2CorX and points    2    3    4    5
 DE= -9.31D-04 DEPred=-6.97D-04 R= 1.34D+00
 TightC=F SS=  1.41D+00  RLast= 5.16D-02 DXNew= 8.7741D-01 1.5469D-01
 Trust test= 1.34D+00 RLast= 5.16D-02 DXMaxT set to 5.22D-01
 The second derivative matrix:
                          R1        R2        A1        A2
           R1           1.58821
           R2          -0.11024   0.54273
           A1           0.02268   0.00667   0.15883
           A2          -0.06188   0.01673  -0.00032   0.16270
 ITU=  1  1  0  1  0
 Use linear search instead of GDIIS.
     Eigenvalues ---    0.52927   1.579411000.000001000.00000
 RFO step:  Lambda=-2.70917173D-05 EMin= 5.29271042D-01
 Quartic linear search produced a step of  0.09779.
 Iteration  1 RMS(Cart)=  0.00261230 RMS(Int)=  0.00000212
 Iteration  2 RMS(Cart)=  0.00000013 RMS(Int)=  0.00000211
 Iteration  1 RMS(Cart)=  0.00000017 RMS(Int)=  0.00000047
 ClnCor:  largest displacement from symmetrization is 1.83D-15 for atom     3.
 Variable       Old X    -DE/DX   Delta X   Delta X   Delta X     New X
                                 (Linear)    (Quad)   (Total)
    R1        2.18485  -0.00702  -0.00143  -0.00367  -0.00510   2.17975
    R2        1.86928  -0.00189  -0.00482   0.00258  -0.00223   1.86704
    A1        2.76267   0.00928  -0.00039   0.00063   0.00025   2.76291
    A2        0.17454  -0.00406   0.00000   0.00000   0.00000   0.17453
         Item               Value     Threshold  Converged?
 Maximum Force            0.007840     0.000015     NO 
 RMS     Force            0.004573     0.000010     NO 
 Maximum Displacement     0.004050     0.000060     NO 
 RMS     Displacement     0.002612     0.000040     NO 
 Predicted change in Energy=-2.159013D-05
 GradGradGradGradGradGradGradGradGradGradGradGradGradGradGradGradGradGrad

                          Input orientation:                          
 ---------------------------------------------------------------------
 Center     Atomic      Atomic             Coordinates (Angstroms)
 Number     Number       Type             X           Y           Z
 ---------------------------------------------------------------------
      1          7           0        0.010357    0.000000   -0.165238
      2          6           0        0.025502    0.000000    0.988135
      3          1           0        0.363531    0.000000   -1.087955
 ---------------------------------------------------------------------
                    Distance matrix (angstroms):
                    1          2          3
     1  N    0.000000
     2  C    1.153472   0.000000
     3  H    0.987997   2.103429   0.000000
 Stoichiometry    CHN
 Framework group  CS[SG(CHN)]
 Deg. of freedom     3
 Full point group                 CS      NOp   2
 Largest Abelian subgroup         CS      NOp   2
 Largest concise Abelian subgroup C1      NOp   1
                         Standard orientation:                         
 ---------------------------------------------------------------------
 Center     Atomic      Atomic             Coordinates (Angstroms)
 Number     Number       Type             X           Y           Z
 ---------------------------------------------------------------------
      1          7           0        0.026090    0.428774    0.000000
      2          6           0        0.026090   -0.724698    0.000000
      3          1           0       -0.339168    1.346774    0.000000
 ---------------------------------------------------------------------
 Rotational constants (GHZ):   4842.4236699     47.3921473     46.9328221
 Standard basis: 6-311++G(d,p) (5D, 7F)
 There are    40 symmetry adapted cartesian basis functions of A'  symmetry.
 There are    13 symmetry adapted cartesian basis functions of A"  symmetry.
 There are    38 symmetry adapted basis functions of A'  symmetry.
 There are    13 symmetry adapted basis functions of A"  symmetry.
    51 basis functions,    81 primitive gaussians,    53 cartesian basis functions
     7 alpha electrons        7 beta electrons
       nuclear repulsion energy        24.5270085719 Hartrees.
 NAtoms=    3 NActive=    3 NUniq=    3 SFac= 1.00D+00 NAtFMM=   60 NAOKFM=F Big=F
 Integral buffers will be    131072 words long.
 Raffenetti 1 integral format.
 Two-electron integral symmetry is turned on.
 One-electron integrals computed using PRISM.
 NBasis=    51 RedAO= T EigKep=  2.15D-03  NBF=    38    13
 NBsUse=    51 1.00D-06 EigRej= -1.00D+00 NBFU=    38    13
 Initial guess from the checkpoint file:  "HNC6311ppGss.chk"
 B after Tr=     0.000000    0.000000    0.000000
         Rot=    1.000000    0.000000    0.000000    0.000010 Ang=   0.00 deg.
 Initial guess orbital symmetries:
       Occupied  (A') (A') (A') (A') (A') (A") (A')
       Virtual   (A') (A') (A') (A') (A') (A') (A') (A') (A') (A')
                 (A') (A') (A') (A') (A') (A') (A') (A') (A') (A')
                 (A') (A') (A') (A') (A') (A') (A') (A') (A') (A')
                 (A') (A') (A") (A") (A") (A") (A") (A") (A") (A")
                 (A") (A") (A") (A")
 Keep R1 ints in memory in symmetry-blocked form, NReq=1745474.
 Requested convergence on RMS density matrix=1.00D-08 within 128 cycles.
 Requested convergence on MAX density matrix=1.00D-06.
 Requested convergence on             energy=1.00D-06.
 No special actions if energy rises.
 SCF Done:  E(RHF) =  -92.8824627621     A.U. after    9 cycles
            NFock=  9  Conv=0.68D-08     -V/T= 2.0004
 Calling FoFJK, ICntrl=      2127 FMM=F ISym2X=1 I1Cent= 0 IOpClX= 0 NMat=1 NMatS=1 NMatT=0.
 ***** Axes restored to original set *****
 -------------------------------------------------------------------
 Center     Atomic                   Forces (Hartrees/Bohr)
 Number     Number              X              Y              Z
 -------------------------------------------------------------------
      1        7           0.011264247    0.000000000    0.001507648
      2        6          -0.005232313    0.000000000   -0.000187566
      3        1          -0.006031935    0.000000000   -0.001320082
 -------------------------------------------------------------------
 Cartesian Forces:  Max     0.011264247 RMS     0.004651110

 GradGradGradGradGradGradGradGradGradGradGradGradGradGradGradGradGradGrad
 Berny optimization.
 Using GEDIIS/GDIIS optimizer.
 FormGI is forming the generalized inverse of G from B-inverse, IUseBI=4.
 Internal  Forces:  Max     0.009402176 RMS     0.005194607
 Search for a local minimum.
 Step number   6 out of a maximum of   20 on scan point     1 out of    31
 All quantities printed in internal units (Hartrees-Bohrs-Radians)
 Mixed Optimization -- En-DIIS/RFO-DIIS
 Update second derivatives using D2CorX and points    2    3    4    5    6
 DE= -2.43D-05 DEPred=-2.16D-05 R= 1.13D+00
 TightC=F SS=  1.41D+00  RLast= 5.58D-03 DXNew= 8.7741D-01 1.6727D-02
 Trust test= 1.13D+00 RLast= 5.58D-03 DXMaxT set to 5.22D-01
 The second derivative matrix:
                          R1        R2        A1        A2
           R1           1.29421
           R2          -0.00985   0.55436
           A1           0.02859   0.00591   0.15857
           A2          -0.06363   0.01776  -0.00050   0.16367
 ITU=  1  1  1  0  1
 Use linear search instead of GDIIS.
     Eigenvalues ---    0.55083   1.278701000.000001000.00000
 RFO step:  Lambda=-5.64510139D-07 EMin= 5.50831081D-01
 Quartic linear search produced a step of  0.16894.
 Iteration  1 RMS(Cart)=  0.00037123 RMS(Int)=  0.00000003
 Iteration  2 RMS(Cart)=  0.00000001 RMS(Int)=  0.00000002
 Iteration  1 RMS(Cart)=  0.00000002 RMS(Int)=  0.00000006
 ClnCor:  largest displacement from symmetrization is 4.58D-16 for atom     3.
 Variable       Old X    -DE/DX   Delta X   Delta X   Delta X     New X
                                 (Linear)    (Quad)   (Total)
    R1        2.17975  -0.00045  -0.00086  -0.00018  -0.00104   2.17871
    R2        1.86704  -0.00070  -0.00038   0.00097   0.00059   1.86763
    A1        2.76291   0.00940   0.00004   0.00012   0.00017   2.76308
    A2        0.17453  -0.00434   0.00000   0.00000   0.00000   0.17453
         Item               Value     Threshold  Converged?
 Maximum Force            0.001324     0.000015     NO 
 RMS     Force            0.000792     0.000010     NO 
 Maximum Displacement     0.000561     0.000060     NO 
 RMS     Displacement     0.000371     0.000040     NO 
 Predicted change in Energy=-8.111233D-07
 GradGradGradGradGradGradGradGradGradGradGradGradGradGradGradGradGradGrad

                          Input orientation:                          
 ---------------------------------------------------------------------
 Center     Atomic      Atomic             Coordinates (Angstroms)
 Number     Number       Type             X           Y           Z
 ---------------------------------------------------------------------
      1          7           0        0.010375    0.000000   -0.164941
      2          6           0        0.025485    0.000000    0.987883
      3          1           0        0.363530    0.000000   -1.087999
 ---------------------------------------------------------------------
                    Distance matrix (angstroms):
                    1          2          3
     1  N    0.000000
     2  C    1.152923   0.000000
     3  H    0.988309   2.103226   0.000000
 Stoichiometry    CHN
 Framework group  CS[SG(CHN)]
 Deg. of freedom     3
 Full point group                 CS      NOp   2
 Largest Abelian subgroup         CS      NOp   2
 Largest concise Abelian subgroup C1      NOp   1
                         Standard orientation:                         
 ---------------------------------------------------------------------
 Center     Atomic      Atomic             Coordinates (Angstroms)
 Number     Number       Type             X           Y           Z
 ---------------------------------------------------------------------
      1          7           0        0.026087    0.428513    0.000000
      2          6           0        0.026087   -0.724409    0.000000
      3          1           0       -0.339134    1.346864    0.000000
 ---------------------------------------------------------------------
 Rotational constants (GHZ):   4844.4236813     47.4272905     46.9674752
 Standard basis: 6-311++G(d,p) (5D, 7F)
 There are    40 symmetry adapted cartesian basis functions of A'  symmetry.
 There are    13 symmetry adapted cartesian basis functions of A"  symmetry.
 There are    38 symmetry adapted basis functions of A'  symmetry.
 There are    13 symmetry adapted basis functions of A"  symmetry.
    51 basis functions,    81 primitive gaussians,    53 cartesian basis functions
     7 alpha electrons        7 beta electrons
       nuclear repulsion energy        24.5351553422 Hartrees.
 NAtoms=    3 NActive=    3 NUniq=    3 SFac= 1.00D+00 NAtFMM=   60 NAOKFM=F Big=F
 Integral buffers will be    131072 words long.
 Raffenetti 1 integral format.
 Two-electron integral symmetry is turned on.
 One-electron integrals computed using PRISM.
 NBasis=    51 RedAO= T EigKep=  2.15D-03  NBF=    38    13
 NBsUse=    51 1.00D-06 EigRej= -1.00D+00 NBFU=    38    13
 Initial guess from the checkpoint file:  "HNC6311ppGss.chk"
 B after Tr=     0.000000    0.000000    0.000000
         Rot=    1.000000    0.000000    0.000000    0.000006 Ang=   0.00 deg.
 Initial guess orbital symmetries:
       Occupied  (A') (A') (A') (A') (A') (A") (A')
       Virtual   (A') (A') (A') (A') (A') (A') (A') (A') (A') (A')
                 (A') (A') (A') (A') (A') (A') (A') (A') (A') (A')
                 (A') (A') (A') (A') (A') (A') (A') (A') (A') (A')
                 (A') (A') (A") (A") (A") (A") (A") (A") (A") (A")
                 (A") (A") (A") (A")
 Keep R1 ints in memory in symmetry-blocked form, NReq=1745474.
 Requested convergence on RMS density matrix=1.00D-08 within 128 cycles.
 Requested convergence on MAX density matrix=1.00D-06.
 Requested convergence on             energy=1.00D-06.
 No special actions if energy rises.
 SCF Done:  E(RHF) =  -92.8824635645     A.U. after    8 cycles
            NFock=  8  Conv=0.36D-08     -V/T= 2.0003
 Calling FoFJK, ICntrl=      2127 FMM=F ISym2X=1 I1Cent= 0 IOpClX= 0 NMat=1 NMatS=1 NMatT=0.
 ***** Axes restored to original set *****
 -------------------------------------------------------------------
 Center     Atomic                   Forces (Hartrees/Bohr)
 Number     Number              X              Y              Z
 -------------------------------------------------------------------
      1        7           0.011406187    0.000000000   -0.000173905
      2        6          -0.005233779    0.000000000    0.001176061
      3        1          -0.006172409    0.000000000   -0.001002156
 -------------------------------------------------------------------
 Cartesian Forces:  Max     0.011406187 RMS     0.004690532

 GradGradGradGradGradGradGradGradGradGradGradGradGradGradGradGradGradGrad
 Berny optimization.
 Using GEDIIS/GDIIS optimizer.
 FormGI is forming the generalized inverse of G from B-inverse, IUseBI=4.
 Internal  Forces:  Max     0.009401815 RMS     0.005240533
 Search for a local minimum.
 Step number   7 out of a maximum of   20 on scan point     1 out of    31
 All quantities printed in internal units (Hartrees-Bohrs-Radians)
 Mixed Optimization -- En-DIIS/RFO-DIIS
 Swapping is turned off.
 Update second derivatives using D2CorX and points    3    4    5    6    7
 DE= -8.02D-07 DEPred=-8.11D-07 R= 9.89D-01
 Trust test= 9.89D-01 RLast= 1.21D-03 DXMaxT set to 5.22D-01
 The second derivative matrix:
                          R1        R2        A1        A2
           R1           1.30099
           R2          -0.02312   0.53899
           A1           0.02736   0.00431   0.15843
           A2          -0.06413   0.02068  -0.00036   0.16388
 ITU=  0  1  1  1  0
     Eigenvalues ---    0.53497   1.285731000.000001000.00000
 En-DIIS/RFO-DIIS IScMMF=        0 using points:     7    6
 RFO step:  Lambda=-3.47425258D-06.
 DidBck=F Rises=F RFO-DIIS coefs:    0.98381    0.01619
 Iteration  1 RMS(Cart)=  0.00000700 RMS(Int)=  0.00000200
 Iteration  2 RMS(Cart)=  0.00000000 RMS(Int)=  0.00000200
 Iteration  1 RMS(Cart)=  0.00000056 RMS(Int)=  0.00000159
 ClnCor:  largest displacement from symmetrization is 2.29D-15 for atom     3.
 Variable       Old X    -DE/DX   Delta X   Delta X   Delta X     New X
                                 (Linear)    (Quad)   (Total)
    R1        2.17871   0.00091   0.00002   0.00000   0.00002   2.17873
    R2        1.86763  -0.00104  -0.00001   0.00000  -0.00001   1.86763
    A1        2.76308   0.00940   0.00000   0.00001   0.00000   2.76308
    A2        0.17453  -0.00442   0.00000   0.00000   0.00000   0.17453
         Item               Value     Threshold  Converged?
 Maximum Force            0.000021     0.000015     NO 
 RMS     Force            0.000013     0.000010     NO 
 Maximum Displacement     0.000010     0.000060     YES
 RMS     Displacement     0.000007     0.000040     YES
 Predicted change in Energy=-7.465209D-08
 GradGradGradGradGradGradGradGradGradGradGradGradGradGradGradGradGradGrad

                          Input orientation:                          
 ---------------------------------------------------------------------
 Center     Atomic      Atomic             Coordinates (Angstroms)
 Number     Number       Type             X           Y           Z
 ---------------------------------------------------------------------
      1          7           0        0.010377    0.000000   -0.164945
      2          6           0        0.025484    0.000000    0.987888
      3          1           0        0.363530    0.000000   -1.088001
 ---------------------------------------------------------------------
                    Distance matrix (angstroms):
                    1          2          3
     1  N    0.000000
     2  C    1.152932   0.000000
     3  H    0.988306   2.103233   0.000000
 Stoichiometry    CHN
 Framework group  CS[SG(CHN)]
 Deg. of freedom     3
 Full point group                 CS      NOp   2
 Largest Abelian subgroup         CS      NOp   2
 Largest concise Abelian subgroup C1      NOp   1
                         Standard orientation:                         
 ---------------------------------------------------------------------
 Center     Atomic      Atomic             Coordinates (Angstroms)
 Number     Number       Type             X           Y           Z
 ---------------------------------------------------------------------
      1          7           0        0.026087    0.428517    0.000000
      2          6           0        0.026087   -0.724414    0.000000
      3          1           0       -0.339130    1.346867    0.000000
 ---------------------------------------------------------------------
 Rotational constants (GHZ):   4844.5451006     47.4266539     46.9668623
 Standard basis: 6-311++G(d,p) (5D, 7F)
 There are    40 symmetry adapted cartesian basis functions of A'  symmetry.
 There are    13 symmetry adapted cartesian basis functions of A"  symmetry.
 There are    38 symmetry adapted basis functions of A'  symmetry.
 There are    13 symmetry adapted basis functions of A"  symmetry.
    51 basis functions,    81 primitive gaussians,    53 cartesian basis functions
     7 alpha electrons        7 beta electrons
       nuclear repulsion energy        24.5350095225 Hartrees.
 NAtoms=    3 NActive=    3 NUniq=    3 SFac= 1.00D+00 NAtFMM=   60 NAOKFM=F Big=F
 Integral buffers will be    131072 words long.
 Raffenetti 1 integral format.
 Two-electron integral symmetry is turned on.
 One-electron integrals computed using PRISM.
 NBasis=    51 RedAO= T EigKep=  2.15D-03  NBF=    38    13
 NBsUse=    51 1.00D-06 EigRej= -1.00D+00 NBFU=    38    13
 Initial guess from the checkpoint file:  "HNC6311ppGss.chk"
 B after Tr=     0.000000    0.000000    0.000000
         Rot=    1.000000    0.000000    0.000000    0.000001 Ang=   0.00 deg.
 Initial guess orbital symmetries:
       Occupied  (A') (A') (A') (A') (A') (A") (A')
       Virtual   (A') (A') (A') (A') (A') (A') (A') (A') (A') (A')
                 (A') (A') (A') (A') (A') (A') (A') (A') (A') (A')
                 (A') (A') (A') (A') (A') (A') (A') (A') (A') (A')
                 (A') (A') (A") (A") (A") (A") (A") (A") (A") (A")
                 (A") (A") (A") (A")
 Keep R1 ints in memory in symmetry-blocked form, NReq=1745474.
 Requested convergence on RMS density matrix=1.00D-08 within 128 cycles.
 Requested convergence on MAX density matrix=1.00D-06.
 Requested convergence on             energy=1.00D-06.
 No special actions if energy rises.
 SCF Done:  E(RHF) =  -92.8824636391     A.U. after    4 cycles
            NFock=  4  Conv=0.60D-08     -V/T= 2.0003
 Calling FoFJK, ICntrl=      2127 FMM=F ISym2X=1 I1Cent= 0 IOpClX= 0 NMat=1 NMatS=1 NMatT=0.
 ***** Axes restored to original set *****
 -------------------------------------------------------------------
 Center     Atomic                   Forces (Hartrees/Bohr)
 Number     Number              X              Y              Z
 -------------------------------------------------------------------
      1        7           0.011404433    0.000000000   -0.000148055
      2        6          -0.005233624    0.000000000    0.001153163
      3        1          -0.006170809    0.000000000   -0.001005108
 -------------------------------------------------------------------
 Cartesian Forces:  Max     0.011404433 RMS     0.004689145

 GradGradGradGradGradGradGradGradGradGradGradGradGradGradGradGradGradGrad
 Berny optimization.
 Using GEDIIS/GDIIS optimizer.
 FormGI is forming the generalized inverse of G from B-inverse, IUseBI=4.
 Internal  Forces:  Max     0.009401556 RMS     0.005238995
 Search for a local minimum.
 Step number   8 out of a maximum of   20 on scan point     1 out of    31
 All quantities printed in internal units (Hartrees-Bohrs-Radians)
 Mixed Optimization -- En-DIIS/RFO-DIIS
 Swapping is turned off.
 Update second derivatives using D2CorX and points    4    5    6    8
 DE= -7.47D-08 DEPred=-7.47D-08 R= 1.00D+00
 Trust test= 1.00D+00 RLast= 1.88D-05 DXMaxT set to 5.22D-01
 The second derivative matrix:
                          R1        R2        A1        A2
           R1           1.30048
           R2          -0.02441   0.53674
           A1           0.02884   0.00539   0.15855
           A2          -0.06553   0.01895  -0.00048   0.16389
 ITU=  0  0  1  1  1
     Eigenvalues ---    0.53292   1.284981000.000001000.00000
 En-DIIS/RFO-DIIS IScMMF=        0 using points:     8    7    6
 RFO step:  Lambda=-3.47181091D-06.
 DidBck=F Rises=F RFO-DIIS coefs:    1.13704   -0.13522   -0.00182
 Iteration  1 RMS(Cart)=  0.00000367 RMS(Int)=  0.00000200
 Iteration  2 RMS(Cart)=  0.00000000 RMS(Int)=  0.00000200
 Iteration  1 RMS(Cart)=  0.00000112 RMS(Int)=  0.00000314
 Iteration  2 RMS(Cart)=  0.00000092 RMS(Int)=  0.00000336
 ClnCor:  largest displacement from symmetrization is 4.58D-16 for atom     3.
 Variable       Old X    -DE/DX   Delta X   Delta X   Delta X     New X
                                 (Linear)    (Quad)   (Total)
    R1        2.17873   0.00089   0.00000   0.00000   0.00000   2.17872
    R2        1.86763  -0.00104   0.00000   0.00000   0.00000   1.86763
    A1        2.76308   0.00940   0.00000   0.00001   0.00000   2.76308
    A2        0.17453  -0.00442   0.00000   0.00000   0.00000   0.17453
         Item               Value     Threshold  Converged?
 Maximum Force            0.000001     0.000015     YES
 RMS     Force            0.000001     0.000010     YES
 Maximum Displacement     0.000003     0.000060     YES
 RMS     Displacement     0.000002     0.000040     YES
 Predicted change in Energy=-4.473035D-08
 Optimization completed.
    -- Stationary point found.
                           ----------------------------
                           !   Optimized Parameters   !
                           ! (Angstroms and Degrees)  !
 --------------------------                            --------------------------
 ! Name  Definition              Value          Derivative Info.                !
 --------------------------------------------------------------------------------
 ! R1    R(1,2)                  1.1529         -DE/DX =    0.0009              !
 ! R2    R(1,3)                  0.9883         -DE/DX =   -0.001               !
 ! A1    A(2,1,3)              158.3129         -DE/DX =    0.0094              !
 ! A2    A(1,2,3)                9.9998         -DE/DX =   -0.0044              !
 --------------------------------------------------------------------------------
 Iteration  1 RMS(Cart)=  0.01489871 RMS(Int)=  0.04192752
 Iteration  2 RMS(Cart)=  0.00024255 RMS(Int)=  0.04192645
 Iteration  3 RMS(Cart)=  0.00000207 RMS(Int)=  0.04192645
 Iteration  4 RMS(Cart)=  0.00000002 RMS(Int)=  0.04192645
 Iteration  1 RMS(Cart)=  0.01233391 RMS(Int)=  0.03441890
 Iteration  2 RMS(Cart)=  0.01019452 RMS(Int)=  0.03685043
 Iteration  3 RMS(Cart)=  0.00840905 RMS(Int)=  0.04196964
 Iteration  4 RMS(Cart)=  0.00692358 RMS(Int)=  0.04763011
 Iteration  5 RMS(Cart)=  0.00569132 RMS(Int)=  0.05294160
 Iteration  6 RMS(Cart)=  0.00467187 RMS(Int)=  0.05761777
 Iteration  7 RMS(Cart)=  0.00383047 RMS(Int)=  0.06161302
 Iteration  8 RMS(Cart)=  0.00313746 RMS(Int)=  0.06497213
 Iteration  9 RMS(Cart)=  0.00256766 RMS(Int)=  0.06776980
 Iteration 10 RMS(Cart)=  0.00209987 RMS(Int)=  0.07008597
 Iteration 11 RMS(Cart)=  0.00171630 RMS(Int)=  0.07199585
 Iteration 12 RMS(Cart)=  0.00140212 RMS(Int)=  0.07356632
 Iteration 13 RMS(Cart)=  0.00114499 RMS(Int)=  0.07485510
 Iteration 14 RMS(Cart)=  0.00093471 RMS(Int)=  0.07591117
 Iteration 15 RMS(Cart)=  0.00076285 RMS(Int)=  0.07677556
 Iteration 16 RMS(Cart)=  0.00062244 RMS(Int)=  0.07748247
 Iteration 17 RMS(Cart)=  0.00050779 RMS(Int)=  0.07806020
 Iteration 18 RMS(Cart)=  0.00041419 RMS(Int)=  0.07853211
 Iteration 19 RMS(Cart)=  0.00033781 RMS(Int)=  0.07891743
 Iteration 20 RMS(Cart)=  0.00027548 RMS(Int)=  0.07923195
 Iteration 21 RMS(Cart)=  0.00022464 RMS(Int)=  0.07948860
 Iteration 22 RMS(Cart)=  0.00018317 RMS(Int)=  0.07969799
 Iteration 23 RMS(Cart)=  0.00014934 RMS(Int)=  0.07986880
 Iteration 24 RMS(Cart)=  0.00012176 RMS(Int)=  0.08000811
 Iteration 25 RMS(Cart)=  0.00009927 RMS(Int)=  0.08012172
 Iteration 26 RMS(Cart)=  0.00008093 RMS(Int)=  0.08021437
 Iteration 27 RMS(Cart)=  0.00006597 RMS(Int)=  0.08028991
 Iteration 28 RMS(Cart)=  0.00005378 RMS(Int)=  0.08035150
 Iteration 29 RMS(Cart)=  0.00004384 RMS(Int)=  0.08040172
 Iteration 30 RMS(Cart)=  0.00003574 RMS(Int)=  0.08044266
 Iteration 31 RMS(Cart)=  0.00002914 RMS(Int)=  0.08047604
 Iteration 32 RMS(Cart)=  0.00002375 RMS(Int)=  0.08050325
 Iteration 33 RMS(Cart)=  0.00001936 RMS(Int)=  0.08052543
 Iteration 34 RMS(Cart)=  0.00001578 RMS(Int)=  0.08054351
 Iteration 35 RMS(Cart)=  0.00001286 RMS(Int)=  0.08055826
 Iteration 36 RMS(Cart)=  0.00001049 RMS(Int)=  0.08057027
 Iteration 37 RMS(Cart)=  0.00000855 RMS(Int)=  0.08058007
 Iteration 38 RMS(Cart)=  0.00000697 RMS(Int)=  0.08058805
 Iteration 39 RMS(Cart)=  0.00000568 RMS(Int)=  0.08059456
 Iteration 40 RMS(Cart)=  0.00000463 RMS(Int)=  0.08059987
 Iteration 41 RMS(Cart)=  0.00000377 RMS(Int)=  0.08060419
 Iteration 42 RMS(Cart)=  0.00000308 RMS(Int)=  0.08060772
 Iteration 43 RMS(Cart)=  0.00000251 RMS(Int)=  0.08061059
 Iteration 44 RMS(Cart)=  0.00000204 RMS(Int)=  0.08061294
 Iteration 45 RMS(Cart)=  0.00000167 RMS(Int)=  0.08061485
 Iteration 46 RMS(Cart)=  0.00000136 RMS(Int)=  0.08061640
[...]
 -------------------------------------------------------------------
 Center     Atomic                   Forces (Hartrees/Bohr)
 Number     Number              X              Y              Z
 -------------------------------------------------------------------
      1        7           0.001501791    0.000000000    0.007493797
      2        6          -0.004470989    0.000000000   -0.015072146
      3        1           0.002969198    0.000000000    0.007578350
 -------------------------------------------------------------------
 Cartesian Forces:  Max     0.015072146 RMS     0.006427538

 GradGradGradGradGradGradGradGradGradGradGradGradGradGradGradGradGradGrad
 Berny optimization.
 Using GEDIIS/GDIIS optimizer.
 FormGI is forming the generalized inverse of G from B-inverse, IUseBI=4.
 Internal  Forces:  Max     0.013173808 RMS     0.007331673
 Search for a local minimum.
 Step number   2 out of a maximum of   20 on scan point    31 out of    31
 All quantities printed in internal units (Hartrees-Bohrs-Radians)
 Mixed Optimization -- En-DIIS/RFO-DIIS
 Update second derivatives using D2CorX and points    1    2
 DE= -7.29D-05 DEPred=-7.52D-05 R= 9.68D-01
 TightC=F SS=  1.41D+00  RLast= 1.93D-02 DXNew= 2.1109D-01 5.8018D-02
 Trust test= 9.68D-01 RLast= 1.93D-02 DXMaxT set to 1.26D-01
 The second derivative matrix:
                          R1        R2        A1        A2
           R1           1.97229
           R2          -0.45635   0.45093
           A1          -0.20039   0.05680   0.34256
           A2           0.02469  -0.05150  -0.08195   0.18415
 ITU=  1  0
 Use linear search instead of GDIIS.
     Eigenvalues ---    0.32457   2.115401000.000001000.00000
 RFO step:  Lambda= 0.00000000D+00 EMin= 3.24570600D-01
 Quartic linear search produced a step of -0.02224.
 Iteration  1 RMS(Cart)=  0.00016535 RMS(Int)=  0.00000001
 Iteration  2 RMS(Cart)=  0.00000000 RMS(Int)=  0.00000001
 Iteration  1 RMS(Cart)=  0.00000006 RMS(Int)=  0.00000004
 ClnCor:  largest displacement from symmetrization is 5.20D-15 for atom     3.
 Variable       Old X    -DE/DX   Delta X   Delta X   Delta X     New X
                                 (Linear)    (Quad)   (Total)
    R1        2.13092  -0.00007  -0.00002   0.00005   0.00002   2.13094
    R2        4.11332  -0.00003  -0.00043   0.00004  -0.00039   4.11293
    A1        0.09298  -0.00644  -0.00001   0.00000  -0.00001   0.09296
    A2        2.94961   0.01317   0.00000   0.00000   0.00000   2.94961
         Item               Value     Threshold  Converged?
 Maximum Force            0.000228     0.000015     NO 
 RMS     Force            0.000169     0.000010     NO 
 Maximum Displacement     0.000253     0.000060     NO 
 RMS     Displacement     0.000165     0.000040     NO 
 Predicted change in Energy=-4.001351D-08
 GradGradGradGradGradGradGradGradGradGradGradGradGradGradGradGradGradGrad

                          Input orientation:                          
 ---------------------------------------------------------------------
 Center     Atomic      Atomic             Coordinates (Angstroms)
 Number     Number       Type             X           Y           Z
 ---------------------------------------------------------------------
      1          7           0       -0.928734    0.000000    0.199933
      2          6           0        0.175563    0.000000   -0.028353
      3          1           0        1.152562    0.000000   -0.436638
 ---------------------------------------------------------------------
                    Distance matrix (angstroms):
                    1          2          3
     1  N    0.000000
     2  C    1.127647   0.000000
     3  H    2.176469   1.058879   0.000000
 Stoichiometry    CHN
 Framework group  CS[SG(CHN)]
 Deg. of freedom     3
 Full point group                 CS      NOp   2
 Largest Abelian subgroup         CS      NOp   2
 Largest concise Abelian subgroup C1      NOp   1
                         Standard orientation:                         
 ---------------------------------------------------------------------
 Center     Atomic      Atomic             Coordinates (Angstroms)
 Number     Number       Type             X           Y           Z
 ---------------------------------------------------------------------
      1          7           0        0.014432    0.638068    0.000000
      2          6           0        0.014432   -0.489579    0.000000
      3          1           0       -0.187612   -1.529003    0.000000
 ---------------------------------------------------------------------
 Rotational constants (GHZ):  16860.3708347     46.5457516     46.4176083
 Standard basis: 6-311++G(d,p) (5D, 7F)
 There are    40 symmetry adapted cartesian basis functions of A'  symmetry.
 There are    13 symmetry adapted cartesian basis functions of A"  symmetry.
 There are    38 symmetry adapted basis functions of A'  symmetry.
 There are    13 symmetry adapted basis functions of A"  symmetry.
    51 basis functions,    81 primitive gaussians,    53 cartesian basis functions
     7 alpha electrons        7 beta electrons
       nuclear repulsion energy        24.4100425708 Hartrees.
 NAtoms=    3 NActive=    3 NUniq=    3 SFac= 1.00D+00 NAtFMM=   60 NAOKFM=F Big=F
 Integral buffers will be    131072 words long.
 Raffenetti 1 integral format.
 Two-electron integral symmetry is turned on.
 One-electron integrals computed using PRISM.
 NBasis=    51 RedAO= T EigKep=  1.91D-03  NBF=    38    13
 NBsUse=    51 1.00D-06 EigRej= -1.00D+00 NBFU=    38    13
 Initial guess from the checkpoint file:  "HNC6311ppGss.chk"
 B after Tr=     0.000000    0.000000    0.000000
         Rot=    1.000000    0.000000    0.000000   -0.000002 Ang=   0.00 deg.
 Initial guess orbital symmetries:
       Occupied  (A') (A') (A') (A') (A') (A") (A')
       Virtual   (A') (A') (A') (A') (A') (A') (A') (A') (A') (A')
                 (A') (A') (A') (A') (A') (A') (A') (A') (A') (A')
                 (A') (A') (A') (A') (A') (A') (A') (A') (A') (A')
                 (A') (A') (A") (A") (A") (A") (A") (A") (A") (A")
                 (A") (A") (A") (A")
 Keep R1 ints in memory in symmetry-blocked form, NReq=1745459.
 Requested convergence on RMS density matrix=1.00D-08 within 128 cycles.
 Requested convergence on MAX density matrix=1.00D-06.
 Requested convergence on             energy=1.00D-06.
 No special actions if energy rises.
 SCF Done:  E(RHF) =  -92.8999022603     A.U. after    6 cycles
            NFock=  6  Conv=0.45D-08     -V/T= 2.0002
 Calling FoFJK, ICntrl=      2127 FMM=F ISym2X=1 I1Cent= 0 IOpClX= 0 NMat=1 NMatS=1 NMatT=0.
 ***** Axes restored to original set *****
 -------------------------------------------------------------------
 Center     Atomic                   Forces (Hartrees/Bohr)
 Number     Number              X              Y              Z
 -------------------------------------------------------------------
      1        7           0.001543240    0.000000000    0.007485908
      2        6          -0.004682161    0.000000000   -0.014996070
      3        1           0.003138921    0.000000000    0.007510161
 -------------------------------------------------------------------
 Cartesian Forces:  Max     0.014996070 RMS     0.006424610

 GradGradGradGradGradGradGradGradGradGradGradGradGradGradGradGradGradGrad
 Berny optimization.
 Using GEDIIS/GDIIS optimizer.
 FormGI is forming the generalized inverse of G from B-inverse, IUseBI=4.
 Internal  Forces:  Max     0.013152221 RMS     0.007318041
 Search for a local minimum.
 Step number   3 out of a maximum of   20 on scan point    31 out of    31
 All quantities printed in internal units (Hartrees-Bohrs-Radians)
 Mixed Optimization -- En-DIIS/RFO-DIIS
 Swapping is turned off.
 Update second derivatives using D2CorX and points    1    2    3
 DE= -4.10D-08 DEPred=-4.00D-08 R= 1.02D+00
 Trust test= 1.02D+00 RLast= 3.92D-04 DXMaxT set to 1.26D-01
 The second derivative matrix:
                          R1        R2        A1        A2
           R1           1.96963
           R2          -0.44841   0.43972
           A1          -0.18831   0.04621   0.33956
           A2           0.02521  -0.05138  -0.08090   0.18427
 ITU=  0  1  0
     Eigenvalues ---    0.31787   2.106611000.000001000.00000
 En-DIIS/RFO-DIIS IScMMF=        0 using points:     3    2
 RFO step:  Lambda=-6.77408219D-06.
 DidBck=F Rises=F RFO-DIIS coefs:    1.00368   -0.00368
 Iteration  1 RMS(Cart)=  0.00000173 RMS(Int)=  0.00000289
 Iteration  2 RMS(Cart)=  0.00000000 RMS(Int)=  0.00000289
 Iteration  1 RMS(Cart)=  0.00000086 RMS(Int)=  0.00000055
 ClnCor:  largest displacement from symmetrization is 1.86D-15 for atom     3.
 Variable       Old X    -DE/DX   Delta X   Delta X   Delta X     New X
                                 (Linear)    (Quad)   (Total)
    R1        2.13094  -0.00030   0.00000   0.00000   0.00000   2.13095
    R2        4.11293   0.00016   0.00000   0.00001   0.00000   4.11293
    A1        0.09296  -0.00641   0.00000  -0.00001   0.00000   0.09296
    A2        2.94961   0.01315   0.00000   0.00000   0.00000   2.94961
         Item               Value     Threshold  Converged?
 Maximum Force            0.000004     0.000015     YES
 RMS     Force            0.000002     0.000010     YES
 Maximum Displacement     0.000002     0.000060     YES
 RMS     Displacement     0.000001     0.000040     YES
 Predicted change in Energy=-8.378069D-09
 Optimization completed.
    -- Stationary point found.
                           ----------------------------
                           !   Optimized Parameters   !
                           ! (Angstroms and Degrees)  !
 --------------------------                            --------------------------
 ! Name  Definition              Value          Derivative Info.                !
 --------------------------------------------------------------------------------
 ! R1    R(1,2)                  1.1276         -DE/DX =   -0.0003              !
 ! R2    R(1,3)                  2.1765         -DE/DX =    0.0002              !
 ! A1    A(2,1,3)                5.3265         -DE/DX =   -0.0064              !
 ! A2    A(1,2,3)              169.0            -DE/DX =    0.0132              !
 --------------------------------------------------------------------------------
 GradGradGradGradGradGradGradGradGradGradGradGradGradGradGradGradGradGrad

 Summary of Optimized Potential Surface Scan
                           1         2         3         4         5
     Eigenvalues --   -92.88246 -92.87964 -92.87586 -92.87129 -92.86613
           R1           1.15293   1.15696   1.16209   1.16768   1.17280
           R2           0.98831   0.99264   0.99917   1.00843   1.02125
           A1         158.31288 146.78871 135.24510 123.71722 112.29499
           A2           9.99983  15.29977  20.59978  25.89976  31.19981
                           6         7         8         9        10
     Eigenvalues --   -92.86054 -92.85468 -92.84865 -92.84254 -92.83646
           R1           1.17633   1.17738   1.17598   1.17312   1.17009
           R2           1.03899   1.06337   1.09639   1.14094   1.19762
           A1         101.16637  90.63889  81.11291  73.04863  66.62759
           A2          36.49983  41.80014  47.09986  52.39986  57.69988
                          11        12        13        14        15
     Eigenvalues --   -92.83086 -92.82639 -92.82359 -92.82270 -92.82367
           R1           1.16776   1.16621   1.16507   1.16390   1.16237
           R2           1.26298   1.33265   1.40347   1.47353   1.54170
           A1          61.53020  57.30104  53.61596  50.28626  47.20154
           A2          62.99992  68.29990  73.59993  78.90003  84.20007
                          16        17        18        19        20
     Eigenvalues --   -92.82632 -92.83035 -92.83545 -92.84131 -92.84762
           R1           1.16035   1.15787   1.15504   1.15201   1.14891
           R2           1.60736   1.67015   1.72986   1.78632   1.83942
           A1          44.29081  41.50326  38.80098  36.15580  33.54755
           A2          89.50004  94.80004 100.10004 105.40003 110.70003
                          21        22        23        24        25
     Eigenvalues --   -92.85415 -92.86067 -92.86702 -92.87305 -92.87866
           R1           1.14586   1.14294   1.14022   1.13773   1.13550
           R2           1.88905   1.93513   1.97755   2.01626   2.05114
           A1          30.96227  28.39062  25.82630  23.26549  20.70554
           A2         116.00002 121.30001 126.60001 131.90000 137.20001
                          26        27        28        29        30
     Eigenvalues --   -92.88376 -92.88830 -92.89221 -92.89547 -92.89804
           R1           1.13353   1.13184   1.13041   1.12923   1.12831
           R2           2.08214   2.10916   2.13215   2.15104   2.16582
           A1          18.14529  15.58390  13.02119  10.45722   7.89225
           A2         142.50000 147.80000 153.10002 158.40001 163.70000
                          31
     Eigenvalues --   -92.89990
           R1           1.12765
           R2           2.17647
           A1           5.32649
           A2         169.00000
                          Input orientation:                          
 ---------------------------------------------------------------------
 Center     Atomic      Atomic             Coordinates (Angstroms)
 Number     Number       Type             X           Y           Z
 ---------------------------------------------------------------------
      1          7           0       -0.928734    0.000000    0.199933
      2          6           0        0.175563    0.000000   -0.028353
      3          1           0        1.152562    0.000000   -0.436638
 ---------------------------------------------------------------------
                    Distance matrix (angstroms):
                    1          2          3
     1  N    0.000000
     2  C    1.127647   0.000000
     3  H    2.176469   1.058879   0.000000
 Stoichiometry    CHN
 Framework group  CS[SG(CHN)]
 Deg. of freedom     3
 Full point group                 CS      NOp   2
 Largest Abelian subgroup         CS      NOp   2
 Largest concise Abelian subgroup C1      NOp   1
                         Standard orientation:                         
 ---------------------------------------------------------------------
 Center     Atomic      Atomic             Coordinates (Angstroms)
 Number     Number       Type             X           Y           Z
 ---------------------------------------------------------------------
      1          7           0        0.014432    0.638068    0.000000
      2          6           0        0.014432   -0.489579    0.000000
      3          1           0       -0.187612   -1.529003    0.000000
 ---------------------------------------------------------------------
 Rotational constants (GHZ):  16860.3708347     46.5457516     46.4176083

 **********************************************************************

            Population analysis using the SCF density.

 **********************************************************************

 Orbital symmetries:
       Occupied  (A') (A') (A') (A') (A') (A") (A')
       Virtual   (A') (A') (A") (A') (A') (A') (A") (A') (A') (A")
                 (A') (A') (A') (A') (A") (A') (A') (A') (A") (A')
                 (A') (A") (A') (A') (A") (A') (A') (A") (A') (A")
                 (A') (A') (A') (A") (A') (A") (A') (A') (A') (A")
                 (A') (A') (A') (A')
 The electronic state is 1-A'.
 Alpha  occ. eigenvalues --  -15.59410 -11.28475  -1.25413  -0.81130  -0.58257
 Alpha  occ. eigenvalues --   -0.50652  -0.50607
 Alpha virt. eigenvalues --    0.03627   0.08659   0.09103   0.09124   0.16265
 Alpha virt. eigenvalues --    0.17957   0.18023   0.21235   0.27831   0.28026
 Alpha virt. eigenvalues --    0.29200   0.34025   0.53714   0.70383   0.70395
 Alpha virt. eigenvalues --    0.74325   0.92804   0.96161   1.06361   1.06741
 Alpha virt. eigenvalues --    1.30890   1.40046   1.40510   1.48763   1.50568
 Alpha virt. eigenvalues --    1.53467   2.05706   2.09552   2.30847   2.40191
 Alpha virt. eigenvalues --    2.40337   2.80303   2.98349   3.00127   3.18014
 Alpha virt. eigenvalues --    3.24761   3.30012   3.41231   3.83274   4.41187
 Alpha virt. eigenvalues --    4.43788   5.07246  25.52058  37.23264
          Condensed to atoms (all electrons):
               1          2          3
     1  N    6.527985   0.722481  -0.010520
     2  C    0.722481   4.854953   0.391952
     3  H   -0.010520   0.391952   0.409235
 Mulliken charges:
               1
     1  N   -0.239946
     2  C    0.030613
     3  H    0.209333
 Sum of Mulliken charges =   0.00000
 Mulliken charges with hydrogens summed into heavy atoms:
               1
     1  N   -0.239946
     2  C    0.239946
 Electronic spatial extent (au):  <R**2>=             48.7050
 Charge=              0.0000 electrons
 Dipole moment (field-independent basis, Debye):
    X=             -0.2679    Y=             -3.2377    Z=              0.0000  Tot=              3.2487
 Quadrupole moment (field-independent basis, Debye-Ang):
   XX=            -11.7956   YY=             -9.8554   ZZ=            -11.8514
   XY=              0.3387   XZ=              0.0000   YZ=              0.0000
 Traceless Quadrupole moment (field-independent basis, Debye-Ang):
   XX=             -0.6281   YY=              1.3120   ZZ=             -0.6839
   XY=              0.3387   XZ=              0.0000   YZ=              0.0000
 Octapole moment (field-independent basis, Debye-Ang**2):
  XXX=             -0.3276  YYY=             -7.7106  ZZZ=              0.0000  XYY=             -0.8456
  XXY=             -0.4878  XXZ=              0.0000  XZZ=             -0.1035  YZZ=             -0.3988
  YYZ=              0.0000  XYZ=              0.0000
 Hexadecapole moment (field-independent basis, Debye-Ang**3):
 XXXX=            -12.2227 YYYY=            -34.9196 ZZZZ=            -12.0739 XXXY=             -0.5029
 XXXZ=              0.0000 YYYX=              0.7070 YYYZ=              0.0000 ZZZX=              0.0000
 ZZZY=              0.0000 XXYY=             -8.8074 XXZZ=             -4.0500 YYZZ=             -8.9737
 XXYZ=              0.0000 YYXZ=              0.0000 ZZXY=             -0.1768
 N-N= 2.441004257081D+01 E-N=-2.664180627711D+02  KE= 9.287703508470D+01
 Symmetry A'   KE= 9.015499139627D+01
 Symmetry A"   KE= 2.722043688426D+00
 B after Tr=     0.430493    0.000000    1.092740
         Rot=    0.862696    0.000000    0.505723    0.000000 Ang=  60.76 deg.
 Final structure in terms of initial Z-matrix:
 N
 C,1,B1
 H,2,B2,1,A1
      Variables:
 B1=1.12764676
 B2=1.05887879
 A1=168.99999811
 1\1\GINC-TC-NODE166\Scan\RHF\6-311++G(d,p)\C1H1N1\MAXB2\26-Sep-2016\0\
 \# opt=(modredundant,tight) RHF/6-311++g** gfp\\HNC-HCN\\0,1\N,-0.8212
 134876,0.,-0.096737047\C,0.2830839793,0.,-0.3250226792\H,1.2600830546,
 0.,-0.7333082296\\Version=ES64L-G09RevD.01\State=1-A'\HF=-92.8824636,-
 92.8796376,-92.8758608,-92.8712945,-92.8661262,-92.860543,-92.8546755,
 -92.848651,-92.8425417,-92.8364599,-92.8308566,-92.8263931,-92.8235937
 ,-92.8226951,-92.8236714,-92.8263214,-92.8303549,-92.8354537,-92.84130
 56,-92.8476221,-92.8541489,-92.8606714,-92.8670162,-92.8730466,-92.878
 6561,-92.8837612,-92.8882967,-92.8922117,-92.8954681,-92.898038,-92.89
 99023\RMSD=6.006e-09,9.986e-09,8.364e-09,8.547e-09,5.682e-09,8.233e-09
 ,4.789e-09,8.609e-09,2.815e-09,8.209e-09,9.052e-09,7.133e-09,8.319e-09
 ,6.751e-09,7.851e-09,8.073e-09,2.678e-09,2.514e-09,2.310e-09,6.223e-09
 ,8.989e-09,8.517e-09,6.461e-09,7.802e-09,4.765e-09,2.783e-09,6.487e-09
 ,8.511e-09,6.558e-09,3.127e-09,4.514e-09\PG=CS [SG(C1H1N1)]\\@


 GARBAGE IN, GARBAGE OUT
 Job cpu time:       0 days  0 hours  7 minutes 38.8 seconds.
 File lengths (MBytes):  RWF=     77 Int=      0 D2E=      0 Chk=      3 Scr=      1
 Normal termination of Gaussian 09 at Mon Sep 26 18:31:19 2016.
