 Entering Gaussian System, Link 0=g09
 Initial command:
 /cluster/software/gaussian/gaussian-09-D.01/g09/l1.exe "/local/scratch/maxb2/Gau-1137.inp" -scrdir="/local/scratch/maxb2/"
 Entering Link 1 = /cluster/software/gaussian/gaussian-09-D.01/g09/l1.exe PID=      1138.
  
 Copyright (c) 1988,1990,1992,1993,1995,1998,2003,2009,2013,
            Gaussian, Inc.  All Rights Reserved.
  
 This is part of the Gaussian(R) 09 program.  It is based on
 the Gaussian(R) 03 system (copyright 2003, Gaussian, Inc.),
 the Gaussian(R) 98 system (copyright 1998, Gaussian, Inc.),
 the Gaussian(R) 94 system (copyright 1995, Gaussian, Inc.),
 the Gaussian 92(TM) system (copyright 1992, Gaussian, Inc.),
 the Gaussian 90(TM) system (copyright 1990, Gaussian, Inc.),
 the Gaussian 88(TM) system (copyright 1988, Gaussian, Inc.),
 the Gaussian 86(TM) system (copyright 1986, Carnegie Mellon
 University), and the Gaussian 82(TM) system (copyright 1983,
 Carnegie Mellon University). Gaussian is a federally registered
 trademark of Gaussian, Inc.
  
 This software contains proprietary and confidential information,
 including trade secrets, belonging to Gaussian, Inc.
  
 This software is provided under written license and may be
 used, copied, transmitted, or stored only in accord with that
 written license.
  
 The following legend is applicable only to US Government
 contracts under FAR:
  
                    RESTRICTED RIGHTS LEGEND
  
 Use, reproduction and disclosure by the US Government is
 subject to restrictions as set forth in subparagraphs (a)
 and (c) of the Commercial Computer Software - Restricted
 Rights clause in FAR 52.227-19.
  
 Gaussian, Inc.
 340 Quinnipiac St., Bldg. 40, Wallingford CT 06492
  
  
 ---------------------------------------------------------------
 Warning -- This program may not be used in any manner that
 competes with the business of Gaussian, Inc. or will provide
 assistance to any competitor of Gaussian, Inc.  The licensee
 of this program is prohibited from giving any competitor of
 Gaussian, Inc. access to this program.  By using this program,
 the user acknowledges that Gaussian, Inc. is engaged in the
 business of creating and licensing software in the field of
 computational chemistry and represents and warrants to the
 licensee that it is not a competitor of Gaussian, Inc. and that
 it will not use this program in any manner prohibited above.
 ---------------------------------------------------------------
  

 Cite this work as:
 Gaussian 09, Revision D.01,
 M. J. Frisch, G. W. Trucks, H. B. Schlegel, G. E. Scuseria, 
 M. A. Robb, J. R. Cheeseman, G. Scalmani, V. Barone, B. Mennucci, 
 G. A. Petersson, H. Nakatsuji, M. Caricato, X. Li, H. P. Hratchian, 
 A. F. Izmaylov, J. Bloino, G. Zheng, J. L. Sonnenberg, M. Hada, 
 M. Ehara, K. Toyota, R. Fukuda, J. Hasegawa, M. Ishida, T. Nakajima, 
 Y. Honda, O. Kitao, H. Nakai, T. Vreven, J. A. Montgomery, Jr., 
 J. E. Peralta, F. Ogliaro, M. Bearpark, J. J. Heyd, E. Brothers, 
 K. N. Kudin, V. N. Staroverov, T. Keith, R. Kobayashi, J. Normand, 
 K. Raghavachari, A. Rendell, J. C. Burant, S. S. Iyengar, J. Tomasi, 
 M. Cossi, N. Rega, J. M. Millam, M. Klene, J. E. Knox, J. B. Cross, 
 V. Bakken, C. Adamo, J. Jaramillo, R. Gomperts, R. E. Stratmann, 
 O. Yazyev, A. J. Austin, R. Cammi, C. Pomelli, J. W. Ochterski, 
 R. L. Martin, K. Morokuma, V. G. Zakrzewski, G. A. Voth, 
 P. Salvador, J. J. Dannenberg, S. Dapprich, A. D. Daniels, 
 O. Farkas, J. B. Foresman, J. V. Ortiz, J. Cioslowski, 
 and D. J. Fox, Gaussian, Inc., Wallingford CT, 2013.
 
 ******************************************
 Gaussian 09:  ES64L-G09RevD.01 24-Apr-2013
                26-Sep-2016 
 ******************************************
 %rwf=/home/maxb2/scratch/HNC11/
 %int=/home/maxb2/scratch/HNC11/
 %d2e=/home/maxb2/scratch/HNC11/
 %nosave
 %mem=6GB
 %nprocshared=2
 Will use up to    2 processors via shared memory.
 %chk=HNC6311ppGss
 ---------------------------------------------
 # opt=(modredundant,tight) RHF/6-311++g** gfp
 ---------------------------------------------
 1/7=10,18=120,19=15,38=1/1,3;
 2/9=110,12=2,17=6,18=5,40=1/2;
 3/5=4,6=6,7=1111,11=1,16=1,24=100,25=1,30=1,71=1,116=1/1,2,3;
 4//1;
 5/5=2,38=5/2;
 6/7=2,8=2,9=2,10=2,28=1/1;
 7//1,2,3,16;
 1/7=10,18=20,19=15/3(2);
 2/9=110/2;
 99//99;
 2/9=110/2;
 3/5=4,6=6,7=1111,11=1,16=1,25=1,30=1,71=1,116=1/1,2,3;
 4/5=5,16=3,69=1/1;
 5/5=2,38=5/2;
 7//1,2,3,16;
 1/7=10,18=20,19=15/3(-5);
 2/9=110/2;
 6/7=2,8=2,9=2,10=2,19=2,28=1/1;
 99/9=1/99;
 -------
 HNC-HCN
 -------
 Symbolic Z-matrix:
 Charge =  0 Multiplicity = 1
 N
 C                    1    B1
 H                    2    B2       1    A1
       Variables:
  B1                    1.                       
  B2                    2.3                      
       Constants:
  A1                  180.                       
 
 Add virtual bond connecting atoms H3         and C2         Dist= 4.35D+00.
 The following ModRedundant input section has been read:
 

 GradGradGradGradGradGradGradGradGradGradGradGradGradGradGradGradGradGrad
 Berny optimization.
 Initialization pass.
                           ----------------------------
                           !    Initial Parameters    !
                           ! (Angstroms and Degrees)  !
 --------------------------                            --------------------------
 ! Name  Definition              Value          Derivative Info.                !
 --------------------------------------------------------------------------------
 ! R1    R(1,2)                  1.0            estimate D2E/DX2                !
 ! R2    R(2,3)                  2.3            estimate D2E/DX2                !
 ! A1    L(1,2,3,-1,-1)        180.0            estimate D2E/DX2                !
 ! A2    L(1,2,3,-2,-2)        180.0            estimate D2E/DX2                !
 --------------------------------------------------------------------------------
 Trust Radius=3.00D-01 FncErr=1.00D-07 GrdErr=1.00D-07
 Number of steps in this run=     20 maximum allowed number of steps=    100.
 GradGradGradGradGradGradGradGradGradGradGradGradGradGradGradGradGradGrad

                          Input orientation:                          
 ---------------------------------------------------------------------
 Center     Atomic      Atomic             Coordinates (Angstroms)
 Number     Number       Type             X           Y           Z
 ---------------------------------------------------------------------
      1          7           0        0.000000    0.000000    0.000000
      2          6           0        0.000000    0.000000    1.000000
      3          1           0        0.000000    0.000000    3.300000
 ---------------------------------------------------------------------
                    Distance matrix (angstroms):
                    1          2          3
     1  N    0.000000
     2  C    1.000000   0.000000
     3  H    3.300000   2.300000   0.000000
 Stoichiometry    CHN
 Framework group  C*V[C*(HCN)]
 Deg. of freedom     2
 Full point group                 C*V     NOp   4
 Largest Abelian subgroup         C2V     NOp   4
 Largest concise Abelian subgroup C1      NOp   1
                         Standard orientation:                         
 ---------------------------------------------------------------------
 Center     Atomic      Atomic             Coordinates (Angstroms)
 Number     Number       Type             X           Y           Z
 ---------------------------------------------------------------------
      1          7           0        0.000000    0.000000    0.664286
      2          6           0        0.000000    0.000000   -0.335714
      3          1           0        0.000000    0.000000   -2.635714
 ---------------------------------------------------------------------
 Rotational constants (GHZ):      0.0000000     35.3920881     35.3920881
 Standard basis: 6-311++G(d,p) (5D, 7F)
 AO basis set (Overlap normalization):
 Atom N1       Shell     1 S   6     bf    1 -     1          0.000000000000          0.000000000000          1.255318073988
      0.6293480000D+04  0.1969788147D-02
      0.9490440000D+03  0.1496128592D-01
      0.2187760000D+03  0.7350053084D-01
      0.6369160000D+02  0.2489367658D+00
      0.1882820000D+02  0.6024594331D+00
      0.2720230000D+01  0.2562017589D+00
 Atom N1       Shell     2 SP   3    bf    2 -     5          0.000000000000          0.000000000000          1.255318073988
      0.3063310000D+02  0.1119060795D+00  0.3831191864D-01
      0.7026140000D+01  0.9216666549D+00  0.2374031155D+00
      0.2112050000D+01 -0.2569191826D-02  0.8175923978D+00
 Atom N1       Shell     3 SP   1    bf    6 -     9          0.000000000000          0.000000000000          1.255318073988
      0.6840090000D+00  0.1000000000D+01  0.1000000000D+01
 Atom N1       Shell     4 SP   1    bf   10 -    13          0.000000000000          0.000000000000          1.255318073988
      0.2008780000D+00  0.1000000000D+01  0.1000000000D+01
 Atom N1       Shell     5 SP   1    bf   14 -    17          0.000000000000          0.000000000000          1.255318073988
      0.6390000000D-01  0.1000000000D+01  0.1000000000D+01
 Atom N1       Shell     6 D   1     bf   18 -    22          0.000000000000          0.000000000000          1.255318073988
      0.9130000000D+00  0.1000000000D+01
 Atom C2       Shell     7 S   6     bf   23 -    23          0.000000000000          0.000000000000         -0.634408058897
      0.4563240000D+04  0.1966650249D-02
      0.6820240000D+03  0.1523060193D-01
      0.1549730000D+03  0.7612690966D-01
      0.4445530000D+02  0.2608010331D+00
      0.1302900000D+02  0.6164620782D+00
      0.1827730000D+01  0.2210060280D+00
 Atom C2       Shell     8 SP   3    bf   24 -    27          0.000000000000          0.000000000000         -0.634408058897
      0.2096420000D+02  0.1146600807D+00  0.4024869267D-01
      0.4803310000D+01  0.9199996477D+00  0.2375939567D+00
      0.1459330000D+01 -0.3030682134D-02  0.8158538515D+00
 Atom C2       Shell     9 SP   1    bf   28 -    31          0.000000000000          0.000000000000         -0.634408058897
      0.4834560000D+00  0.1000000000D+01  0.1000000000D+01
 Atom C2       Shell    10 SP   1    bf   32 -    35          0.000000000000          0.000000000000         -0.634408058897
      0.1455850000D+00  0.1000000000D+01  0.1000000000D+01
 Atom C2       Shell    11 SP   1    bf   36 -    39          0.000000000000          0.000000000000         -0.634408058897
      0.4380000000D-01  0.1000000000D+01  0.1000000000D+01
 Atom C2       Shell    12 D   1     bf   40 -    44          0.000000000000          0.000000000000         -0.634408058897
      0.6260000000D+00  0.1000000000D+01
 Atom H3       Shell    13 S   3     bf   45 -    45          0.000000000000          0.000000000000         -4.980778164534
      0.3386500000D+02  0.2549381454D-01
      0.5094790000D+01  0.1903731086D+00
      0.1158790000D+01  0.8521614860D+00
 Atom H3       Shell    14 S   1     bf   46 -    46          0.000000000000          0.000000000000         -4.980778164534
      0.3258400000D+00  0.1000000000D+01
 Atom H3       Shell    15 S   1     bf   47 -    47          0.000000000000          0.000000000000         -4.980778164534
      0.1027410000D+00  0.1000000000D+01
 Atom H3       Shell    16 S   1     bf   48 -    48          0.000000000000          0.000000000000         -4.980778164534
      0.3600000000D-01  0.1000000000D+01
 Atom H3       Shell    17 P   1     bf   49 -    51          0.000000000000          0.000000000000         -4.980778164534
      0.7500000000D+00  0.1000000000D+01
 There are    29 symmetry adapted cartesian basis functions of A1  symmetry.
 There are     2 symmetry adapted cartesian basis functions of A2  symmetry.
 There are    11 symmetry adapted cartesian basis functions of B1  symmetry.
 There are    11 symmetry adapted cartesian basis functions of B2  symmetry.
 There are    27 symmetry adapted basis functions of A1  symmetry.
 There are     2 symmetry adapted basis functions of A2  symmetry.
 There are    11 symmetry adapted basis functions of B1  symmetry.
 There are    11 symmetry adapted basis functions of B2  symmetry.
    51 basis functions,    81 primitive gaussians,    53 cartesian basis functions
     7 alpha electrons        7 beta electrons
       nuclear repulsion energy        24.7284021532 Hartrees.
 NAtoms=    3 NActive=    3 NUniq=    3 SFac= 1.00D+00 NAtFMM=   60 NAOKFM=F Big=F
 Integral buffers will be    131072 words long.
 Raffenetti 1 integral format.
 Two-electron integral symmetry is turned on.
 One-electron integrals computed using PRISM.
 NBasis=    51 RedAO= T EigKep=  2.60D-03  NBF=    27     2    11    11
 NBsUse=    51 1.00D-06 EigRej= -1.00D+00 NBFU=    27     2    11    11
 ExpMin= 3.60D-02 ExpMax= 6.29D+03 ExpMxC= 9.49D+02 IAcc=3 IRadAn=         5 AccDes= 0.00D+00
 Harris functional with IExCor=  205 and IRadAn=       5 diagonalized for initial guess.
 HarFok:  IExCor=  205 AccDes= 0.00D+00 IRadAn=         5 IDoV= 1 UseB2=F ITyADJ=14
 ICtDFT=  3500011 ScaDFX=  1.000000  1.000000  1.000000  1.000000
 FoFCou: FMM=F IPFlag=           0 FMFlag=      100000 FMFlg1=           0
         NFxFlg=           0 DoJE=T BraDBF=F KetDBF=T FulRan=T
         wScrn=  0.000000 ICntrl=     500 IOpCl=  0 I1Cent=   200000004 NGrid=           0
         NMat0=    1 NMatS0=      1 NMatT0=    0 NMatD0=    1 NMtDS0=    0 NMtDT0=    0
 Petite list used in FoFCou.
 Initial guess orbital symmetries:
       Occupied  (SG) (SG) (SG) (PI) (PI) (SG) (SG)
       Virtual   (SG) (PI) (PI) (SG) (PI) (PI) (SG) (SG) (PI) (PI)
                 (SG) (SG) (SG) (SG) (PI) (PI) (SG) (SG) (PI) (PI)
                 (SG) (DLTA) (DLTA) (SG) (PI) (PI) (PI) (PI) (SG)
                 (DLTA) (DLTA) (SG) (SG) (PI) (PI) (SG) (PI) (PI)
                 (SG) (PI) (PI) (SG) (SG) (SG)
 The electronic state of the initial guess is 1-SG.
 Keep R1 ints in memory in symmetry-blocked form, NReq=1746382.
 Requested convergence on RMS density matrix=1.00D-08 within 128 cycles.
 Requested convergence on MAX density matrix=1.00D-06.
 Requested convergence on             energy=1.00D-06.
 No special actions if energy rises.
 SCF Done:  E(RHF) =  -92.5997484607     A.U. after   12 cycles
            NFock= 12  Conv=0.31D-08     -V/T= 1.9928

 **********************************************************************

            Population analysis using the SCF density.

 **********************************************************************

 Orbital symmetries:
       Occupied  (SG) (SG) (SG) (SG) (PI) (PI) (SG)
       Virtual   (SG) (SG) (PI) (PI) (SG) (SG) (PI) (PI) (SG) (PI)
                 (PI) (SG) (SG) (SG) (PI) (PI) (SG) (SG) (PI) (PI)
                 (SG) (PI) (PI) (DLTA) (DLTA) (SG) (PI) (PI) (SG)
                 (SG) (DLTA) (DLTA) (SG) (PI) (PI) (SG) (PI) (PI)
                 (SG) (PI) (PI) (SG) (SG) (SG)
 The electronic state is 1-SG.
 Alpha  occ. eigenvalues --  -15.52708 -11.26607  -1.29719  -0.57275  -0.53540
 Alpha  occ. eigenvalues --   -0.53540  -0.48588
 Alpha virt. eigenvalues --   -0.10624   0.05746   0.09616   0.09616   0.10112
 Alpha virt. eigenvalues --    0.16934   0.22096   0.22096   0.26921   0.33063
 Alpha virt. eigenvalues --    0.33063   0.35469   0.45358   0.60562   0.72647
 Alpha virt. eigenvalues --    0.72647   0.91502   0.98733   1.09377   1.09377
 Alpha virt. eigenvalues --    1.36640   1.43395   1.43395   1.50779   1.50779
 Alpha virt. eigenvalues --    1.53062   1.79928   1.79928   1.81402   2.48252
 Alpha virt. eigenvalues --    2.48410   2.48410   2.60945   3.06391   3.06391
 Alpha virt. eigenvalues --    3.17130   3.23131   3.23131   3.74956   4.46690
 Alpha virt. eigenvalues --    4.46690   5.23199  25.22317  37.55912
          Condensed to atoms (all electrons):
               1          2          3
     1  N    6.634661   0.874743   0.032311
     2  C    0.874743   4.773571   0.168259
     3  H    0.032311   0.168259   0.441142
 Mulliken charges:
               1
     1  N   -0.541715
     2  C    0.183427
     3  H    0.358288
 Sum of Mulliken charges =   0.00000
 Mulliken charges with hydrogens summed into heavy atoms:
               1
     1  N   -0.541715
     2  C    0.541715
 Electronic spatial extent (au):  <R**2>=             58.4593
 Charge=              0.0000 electrons
 Dipole moment (field-independent basis, Debye):
    X=              0.0000    Y=              0.0000    Z=             -5.2198  Tot=              5.2198
 Quadrupole moment (field-independent basis, Debye-Ang):
   XX=            -12.4975   YY=            -12.4975   ZZ=             -2.1820
   XY=              0.0000   XZ=              0.0000   YZ=              0.0000
 Traceless Quadrupole moment (field-independent basis, Debye-Ang):
   XX=             -3.4385   YY=             -3.4385   ZZ=              6.8770
   XY=              0.0000   XZ=              0.0000   YZ=              0.0000
 Octapole moment (field-independent basis, Debye-Ang**2):
  XXX=              0.0000  YYY=              0.0000  ZZZ=            -35.2832  XYY=              0.0000
  XXY=              0.0000  XXZ=              1.1977  XZZ=              0.0000  YZZ=              0.0000
  YYZ=              1.1977  XYZ=              0.0000
 Hexadecapole moment (field-independent basis, Debye-Ang**3):
 XXXX=            -13.4244 YYYY=            -13.4244 ZZZZ=             28.3982 XXXY=              0.0000
 XXXZ=              0.0000 YYYX=              0.0000 YYYZ=              0.0000 ZZZX=              0.0000
 ZZZY=              0.0000 XXYY=             -4.4748 XXZZ=            -15.0349 YYZZ=            -15.0349
 XXYZ=              0.0000 YYXZ=              0.0000 ZZXY=              0.0000
 N-N= 2.472840215319D+01 E-N=-2.674852022539D+02  KE= 9.326843355581D+01
 Symmetry A1   KE= 8.738807828839D+01
 Symmetry A2   KE= 0.000000000000D+00
 Symmetry B1   KE= 2.940177633709D+00
 Symmetry B2   KE= 2.940177633709D+00
 Calling FoFJK, ICntrl=      2127 FMM=F ISym2X=1 I1Cent= 0 IOpClX= 0 NMat=1 NMatS=1 NMatT=0.
 ***** Axes restored to original set *****
 -------------------------------------------------------------------
 Center     Atomic                   Forces (Hartrees/Bohr)
 Number     Number              X              Y              Z
 -------------------------------------------------------------------
      1        7           0.000000000    0.000000000   -0.573355868
      2        6           0.000000000    0.000000000    0.655778697
      3        1           0.000000000    0.000000000   -0.082422829
 -------------------------------------------------------------------
 Cartesian Forces:  Max     0.655778697 RMS     0.291657366

 GradGradGradGradGradGradGradGradGradGradGradGradGradGradGradGradGradGrad
 Berny optimization.
 FormGI is forming the generalized inverse of G from B-inverse, IUseBI=4.
 Internal  Forces:  Max     0.573355868 RMS     0.289624962
 Search for a local minimum.
 Step number   1 out of a maximum of   20
 All quantities printed in internal units (Hartrees-Bohrs-Radians)
 Mixed Optimization -- RFO/linear search
 Second derivative matrix not updated -- first step.
 The second derivative matrix:
                          R1        R2        A1        A2
           R1           3.32740
           R2           0.00000   0.02721
           A1           0.00000   0.00000   0.00230
           A2           0.00000   0.00000   0.00000   0.00230
 ITU=  0
     Eigenvalues ---    0.00230   0.00230   0.02721   3.32740
 RFO step:  Lambda=-1.36423064D-01 EMin= 2.30000000D-03
 Linear search not attempted -- first point.
 Maximum step size (   0.300) exceeded in Quadratic search.
    -- Step size scaled by   0.566
 Iteration  1 RMS(Cart)=  0.07075807 RMS(Int)=  0.04250289
 Iteration  2 RMS(Cart)=  0.03470347 RMS(Int)=  0.00000000
 Iteration  3 RMS(Cart)=  0.00000000 RMS(Int)=  0.00000000
 ClnCor:  largest displacement from symmetrization is 4.16D-17 for atom     1.
 Variable       Old X    -DE/DX   Delta X   Delta X   Delta X     New X
                                 (Linear)    (Quad)   (Total)
    R1        1.88973   0.57336   0.00000   0.09366   0.09366   1.98338
    R2        4.34637  -0.08242   0.00000  -0.28501  -0.28501   4.06136
    A1        3.14159   0.00000   0.00000   0.00000   0.00000   3.14159
    A2        3.14159   0.00000   0.00000   0.00000   0.00000   3.14159
         Item               Value     Threshold  Converged?
 Maximum Force            0.573356     0.000015     NO 
 RMS     Force            0.289625     0.000010     NO 
 Maximum Displacement     0.158785     0.000060     NO 
 RMS     Displacement     0.102719     0.000040     NO 
 Predicted change in Energy=-6.149146D-02
 GradGradGradGradGradGradGradGradGradGradGradGradGradGradGradGradGradGrad

                          Input orientation:                          
 ---------------------------------------------------------------------
 Center     Atomic      Atomic             Coordinates (Angstroms)
 Number     Number       Type             X           Y           Z
 ---------------------------------------------------------------------
      1          7           0        0.000000    0.000000    0.017232
      2          6           0        0.000000    0.000000    1.066793
      3          1           0        0.000000    0.000000    3.215975
 ---------------------------------------------------------------------
                    Distance matrix (angstroms):
                    1          2          3
     1  N    0.000000
     2  C    1.049561   0.000000
     3  H    3.198743   2.149181   0.000000
 Stoichiometry    CHN
 Framework group  C*V[C*(HCN)]
 Deg. of freedom     2
 Full point group                 C*V     NOp   4
 Largest Abelian subgroup         C2V     NOp   4
 Largest concise Abelian subgroup C1      NOp   1
                         Standard orientation:                         
 ---------------------------------------------------------------------
 Center     Atomic      Atomic             Coordinates (Angstroms)
 Number     Number       Type             X           Y           Z
 ---------------------------------------------------------------------
      1          7           0        0.000000    0.000000    0.678294
      2          6           0        0.000000    0.000000   -0.371268
      3          1           0        0.000000    0.000000   -2.520449
 ---------------------------------------------------------------------
 Rotational constants (GHZ):      0.0000000     35.4226680     35.4226680
 Standard basis: 6-311++G(d,p) (5D, 7F)
 There are    29 symmetry adapted cartesian basis functions of A1  symmetry.
 There are     2 symmetry adapted cartesian basis functions of A2  symmetry.
 There are    11 symmetry adapted cartesian basis functions of B1  symmetry.
 There are    11 symmetry adapted cartesian basis functions of B2  symmetry.
 There are    27 symmetry adapted basis functions of A1  symmetry.
 There are     2 symmetry adapted basis functions of A2  symmetry.
 There are    11 symmetry adapted basis functions of B1  symmetry.
 There are    11 symmetry adapted basis functions of B2  symmetry.
    51 basis functions,    81 primitive gaussians,    53 cartesian basis functions
     7 alpha electrons        7 beta electrons
       nuclear repulsion energy        23.8113011204 Hartrees.
 NAtoms=    3 NActive=    3 NUniq=    3 SFac= 1.00D+00 NAtFMM=   60 NAOKFM=F Big=F
 Integral buffers will be    131072 words long.
 Raffenetti 1 integral format.
 Two-electron integral symmetry is turned on.
 One-electron integrals computed using PRISM.
 NBasis=    51 RedAO= T EigKep=  2.99D-03  NBF=    27     2    11    11
 NBsUse=    51 1.00D-06 EigRej= -1.00D+00 NBFU=    27     2    11    11
 Initial guess from the checkpoint file:  "HNC6311ppGss.chk"
 B after Tr=     0.000000    0.000000    0.000000
         Rot=    1.000000    0.000000    0.000000    0.000000 Ang=   0.00 deg.
 Initial guess orbital symmetries:
       Occupied  (SG) (SG) (SG) (SG) (PI) (PI) (SG)
       Virtual   (SG) (SG) (SG) (SG) (SG) (SG) (SG) (DLTA) (SG)
                 (SG) (SG) (SG) (DLTA) (SG) (SG) (SG) (SG) (SG)
                 (SG) (SG) (SG) (SG) (DLTA) (DLTA) (PI) (PI) (PI)
                 (PI) (PI) (PI) (PI) (PI) (PI) (PI) (PI) (PI) (PI)
                 (PI) (PI) (PI) (PI) (PI) (PI) (PI)
 ExpMin= 3.60D-02 ExpMax= 6.29D+03 ExpMxC= 9.49D+02 IAcc=3 IRadAn=         5 AccDes= 0.00D+00
 Harris functional with IExCor=  205 and IRadAn=       5 diagonalized for initial guess.
 HarFok:  IExCor=  205 AccDes= 0.00D+00 IRadAn=         5 IDoV= 1 UseB2=F ITyADJ=14
 ICtDFT=  3500011 ScaDFX=  1.000000  1.000000  1.000000  1.000000
 FoFCou: FMM=F IPFlag=           0 FMFlag=      100000 FMFlg1=           0
         NFxFlg=           0 DoJE=T BraDBF=F KetDBF=T FulRan=T
         wScrn=  0.000000 ICntrl=     500 IOpCl=  0 I1Cent=   200000004 NGrid=           0
         NMat0=    1 NMatS0=      1 NMatT0=    0 NMatD0=    1 NMtDS0=    0 NMtDT0=    0
 Petite list used in FoFCou.
 Keep R1 ints in memory in symmetry-blocked form, NReq=1746381.
 Requested convergence on RMS density matrix=1.00D-08 within 128 cycles.
 Requested convergence on MAX density matrix=1.00D-06.
 Requested convergence on             energy=1.00D-06.
 No special actions if energy rises.
 SCF Done:  E(RHF) =  -92.6651966306     A.U. after   11 cycles
            NFock= 11  Conv=0.15D-08     -V/T= 1.9980
 Calling FoFJK, ICntrl=      2127 FMM=F ISym2X=1 I1Cent= 0 IOpClX= 0 NMat=1 NMatS=1 NMatT=0.
 ***** Axes restored to original set *****
 -------------------------------------------------------------------
 Center     Atomic                   Forces (Hartrees/Bohr)
 Number     Number              X              Y              Z
 -------------------------------------------------------------------
      1        7           0.000000000    0.000000000   -0.306007514
      2        6           0.000000000    0.000000000    0.398174077
      3        1           0.000000000    0.000000000   -0.092166562
 -------------------------------------------------------------------
 Cartesian Forces:  Max     0.398174077 RMS     0.170188741

 GradGradGradGradGradGradGradGradGradGradGradGradGradGradGradGradGradGrad
 Berny optimization.
 Using GEDIIS/GDIIS optimizer.
 Internal  Forces:  Max     0.306007514 RMS     0.159793049
 Search for a local minimum.
 Step number   2 out of a maximum of   20
 All quantities printed in internal units (Hartrees-Bohrs-Radians)
 Mixed Optimization -- RFO/linear search
 Update second derivatives using D2CorX and points    1    2
 DE= -6.54D-02 DEPred=-6.15D-02 R= 1.06D+00
 TightC=F SS=  1.41D+00  RLast= 3.00D-01 DXNew= 5.0454D-01 9.0000D-01
 Trust test= 1.06D+00 RLast= 3.00D-01 DXMaxT set to 5.05D-01
 The second derivative matrix:
                          R1        R2        A1        A2
           R1           3.44484
           R2           0.19398   0.02956
           A1           0.00000   0.00000   0.00230
           A2           0.00000   0.00000   0.00000   0.00230
 ITU=  1  0
 Use linear search instead of GDIIS.
 Linear search step of   0.600 exceeds DXMaxT=   0.505 but not scaled.
 Quartic linear search produced a step of  2.00000.
 Iteration  1 RMS(Cart)=  0.07918740 RMS(Int)=  0.18500578
 Iteration  2 RMS(Cart)=  0.08164966 RMS(Int)=  0.08500578
 Iteration  3 RMS(Cart)=  0.06940693 RMS(Int)=  0.00000003
 Iteration  4 RMS(Cart)=  0.00000004 RMS(Int)=  0.00000000
 ClnCor:  largest displacement from symmetrization is 1.79D-09 for atom     2.
 Variable       Old X    -DE/DX   Delta X   Delta X   Delta X     New X
                                 (Linear)    (Quad)   (Total)
    R1        1.98338   0.30601   0.18731   0.00000   0.18731   2.17070
    R2        4.06136  -0.09217  -0.57001   0.00000  -0.57001   3.49135
    A1        3.14159   0.00000   0.00000   0.00000   0.00000   3.14159
    A2        3.14159   0.00000   0.00000   0.00000   0.00000   3.14159
         Item               Value     Threshold  Converged?
 Maximum Force            0.306008     0.000015     NO 
 RMS     Force            0.159793     0.000010     NO 
 Maximum Displacement     0.317569     0.000060     NO 
 RMS     Displacement     0.205438     0.000040     NO 
 Predicted change in Energy=-6.533148D-02
 GradGradGradGradGradGradGradGradGradGradGradGradGradGradGradGradGradGrad

                          Input orientation:                          
 ---------------------------------------------------------------------
 Center     Atomic      Atomic             Coordinates (Angstroms)
 Number     Number       Type             X           Y           Z
 ---------------------------------------------------------------------
      1          7           0        0.000000    0.000000    0.051696
      2          6           0        0.000000    0.000000    1.200380
      3          1           0        0.000000    0.000000    3.047924
 ---------------------------------------------------------------------
                    Distance matrix (angstroms):
                    1          2          3
     1  N    0.000000
     2  C    1.148684   0.000000
     3  H    2.996228   1.847544   0.000000
 Stoichiometry    CHN
 Framework group  C*V[C*(HCN)]
 Deg. of freedom     2
 Full point group                 C*V     NOp   4
 Largest Abelian subgroup         C2V     NOp   4
 Largest concise Abelian subgroup C1      NOp   1
                         Standard orientation:                         
 ---------------------------------------------------------------------
 Center     Atomic      Atomic             Coordinates (Angstroms)
 Number     Number       Type             X           Y           Z
 ---------------------------------------------------------------------
      1          7           0        0.000000    0.000000    0.706309
      2          6           0        0.000000    0.000000   -0.442375
      3          1           0        0.000000    0.000000   -2.289919
 ---------------------------------------------------------------------
 Rotational constants (GHZ):      0.0000000     35.0291421     35.0291421
 Standard basis: 6-311++G(d,p) (5D, 7F)
 There are    29 symmetry adapted cartesian basis functions of A1  symmetry.
 There are     2 symmetry adapted cartesian basis functions of A2  symmetry.
 There are    11 symmetry adapted cartesian basis functions of B1  symmetry.
 There are    11 symmetry adapted cartesian basis functions of B2  symmetry.
 There are    27 symmetry adapted basis functions of A1  symmetry.
 There are     2 symmetry adapted basis functions of A2  symmetry.
 There are    11 symmetry adapted basis functions of B1  symmetry.
 There are    11 symmetry adapted basis functions of B2  symmetry.
    51 basis functions,    81 primitive gaussians,    53 cartesian basis functions
     7 alpha electrons        7 beta electrons
       nuclear repulsion energy        22.3034456243 Hartrees.
 NAtoms=    3 NActive=    3 NUniq=    3 SFac= 1.00D+00 NAtFMM=   60 NAOKFM=F Big=F
 Integral buffers will be    131072 words long.
 Raffenetti 1 integral format.
 Two-electron integral symmetry is turned on.
 One-electron integrals computed using PRISM.
 NBasis=    51 RedAO= T EigKep=  3.81D-03  NBF=    27     2    11    11
 NBsUse=    51 1.00D-06 EigRej= -1.00D+00 NBFU=    27     2    11    11
 Initial guess from the checkpoint file:  "HNC6311ppGss.chk"
 B after Tr=     0.000000    0.000000    0.000000
         Rot=    1.000000    0.000000    0.000000    0.000000 Ang=   0.00 deg.
 Initial guess orbital symmetries:
       Occupied  (SG) (SG) (SG) (SG) (PI) (PI) (SG)
       Virtual   (SG) (SG) (SG) (SG) (SG) (SG) (SG) (SG) (DLTA)
                 (SG) (SG) (SG) (DLTA) (SG) (SG) (SG) (SG) (SG)
                 (SG) (SG) (SG) (SG) (DLTA) (DLTA) (PI) (PI) (PI)
                 (PI) (PI) (PI) (PI) (PI) (PI) (PI) (PI) (PI) (PI)
                 (PI) (PI) (PI) (PI) (PI) (PI) (PI)
 ExpMin= 3.60D-02 ExpMax= 6.29D+03 ExpMxC= 9.49D+02 IAcc=3 IRadAn=         5 AccDes= 0.00D+00
 Harris functional with IExCor=  205 and IRadAn=       5 diagonalized for initial guess.
 HarFok:  IExCor=  205 AccDes= 0.00D+00 IRadAn=         5 IDoV= 1 UseB2=F ITyADJ=14
 ICtDFT=  3500011 ScaDFX=  1.000000  1.000000  1.000000  1.000000
 FoFCou: FMM=F IPFlag=           0 FMFlag=      100000 FMFlg1=           0
         NFxFlg=           0 DoJE=T BraDBF=F KetDBF=T FulRan=T
         wScrn=  0.000000 ICntrl=     500 IOpCl=  0 I1Cent=   200000004 NGrid=           0
         NMat0=    1 NMatS0=      1 NMatT0=    0 NMatD0=    1 NMtDS0=    0 NMtDT0=    0
 Petite list used in FoFCou.
 Keep R1 ints in memory in symmetry-blocked form, NReq=1746395.
 Requested convergence on RMS density matrix=1.00D-08 within 128 cycles.
 Requested convergence on MAX density matrix=1.00D-06.
 Requested convergence on             energy=1.00D-06.
 No special actions if energy rises.
 SCF Done:  E(RHF) =  -92.7448902590     A.U. after   12 cycles
            NFock= 12  Conv=0.15D-08     -V/T= 2.0056
 Calling FoFJK, ICntrl=      2127 FMM=F ISym2X=1 I1Cent= 0 IOpClX= 0 NMat=1 NMatS=1 NMatT=0.
 ***** Axes restored to original set *****
 -------------------------------------------------------------------
 Center     Atomic                   Forces (Hartrees/Bohr)
 Number     Number              X              Y              Z
 -------------------------------------------------------------------
      1        7           0.000000000    0.000000000    0.044123984
      2        6           0.000000000    0.000000000    0.068281575
      3        1           0.000000000    0.000000000   -0.112405559
 -------------------------------------------------------------------
 Cartesian Forces:  Max     0.112405559 RMS     0.046241286

 GradGradGradGradGradGradGradGradGradGradGradGradGradGradGradGradGradGrad
 Berny optimization.
 Using GEDIIS/GDIIS optimizer.
 Internal  Forces:  Max     0.112405559 RMS     0.060377843
 Search for a local minimum.
 Step number   3 out of a maximum of   20
 All quantities printed in internal units (Hartrees-Bohrs-Radians)
 Mixed Optimization -- RFO/linear search
 Update second derivatives using D2CorX and points    2    3
 The second derivative matrix:
                          R1        R2        A1        A2
           R1           2.50242
           R2           0.20808   0.03287
           A1           0.00000   0.00000   0.00230
           A2           0.00000   0.00000   0.00000   0.00230
 ITU=  0  1  0
 Use linear search instead of GDIIS.
 Linear search step of   1.200 exceeds DXMaxT=   0.505 scaled by   0.841
 Quartic linear search produced a step of  1.68179.
 Iteration  1 RMS(Cart)=  0.08164966 RMS(Int)=  0.38365590
 Iteration  2 RMS(Cart)=  0.07097621 RMS(Int)=  0.27932069
 Iteration  3 RMS(Cart)=  0.08164966 RMS(Int)=  0.17932069
 Iteration  4 RMS(Cart)=  0.08164966 RMS(Int)=  0.07932069
 Iteration  5 RMS(Cart)=  0.06476507 RMS(Int)=  0.00000000
 Iteration  6 RMS(Cart)=  0.00000000 RMS(Int)=  0.00000000
 ClnCor:  largest displacement from symmetrization is 8.33D-17 for atom     1.
 Variable       Old X    -DE/DX   Delta X   Delta X   Delta X     New X
                                 (Linear)    (Quad)   (Total)
    R1        2.17070  -0.04412   0.31502   0.00000   0.31502   2.48572
    R2        3.49135  -0.11241  -0.95864   0.00000  -0.95864   2.53271
    A1        3.14159   0.00000   0.00000   0.00000   0.00000   3.14159
    A2        3.14159   0.00000   0.00000   0.00000   0.00000   3.14159
         Item               Value     Threshold  Converged?
 Maximum Force            0.112406     0.000015     NO 
 RMS     Force            0.060378     0.000010     NO 
 Maximum Displacement     0.534086     0.000060     NO 
 RMS     Displacement     0.345504     0.000040     NO 
 Predicted change in Energy=-1.742060D-02
 GradGradGradGradGradGradGradGradGradGradGradGradGradGradGradGradGradGrad

                          Input orientation:                          
 ---------------------------------------------------------------------
 Center     Atomic      Atomic             Coordinates (Angstroms)
 Number     Number       Type             X           Y           Z
 ---------------------------------------------------------------------
      1          7           0        0.000000    0.000000    0.109657
      2          6           0        0.000000    0.000000    1.425045
      3          1           0        0.000000    0.000000    2.765298
 ---------------------------------------------------------------------
                    Distance matrix (angstroms):
                    1          2          3
     1  N    0.000000
     2  C    1.315388   0.000000
     3  H    2.655641   1.340253   0.000000
 Stoichiometry    CHN
 Framework group  C*V[C*(HCN)]
 Deg. of freedom     2
 Full point group                 C*V     NOp   4
 Largest Abelian subgroup         C2V     NOp   4
 Largest concise Abelian subgroup C1      NOp   1
                         Standard orientation:                         
 ---------------------------------------------------------------------
 Center     Atomic      Atomic             Coordinates (Angstroms)
 Number     Number       Type             X           Y           Z
 ---------------------------------------------------------------------
      1          7           0        0.000000    0.000000    0.753426
      2          6           0        0.000000    0.000000   -0.561962
      3          1           0        0.000000    0.000000   -1.902215
 ---------------------------------------------------------------------
 Rotational constants (GHZ):      0.0000000     33.1330688     33.1330688
 Standard basis: 6-311++G(d,p) (5D, 7F)
 There are    29 symmetry adapted cartesian basis functions of A1  symmetry.
 There are     2 symmetry adapted cartesian basis functions of A2  symmetry.
 There are    11 symmetry adapted cartesian basis functions of B1  symmetry.
 There are    11 symmetry adapted cartesian basis functions of B2  symmetry.
 There are    27 symmetry adapted basis functions of A1  symmetry.
 There are     2 symmetry adapted basis functions of A2  symmetry.
 There are    11 symmetry adapted basis functions of B1  symmetry.
 There are    11 symmetry adapted basis functions of B2  symmetry.
    51 basis functions,    81 primitive gaussians,    53 cartesian basis functions
     7 alpha electrons        7 beta electrons
       nuclear repulsion energy        20.6603537236 Hartrees.
 NAtoms=    3 NActive=    3 NUniq=    3 SFac= 1.00D+00 NAtFMM=   60 NAOKFM=F Big=F
 Integral buffers will be    131072 words long.
 Raffenetti 1 integral format.
 Two-electron integral symmetry is turned on.
 One-electron integrals computed using PRISM.
 NBasis=    51 RedAO= T EigKep=  5.22D-03  NBF=    27     2    11    11
 NBsUse=    51 1.00D-06 EigRej= -1.00D+00 NBFU=    27     2    11    11
 Initial guess from the checkpoint file:  "HNC6311ppGss.chk"
 B after Tr=     0.000000    0.000000    0.000000
         Rot=    1.000000    0.000000    0.000000    0.000000 Ang=   0.00 deg.
 Initial guess orbital symmetries:
       Occupied  (SG) (SG) (SG) (SG) (SG) (PI) (PI)
       Virtual   (SG) (SG) (SG) (SG) (SG) (SG) (SG) (SG) (DLTA)
                 (SG) (DLTA) (SG) (SG) (SG) (SG) (SG) (SG) (SG)
                 (SG) (SG) (SG) (SG) (DLTA) (DLTA) (PI) (PI) (PI)
                 (PI) (PI) (PI) (PI) (PI) (PI) (PI) (PI) (PI) (PI)
                 (PI) (PI) (PI) (PI) (PI) (PI) (PI)
 ExpMin= 3.60D-02 ExpMax= 6.29D+03 ExpMxC= 9.49D+02 IAcc=3 IRadAn=         5 AccDes= 0.00D+00
 Harris functional with IExCor=  205 and IRadAn=       5 diagonalized for initial guess.
 HarFok:  IExCor=  205 AccDes= 0.00D+00 IRadAn=         5 IDoV= 1 UseB2=F ITyADJ=14
 ICtDFT=  3500011 ScaDFX=  1.000000  1.000000  1.000000  1.000000
 FoFCou: FMM=F IPFlag=           0 FMFlag=      100000 FMFlg1=           0
         NFxFlg=           0 DoJE=T BraDBF=F KetDBF=T FulRan=T
         wScrn=  0.000000 ICntrl=     500 IOpCl=  0 I1Cent=   200000004 NGrid=           0
         NMat0=    1 NMatS0=      1 NMatT0=    0 NMatD0=    1 NMtDS0=    0 NMtDT0=    0
 Petite list used in FoFCou.
 Keep R1 ints in memory in symmetry-blocked form, NReq=1746479.
 Requested convergence on RMS density matrix=1.00D-08 within 128 cycles.
 Requested convergence on MAX density matrix=1.00D-06.
 Requested convergence on             energy=1.00D-06.
 No special actions if energy rises.
 SCF Done:  E(RHF) =  -92.7966068926     A.U. after   12 cycles
            NFock= 12  Conv=0.22D-08     -V/T= 2.0115
 Calling FoFJK, ICntrl=      2127 FMM=F ISym2X=1 I1Cent= 0 IOpClX= 0 NMat=1 NMatS=1 NMatT=0.
 ***** Axes restored to original set *****
 -------------------------------------------------------------------
 Center     Atomic                   Forces (Hartrees/Bohr)
 Number     Number              X              Y              Z
 -------------------------------------------------------------------
      1        7           0.000000000    0.000000000    0.309675354
      2        6           0.000000000    0.000000000   -0.198712627
      3        1           0.000000000    0.000000000   -0.110962727
 -------------------------------------------------------------------
 Cartesian Forces:  Max     0.309675354 RMS     0.128105104

 GradGradGradGradGradGradGradGradGradGradGradGradGradGradGradGradGradGrad
 Berny optimization.
 Using GEDIIS/GDIIS optimizer.
 Internal  Forces:  Max     0.309675354 RMS     0.164477621
 Search for a local minimum.
 Step number   4 out of a maximum of   20
 All quantities printed in internal units (Hartrees-Bohrs-Radians)
 Mixed Optimization -- RFO/linear search
 Update second derivatives using D2CorX and points    3    4
 The second derivative matrix:
                          R1        R2        A1        A2
           R1           1.06347
           R2           0.07246   0.02532
           A1           0.00000   0.00000   0.00230
           A2           0.00000   0.00000   0.00000   0.00230
 ITU=  0  0  1  0
 Use linear search instead of GDIIS.
     Eigenvalues ---    0.00230   0.00230   0.02028   1.06850
 RFO step:  Lambda=-1.43483116D-01 EMin= 2.30000000D-03
 Quartic linear search produced a step of  0.10071.
 Maximum step size (   0.505) exceeded in Quadratic search.
    -- Step size scaled by   0.838
 Iteration  1 RMS(Cart)=  0.13242977 RMS(Int)=  0.17855739
 Iteration  2 RMS(Cart)=  0.08164966 RMS(Int)=  0.07855739
 Iteration  3 RMS(Cart)=  0.06414184 RMS(Int)=  0.00000000
 Iteration  4 RMS(Cart)=  0.00000000 RMS(Int)=  0.00000000
 ClnCor:  largest displacement from symmetrization is 0.00D+00 for atom     0.
 Variable       Old X    -DE/DX   Delta X   Delta X   Delta X     New X
                                 (Linear)    (Quad)   (Total)
    R1        2.48572  -0.30968   0.03173  -0.20600  -0.17427   2.31145
    R2        2.53271  -0.11096  -0.09655  -0.46057  -0.55711   1.97560
    A1        3.14159   0.00000   0.00000   0.00000   0.00000   3.14159
    A2        3.14159   0.00000   0.00000   0.00000   0.00000   3.14159
         Item               Value     Threshold  Converged?
 Maximum Force            0.309675     0.000015     NO 
 RMS     Force            0.164478     0.000010     NO 
 Maximum Displacement     0.429501     0.000060     NO 
 RMS     Displacement     0.270135     0.000040     NO 
 Predicted change in Energy=-8.867327D-02
 GradGradGradGradGradGradGradGradGradGradGradGradGradGradGradGradGradGrad

                          Input orientation:                          
 ---------------------------------------------------------------------
 Center     Atomic      Atomic             Coordinates (Angstroms)
 Number     Number       Type             X           Y           Z
 ---------------------------------------------------------------------
      1          7           0        0.000000    0.000000    0.269409
      2          6           0        0.000000    0.000000    1.492575
      3          1           0        0.000000    0.000000    2.538016
 ---------------------------------------------------------------------
                    Distance matrix (angstroms):
                    1          2          3
     1  N    0.000000
     2  C    1.223166   0.000000
     3  H    2.268607   1.045441   0.000000
 Stoichiometry    CHN
 Framework group  C*V[C*(HCN)]
 Deg. of freedom     2
 Full point group                 C*V     NOp   4
 Largest Abelian subgroup         C2V     NOp   4
 Largest concise Abelian subgroup C1      NOp   1
                         Standard orientation:                         
 ---------------------------------------------------------------------
 Center     Atomic      Atomic             Coordinates (Angstroms)
 Number     Number       Type             X           Y           Z
 ---------------------------------------------------------------------
      1          7           0        0.000000    0.000000    0.686258
      2          6           0        0.000000    0.000000   -0.536909
      3          1           0        0.000000    0.000000   -1.582350
 ---------------------------------------------------------------------
 Rotational constants (GHZ):      0.0000000     40.4759192     40.4759192
 Standard basis: 6-311++G(d,p) (5D, 7F)
 There are    29 symmetry adapted cartesian basis functions of A1  symmetry.
 There are     2 symmetry adapted cartesian basis functions of A2  symmetry.
 There are    11 symmetry adapted cartesian basis functions of B1  symmetry.
 There are    11 symmetry adapted cartesian basis functions of B2  symmetry.
 There are    27 symmetry adapted basis functions of A1  symmetry.
 There are     2 symmetry adapted basis functions of A2  symmetry.
 There are    11 symmetry adapted basis functions of B1  symmetry.
 There are    11 symmetry adapted basis functions of B2  symmetry.
    51 basis functions,    81 primitive gaussians,    53 cartesian basis functions
     7 alpha electrons        7 beta electrons
       nuclear repulsion energy        22.8402998038 Hartrees.
 NAtoms=    3 NActive=    3 NUniq=    3 SFac= 1.00D+00 NAtFMM=   60 NAOKFM=F Big=F
 Integral buffers will be    131072 words long.
 Raffenetti 1 integral format.
 Two-electron integral symmetry is turned on.
 One-electron integrals computed using PRISM.
 NBasis=    51 RedAO= T EigKep=  3.38D-03  NBF=    27     2    11    11
 NBsUse=    51 1.00D-06 EigRej= -1.00D+00 NBFU=    27     2    11    11
 Initial guess from the checkpoint file:  "HNC6311ppGss.chk"
 B after Tr=     0.000000    0.000000    0.000000
         Rot=    1.000000    0.000000    0.000000    0.000000 Ang=   0.00 deg.
 Initial guess orbital symmetries:
       Occupied  (SG) (SG) (SG) (SG) (SG) (PI) (PI)
       Virtual   (SG) (SG) (SG) (SG) (SG) (SG) (SG) (DLTA) (SG)
                 (SG) (DLTA) (SG) (SG) (SG) (SG) (SG) (SG) (SG)
                 (SG) (SG) (SG) (SG) (DLTA) (DLTA) (PI) (PI) (PI)
                 (PI) (PI) (PI) (PI) (PI) (PI) (PI) (PI) (PI) (PI)
                 (PI) (PI) (PI) (PI) (PI) (PI) (PI)
 ExpMin= 3.60D-02 ExpMax= 6.29D+03 ExpMxC= 9.49D+02 IAcc=3 IRadAn=         5 AccDes= 0.00D+00
 Harris functional with IExCor=  205 and IRadAn=       5 diagonalized for initial guess.
 HarFok:  IExCor=  205 AccDes= 0.00D+00 IRadAn=         5 IDoV= 1 UseB2=F ITyADJ=14
 ICtDFT=  3500011 ScaDFX=  1.000000  1.000000  1.000000  1.000000
 FoFCou: FMM=F IPFlag=           0 FMFlag=      100000 FMFlg1=           0
         NFxFlg=           0 DoJE=T BraDBF=F KetDBF=T FulRan=T
         wScrn=  0.000000 ICntrl=     500 IOpCl=  0 I1Cent=   200000004 NGrid=           0
         NMat0=    1 NMatS0=      1 NMatT0=    0 NMatD0=    1 NMtDS0=    0 NMtDT0=    0
 Petite list used in FoFCou.
 Keep R1 ints in memory in symmetry-blocked form, NReq=1746580.
 Requested convergence on RMS density matrix=1.00D-08 within 128 cycles.
 Requested convergence on MAX density matrix=1.00D-06.
 Requested convergence on             energy=1.00D-06.
 No special actions if energy rises.
 SCF Done:  E(RHF) =  -92.8801427752     A.U. after   11 cycles
            NFock= 11  Conv=0.73D-08     -V/T= 2.0051
 Calling FoFJK, ICntrl=      2127 FMM=F ISym2X=1 I1Cent= 0 IOpClX= 0 NMat=1 NMatS=1 NMatT=0.
 ***** Axes restored to original set *****
 -------------------------------------------------------------------
 Center     Atomic                   Forces (Hartrees/Bohr)
 Number     Number              X              Y              Z
 -------------------------------------------------------------------
      1        7           0.000000000    0.000000000    0.211577996
      2        6           0.000000000    0.000000000   -0.225266583
      3        1           0.000000000    0.000000000    0.013688587
 -------------------------------------------------------------------
 Cartesian Forces:  Max     0.225266583 RMS     0.103116794

 GradGradGradGradGradGradGradGradGradGradGradGradGradGradGradGradGradGrad
 Berny optimization.
 Using GEDIIS/GDIIS optimizer.
 Internal  Forces:  Max     0.211577996 RMS     0.106010171
 Search for a local minimum.
 Step number   5 out of a maximum of   20
 All quantities printed in internal units (Hartrees-Bohrs-Radians)
 Mixed Optimization -- RFO/linear search
 Update second derivatives using D2CorX and points    4    5
 DE= -8.35D-02 DEPred=-8.87D-02 R= 9.42D-01
 TightC=F SS=  1.41D+00  RLast= 5.84D-01 DXNew= 8.4853D-01 1.7512D+00
 Trust test= 9.42D-01 RLast= 5.84D-01 DXMaxT set to 8.49D-01
 The second derivative matrix:
                          R1        R2        A1        A2
           R1           0.23525
           R2           0.10249   0.19168
           A1           0.00000   0.00000   0.00230
           A2           0.00000   0.00000   0.00000   0.00230
 ITU=  1  0  0  1  0
 Use linear search instead of GDIIS.
     Eigenvalues ---    0.00230   0.00230   0.10868   0.31825
 RFO step:  Lambda=-1.35845438D-01 EMin= 2.30000000D-03
 Quartic linear search produced a step of  0.16495.
 Iteration  1 RMS(Cart)=  0.08164966 RMS(Int)=  0.22178865
 Iteration  2 RMS(Cart)=  0.07129619 RMS(Int)=  0.11836269
 Iteration  3 RMS(Cart)=  0.08164966 RMS(Int)=  0.01836269
 Iteration  4 RMS(Cart)=  0.01499307 RMS(Int)=  0.00000000
 Iteration  5 RMS(Cart)=  0.00000000 RMS(Int)=  0.00000001
 ClnCor:  largest displacement from symmetrization is 0.00D+00 for atom     0.
 Variable       Old X    -DE/DX   Delta X   Delta X   Delta X     New X
                                 (Linear)    (Quad)   (Total)
    R1        2.31145  -0.21158  -0.02875  -0.60798  -0.63673   1.67472
    R2        1.97560   0.01369  -0.09189   0.36956   0.27766   2.25326
    A1        3.14159   0.00000   0.00000   0.00000   0.00000   3.14159
    A2        3.14159   0.00000   0.00000   0.00000   0.00000   3.14159
         Item               Value     Threshold  Converged?
 Maximum Force            0.211578     0.000015     NO 
 RMS     Force            0.106010     0.000010     NO 
 Maximum Displacement     0.331929     0.000060     NO 
 RMS     Displacement     0.225729     0.000040     NO 
 Predicted change in Energy=-1.015621D-01
 GradGradGradGradGradGradGradGradGradGradGradGradGradGradGradGradGradGrad

                          Input orientation:                          
 ---------------------------------------------------------------------
 Center     Atomic      Atomic             Coordinates (Angstroms)
 Number     Number       Type             X           Y           Z
 ---------------------------------------------------------------------
      1          7           0        0.000000    0.000000    0.445058
      2          6           0        0.000000    0.000000    1.331284
      3          1           0        0.000000    0.000000    2.523658
 ---------------------------------------------------------------------
                    Distance matrix (angstroms):
                    1          2          3
     1  N    0.000000
     2  C    0.886226   0.000000
     3  H    2.078600   1.192374   0.000000
 Stoichiometry    CHN
 Framework group  C*V[C*(HCN)]
 Deg. of freedom     2
 Full point group                 C*V     NOp   4
 Largest Abelian subgroup         C2V     NOp   4
 Largest concise Abelian subgroup C1      NOp   1
                         Standard orientation:                         
 ---------------------------------------------------------------------
 Center     Atomic      Atomic             Coordinates (Angstroms)
 Number     Number       Type             X           Y           Z
 ---------------------------------------------------------------------
      1          7           0        0.000000    0.000000    0.528283
      2          6           0        0.000000    0.000000   -0.357943
      3          1           0        0.000000    0.000000   -1.550318
 ---------------------------------------------------------------------
 Rotational constants (GHZ):      0.0000000     64.9586994     64.9586994
 Standard basis: 6-311++G(d,p) (5D, 7F)
 There are    29 symmetry adapted cartesian basis functions of A1  symmetry.
 There are     2 symmetry adapted cartesian basis functions of A2  symmetry.
 There are    11 symmetry adapted cartesian basis functions of B1  symmetry.
 There are    11 symmetry adapted cartesian basis functions of B2  symmetry.
 There are    27 symmetry adapted basis functions of A1  symmetry.
 There are     2 symmetry adapted basis functions of A2  symmetry.
 There are    11 symmetry adapted basis functions of B1  symmetry.
 There are    11 symmetry adapted basis functions of B2  symmetry.
    51 basis functions,    81 primitive gaussians,    53 cartesian basis functions
     7 alpha electrons        7 beta electrons
       nuclear repulsion energy        29.5236492388 Hartrees.
 NAtoms=    3 NActive=    3 NUniq=    3 SFac= 1.00D+00 NAtFMM=   60 NAOKFM=F Big=F
 Integral buffers will be    131072 words long.
 Raffenetti 1 integral format.
 Two-electron integral symmetry is turned on.
 One-electron integrals computed using PRISM.
 NBasis=    51 RedAO= T EigKep=  9.63D-04  NBF=    27     2    11    11
 NBsUse=    51 1.00D-06 EigRej= -1.00D+00 NBFU=    27     2    11    11
 Initial guess from the checkpoint file:  "HNC6311ppGss.chk"
 B after Tr=     0.000000    0.000000    0.000000
         Rot=    1.000000    0.000000    0.000000    0.000000 Ang=   0.00 deg.
 Initial guess orbital symmetries:
       Occupied  (SG) (SG) (SG) (SG) (SG) (PI) (PI)
       Virtual   (SG) (SG) (SG) (SG) (SG) (SG) (SG) (DLTA) (SG)
                 (SG) (SG) (DLTA) (SG) (SG) (SG) (SG) (SG) (SG)
                 (SG) (SG) (SG) (SG) (DLTA) (DLTA) (PI) (PI) (PI)
                 (PI) (PI) (PI) (PI) (PI) (PI) (PI) (PI) (PI) (PI)
                 (PI) (PI) (PI) (PI) (PI) (PI) (PI)
 ExpMin= 3.60D-02 ExpMax= 6.29D+03 ExpMxC= 9.49D+02 IAcc=3 IRadAn=         5 AccDes= 0.00D+00
 Harris functional with IExCor=  205 and IRadAn=       5 diagonalized for initial guess.
 HarFok:  IExCor=  205 AccDes= 0.00D+00 IRadAn=         5 IDoV= 1 UseB2=F ITyADJ=14
 ICtDFT=  3500011 ScaDFX=  1.000000  1.000000  1.000000  1.000000
 FoFCou: FMM=F IPFlag=           0 FMFlag=      100000 FMFlg1=           0
         NFxFlg=           0 DoJE=T BraDBF=F KetDBF=T FulRan=T
         wScrn=  0.000000 ICntrl=     500 IOpCl=  0 I1Cent=   200000004 NGrid=           0
         NMat0=    1 NMatS0=      1 NMatT0=    0 NMatD0=    1 NMtDS0=    0 NMtDT0=    0
 Petite list used in FoFCou.
 Keep R1 ints in memory in symmetry-blocked form, NReq=1746712.
 Requested convergence on RMS density matrix=1.00D-08 within 128 cycles.
 Requested convergence on MAX density matrix=1.00D-06.
 Requested convergence on             energy=1.00D-06.
 No special actions if energy rises.
 SCF Done:  E(RHF) =  -92.6152101346     A.U. after   10 cycles
            NFock= 10  Conv=0.65D-08     -V/T= 1.9753
 Calling FoFJK, ICntrl=      2127 FMM=F ISym2X=1 I1Cent= 0 IOpClX= 0 NMat=1 NMatS=1 NMatT=0.
 ***** Axes restored to original set *****
 -------------------------------------------------------------------
 Center     Atomic                   Forces (Hartrees/Bohr)
 Number     Number              X              Y              Z
 -------------------------------------------------------------------
      1        7           0.000000000    0.000000000   -1.553994421
      2        6           0.000000000    0.000000000    1.636995126
      3        1           0.000000000    0.000000000   -0.083000705
 -------------------------------------------------------------------
 Cartesian Forces:  Max     1.636995126 RMS     0.752886359

 GradGradGradGradGradGradGradGradGradGradGradGradGradGradGradGradGradGrad
 Berny optimization.
 Using GEDIIS/GDIIS optimizer.
 Internal  Forces:  Max     1.553994421 RMS     0.778104713
 Search for a local minimum.
 Step number   6 out of a maximum of   20
 All quantities printed in internal units (Hartrees-Bohrs-Radians)
 Mixed Optimization -- RFO/linear search
 Update second derivatives using D2CorX and points    4    6    5
 DE=  2.65D-01 DEPred=-1.02D-01 R=-2.61D+00
 Trust test=-2.61D+00 RLast= 6.95D-01 DXMaxT set to 4.24D-01
 The second derivative matrix:
                          R1        R2        A1        A2
           R1           2.74430
           R2          -0.06558   0.19785
           A1           0.00000   0.00000   0.00230
           A2           0.00000   0.00000   0.00000   0.00230
 ITU= -1  1  0  0  1
 Use linear search instead of GDIIS.
     Eigenvalues ---    0.00230   0.00230   0.19616   2.74599
 RFO step:  Lambda=-4.35992667D-02 EMin= 2.30000000D-03
 Quartic linear search produced a step of -0.70574.
 Iteration  1 RMS(Cart)=  0.14142136 RMS(Int)=  0.13817060
 Iteration  2 RMS(Cart)=  0.08767501 RMS(Int)=  0.03751097
 Iteration  3 RMS(Cart)=  0.03062758 RMS(Int)=  0.00000000
 Iteration  4 RMS(Cart)=  0.00000000 RMS(Int)=  0.00000000
 ClnCor:  largest displacement from symmetrization is 1.51D-07 for atom     2.
 Variable       Old X    -DE/DX   Delta X   Delta X   Delta X     New X
                                 (Linear)    (Quad)   (Total)
    R1        1.67472   1.55399   0.44936   0.02566   0.47502   2.14975
    R2        2.25326  -0.08300  -0.19596   0.42293   0.22697   2.48023
    A1        3.14159   0.00000   0.00000   0.00000   0.00000   3.14159
    A2        3.14159   0.00000   0.00000   0.00000   0.00000   3.14159
         Item               Value     Threshold  Converged?
 Maximum Force            1.553994     0.000015     NO 
 RMS     Force            0.778105     0.000010     NO 
 Maximum Displacement     0.392338     0.000060     NO 
 RMS     Displacement     0.253304     0.000040     NO 
 Predicted change in Energy=-1.467646D-01
 GradGradGradGradGradGradGradGradGradGradGradGradGradGradGradGradGradGrad

                          Input orientation:                          
 ---------------------------------------------------------------------
 Center     Atomic      Atomic             Coordinates (Angstroms)
 Number     Number       Type             X           Y           Z
 ---------------------------------------------------------------------
      1          7           0        0.000000    0.000000    0.237442
      2          6           0        0.000000    0.000000    1.375038
      3          1           0        0.000000    0.000000    2.687520
 ---------------------------------------------------------------------
                    Distance matrix (angstroms):
                    1          2          3
     1  N    0.000000
     2  C    1.137597   0.000000
     3  H    2.450078   1.312482   0.000000
 Stoichiometry    CHN
 Framework group  C*V[C*(HCN)]
 Deg. of freedom     2
 Full point group                 C*V     NOp   4
 Largest Abelian subgroup         C2V     NOp   4
 Largest concise Abelian subgroup C1      NOp   1
                         Standard orientation:                         
 ---------------------------------------------------------------------
 Center     Atomic      Atomic             Coordinates (Angstroms)
 Number     Number       Type             X           Y           Z
 ---------------------------------------------------------------------
      1          7           0        0.000000    0.000000    0.662547
      2          6           0        0.000000    0.000000   -0.475050
      3          1           0        0.000000    0.000000   -1.787531
 ---------------------------------------------------------------------
 Rotational constants (GHZ):      0.0000000     42.2609740     42.2609740
 Standard basis: 6-311++G(d,p) (5D, 7F)
 There are    29 symmetry adapted cartesian basis functions of A1  symmetry.
 There are     2 symmetry adapted cartesian basis functions of A2  symmetry.
 There are    11 symmetry adapted cartesian basis functions of B1  symmetry.
 There are    11 symmetry adapted cartesian basis functions of B2  symmetry.
 There are    27 symmetry adapted basis functions of A1  symmetry.
 There are     2 symmetry adapted basis functions of A2  symmetry.
 There are    11 symmetry adapted basis functions of B1  symmetry.
 There are    11 symmetry adapted basis functions of B2  symmetry.
    51 basis functions,    81 primitive gaussians,    53 cartesian basis functions
     7 alpha electrons        7 beta electrons
       nuclear repulsion energy        23.4682072018 Hartrees.
 NAtoms=    3 NActive=    3 NUniq=    3 SFac= 1.00D+00 NAtFMM=   60 NAOKFM=F Big=F
 Integral buffers will be    131072 words long.
 Raffenetti 1 integral format.
 Two-electron integral symmetry is turned on.
 One-electron integrals computed using PRISM.
 NBasis=    51 RedAO= T EigKep=  2.99D-03  NBF=    27     2    11    11
 NBsUse=    51 1.00D-06 EigRej= -1.00D+00 NBFU=    27     2    11    11
 Lowest energy guess from the checkpoint file:  "HNC6311ppGss.chk"
 B after Tr=     0.000000    0.000000    0.000000
         Rot=    1.000000    0.000000    0.000000    0.000000 Ang=   0.00 deg.
 B after Tr=     0.000000    0.000000    0.000000
         Rot=    1.000000    0.000000    0.000000    0.000000 Ang=   0.00 deg.
 Initial guess orbital symmetries:
       Occupied  (SG) (PI) (PI) (SG) (SG) (SG) (SG)
       Virtual   (SG) (PI) (PI) (SG) (SG) (SG) (SG) (DLTA) (SG)
                 (SG) (SG) (DLTA) (SG) (SG) (SG) (SG) (SG) (SG)
                 (SG) (SG) (SG) (SG) (DLTA) (DLTA) (?A) (PI) (?A)
                 (?A) (?A) (?A) (?A) (PI) (?A) (PI) (?A) (PI) (?A)
                 (?A) (?A) (?A) (?A) (PI) (?A) (PI)
 Keep R1 ints in memory in symmetry-blocked form, NReq=1746567.
 Requested convergence on RMS density matrix=1.00D-08 within 128 cycles.
 Requested convergence on MAX density matrix=1.00D-06.
 Requested convergence on             energy=1.00D-06.
 No special actions if energy rises.
 An orbital has undefined symmetry, so N**3 symmetry is turned off.
 SCF Done:  E(RHF) =  -92.8681850459     A.U. after   10 cycles
            NFock= 10  Conv=0.69D-08     -V/T= 2.0038
 Calling FoFJK, ICntrl=      2127 FMM=F ISym2X=1 I1Cent= 0 IOpClX= 0 NMat=1 NMatS=1 NMatT=0.
 ***** Axes restored to original set *****
 -------------------------------------------------------------------
 Center     Atomic                   Forces (Hartrees/Bohr)
 Number     Number              X              Y              Z
 -------------------------------------------------------------------
      1        7           0.000000000    0.000000000    0.024162447
      2        6           0.000000000    0.000000000    0.086367134
      3        1           0.000000000    0.000000000   -0.110529582
 -------------------------------------------------------------------
 Cartesian Forces:  Max     0.110529582 RMS     0.047445752

 GradGradGradGradGradGradGradGradGradGradGradGradGradGradGradGradGradGrad
 Berny optimization.
 Using GEDIIS/GDIIS optimizer.
 Internal  Forces:  Max     0.110529582 RMS     0.056569895
 Search for a local minimum.
 Step number   7 out of a maximum of   20
 All quantities printed in internal units (Hartrees-Bohrs-Radians)
 Mixed Optimization -- RFO/linear search
 Update second derivatives using D2CorX and points    4    7    5
 DE=  1.20D-02 DEPred=-1.47D-01 R=-8.15D-02
 Trust test=-8.15D-02 RLast= 5.30D-01 DXMaxT set to 2.12D-01
 The second derivative matrix:
                          R1        R2        A1        A2
           R1           0.95825
           R2          -0.06433   0.22554
           A1           0.00000   0.00000   0.00230
           A2           0.00000   0.00000   0.00000   0.00230
 ITU= -1 -1  1  0  0
 Use linear search instead of GDIIS.
 Energy rises -- skip Quadratic/GDIIS search.
 Quartic linear search produced a step of -0.65582.
 Iteration  1 RMS(Cart)=  0.07075378 RMS(Int)=  0.06547527
 Iteration  2 RMS(Cart)=  0.05346034 RMS(Int)=  0.00000000
 Iteration  3 RMS(Cart)=  0.00000000 RMS(Int)=  0.00000000
 ClnCor:  largest displacement from symmetrization is 0.00D+00 for atom     0.
 Variable       Old X    -DE/DX   Delta X   Delta X   Delta X     New X
                                 (Linear)    (Quad)   (Total)
    R1        2.14975  -0.02416   0.10605   0.00000   0.10605   2.25579
    R2        2.48023  -0.11053  -0.33095   0.00000  -0.33095   2.14928
    A1        3.14159   0.00000   0.00000   0.00000   0.00000   3.14159
    A2        3.14159   0.00000   0.00000   0.00000   0.00000   3.14159
         Item               Value     Threshold  Converged?
 Maximum Force            0.110530     0.000015     NO 
 RMS     Force            0.056570     0.000010     NO 
 Maximum Displacement     0.185284     0.000060     NO 
 RMS     Displacement     0.119497     0.000040     NO 
 Predicted change in Energy=-2.061967D-03
 GradGradGradGradGradGradGradGradGradGradGradGradGradGradGradGradGradGrad

                          Input orientation:                          
 ---------------------------------------------------------------------
 Center     Atomic      Atomic             Coordinates (Angstroms)
 Number     Number       Type             X           Y           Z
 ---------------------------------------------------------------------
      1          7           0        0.000000    0.000000    0.258406
      2          6           0        0.000000    0.000000    1.452122
      3          1           0        0.000000    0.000000    2.589472
 ---------------------------------------------------------------------
                    Distance matrix (angstroms):
                    1          2          3
     1  N    0.000000
     2  C    1.193715   0.000000
     3  H    2.331066   1.137350   0.000000
 Stoichiometry    CHN
 Framework group  C*V[C*(HCN)]
 Deg. of freedom     2
 Full point group                 C*V     NOp   4
 Largest Abelian subgroup         C2V     NOp   4
 Largest concise Abelian subgroup C1      NOp   1
                         Standard orientation:                         
 ---------------------------------------------------------------------
 Center     Atomic      Atomic             Coordinates (Angstroms)
 Number     Number       Type             X           Y           Z
 ---------------------------------------------------------------------
      1          7           0        0.000000    0.000000    0.678097
      2          6           0        0.000000    0.000000   -0.515618
      3          1           0        0.000000    0.000000   -1.652969
 ---------------------------------------------------------------------
 Rotational constants (GHZ):      0.0000000     41.1444935     41.1444935
 Standard basis: 6-311++G(d,p) (5D, 7F)
 There are    29 symmetry adapted cartesian basis functions of A1  symmetry.
 There are     2 symmetry adapted cartesian basis functions of A2  symmetry.
 There are    11 symmetry adapted cartesian basis functions of B1  symmetry.
 There are    11 symmetry adapted cartesian basis functions of B2  symmetry.
 There are    27 symmetry adapted basis functions of A1  symmetry.
 There are     2 symmetry adapted basis functions of A2  symmetry.
 There are    11 symmetry adapted basis functions of B1  symmetry.
 There are    11 symmetry adapted basis functions of B2  symmetry.
    51 basis functions,    81 primitive gaussians,    53 cartesian basis functions
     7 alpha electrons        7 beta electrons
       nuclear repulsion energy        22.9994231253 Hartrees.
 NAtoms=    3 NActive=    3 NUniq=    3 SFac= 1.00D+00 NAtFMM=   60 NAOKFM=F Big=F
 Integral buffers will be    131072 words long.
 Raffenetti 1 integral format.
 Two-electron integral symmetry is turned on.
 One-electron integrals computed using PRISM.
 NBasis=    51 RedAO= T EigKep=  3.28D-03  NBF=    27     2    11    11
 NBsUse=    51 1.00D-06 EigRej= -1.00D+00 NBFU=    27     2    11    11
 Lowest energy guess from the checkpoint file:  "HNC6311ppGss.chk"
 B after Tr=     0.000000    0.000000    0.000000
         Rot=    1.000000    0.000000    0.000000    0.000000 Ang=   0.00 deg.
 B after Tr=     0.000000    0.000000    0.000000
         Rot=    1.000000    0.000000    0.000000    0.000000 Ang=   0.00 deg.
 Initial guess orbital symmetries:
       Occupied  (SG) (SG) (PI) (PI) (SG) (SG) (SG)
       Virtual   (SG) (SG) (PI) (PI) (SG) (SG) (SG) (DLTA) (SG)
                 (SG) (SG) (DLTA) (SG) (SG) (SG) (SG) (SG) (SG)
                 (SG) (SG) (SG) (SG) (DLTA) (DLTA) (?A) (?A) (?A)
                 (PI) (?A) (?A) (?A) (PI) (?A) (?A) (?A) (?A) (?A)
                 (PI) (?A) (?A) (?A) (PI) (?A) (?A)
 Keep R1 ints in memory in symmetry-blocked form, NReq=1746580.
 Requested convergence on RMS density matrix=1.00D-08 within 128 cycles.
 Requested convergence on MAX density matrix=1.00D-06.
 Requested convergence on             energy=1.00D-06.
 No special actions if energy rises.
 An orbital has undefined symmetry, so N**3 symmetry is turned off.
 SCF Done:  E(RHF) =  -92.8866965947     A.U. after    9 cycles
            NFock=  9  Conv=0.28D-08     -V/T= 2.0052
 Calling FoFJK, ICntrl=      2127 FMM=F ISym2X=1 I1Cent= 0 IOpClX= 0 NMat=1 NMatS=1 NMatT=0.
 ***** Axes restored to original set *****
 -------------------------------------------------------------------
 Center     Atomic                   Forces (Hartrees/Bohr)
 Number     Number              X              Y              Z
 -------------------------------------------------------------------
      1        7           0.000000000    0.000000000    0.157751724
      2        6           0.000000000    0.000000000   -0.106169101
      3        1           0.000000000    0.000000000   -0.051582623
 -------------------------------------------------------------------
 Cartesian Forces:  Max     0.157751724 RMS     0.065674493

 GradGradGradGradGradGradGradGradGradGradGradGradGradGradGradGradGradGrad
 Berny optimization.
 Using GEDIIS/GDIIS optimizer.
 Internal  Forces:  Max     0.157751724 RMS     0.082985501
 Search for a local minimum.
 Step number   8 out of a maximum of   20
 All quantities printed in internal units (Hartrees-Bohrs-Radians)
 Mixed Optimization -- RFO/linear search
 Update second derivatives using D2CorX and points    4    6    7    5    8
 The second derivative matrix:
                          R1        R2        A1        A2
           R1           1.32487
           R2           0.11463   0.41253
           A1           0.00000   0.00000   0.00230
           A2           0.00000   0.00000   0.00000   0.00230
 ITU=  0 -1 -1  1  0
 Use linear search instead of GDIIS.
     Eigenvalues ---    0.00230   0.00230   0.39835   1.33905
 RFO step:  Lambda=-2.19301357D-02 EMin= 2.30000000D-03
 Quartic linear search produced a step of -0.01514.
 Iteration  1 RMS(Cart)=  0.07075501 RMS(Int)=  0.00000000
 Iteration  2 RMS(Cart)=  0.00000000 RMS(Int)=  0.00000000
 ClnCor:  largest displacement from symmetrization is 5.95D-10 for atom     2.
 Variable       Old X    -DE/DX   Delta X   Delta X   Delta X     New X
                                 (Linear)    (Quad)   (Total)
    R1        2.25579  -0.15775   0.00084  -0.11021  -0.10937   2.14642
    R2        2.14928  -0.05158  -0.00263  -0.08783  -0.09046   2.05883
    A1        3.14159   0.00000   0.00000   0.00000   0.00000   3.14159
    A2        3.14159   0.00000   0.00000   0.00000   0.00000   3.14159
         Item               Value     Threshold  Converged?
 Maximum Force            0.157752     0.000015     NO 
 RMS     Force            0.082986     0.000010     NO 
 Maximum Displacement     0.103066     0.000060     NO 
 RMS     Displacement     0.070755     0.000040     NO 
 Predicted change in Energy=-1.117361D-02
 GradGradGradGradGradGradGradGradGradGradGradGradGradGradGradGradGradGrad

                          Input orientation:                          
 ---------------------------------------------------------------------
 Center     Atomic      Atomic             Coordinates (Angstroms)
 Number     Number       Type             X           Y           Z
 ---------------------------------------------------------------------
      1          7           0        0.000000    0.000000    0.312947
      2          6           0        0.000000    0.000000    1.448785
      3          1           0        0.000000    0.000000    2.538268
 ---------------------------------------------------------------------
                    Distance matrix (angstroms):
                    1          2          3
     1  N    0.000000
     2  C    1.135838   0.000000
     3  H    2.225322   1.089483   0.000000
 Stoichiometry    CHN
 Framework group  C*V[C*(HCN)]
 Deg. of freedom     2
 Full point group                 C*V     NOp   4
 Largest Abelian subgroup         C2V     NOp   4
 Largest concise Abelian subgroup C1      NOp   1
                         Standard orientation:                         
 ---------------------------------------------------------------------
 Center     Atomic      Atomic             Coordinates (Angstroms)
 Number     Number       Type             X           Y           Z
 ---------------------------------------------------------------------
      1          7           0        0.000000    0.000000    0.645739
      2          6           0        0.000000    0.000000   -0.490099
      3          1           0        0.000000    0.000000   -1.579582
 ---------------------------------------------------------------------
 Rotational constants (GHZ):      0.0000000     45.3466468     45.3466468
 Standard basis: 6-311++G(d,p) (5D, 7F)
 There are    29 symmetry adapted cartesian basis functions of A1  symmetry.
 There are     2 symmetry adapted cartesian basis functions of A2  symmetry.
 There are    11 symmetry adapted cartesian basis functions of B1  symmetry.
 There are    11 symmetry adapted cartesian basis functions of B2  symmetry.
 There are    27 symmetry adapted basis functions of A1  symmetry.
 There are     2 symmetry adapted basis functions of A2  symmetry.
 There are    11 symmetry adapted basis functions of B1  symmetry.
 There are    11 symmetry adapted basis functions of B2  symmetry.
    51 basis functions,    81 primitive gaussians,    53 cartesian basis functions
     7 alpha electrons        7 beta electrons
       nuclear repulsion energy        24.1463093230 Hartrees.
 NAtoms=    3 NActive=    3 NUniq=    3 SFac= 1.00D+00 NAtFMM=   60 NAOKFM=F Big=F
 Integral buffers will be    131072 words long.
 Raffenetti 1 integral format.
 Two-electron integral symmetry is turned on.
 One-electron integrals computed using PRISM.
 NBasis=    51 RedAO= T EigKep=  2.56D-03  NBF=    27     2    11    11
 NBsUse=    51 1.00D-06 EigRej= -1.00D+00 NBFU=    27     2    11    11
 Initial guess from the checkpoint file:  "HNC6311ppGss.chk"
 B after Tr=     0.000000    0.000000    0.000000
         Rot=    1.000000    0.000000    0.000000    0.000000 Ang=   0.00 deg.
 Initial guess orbital symmetries:
       Occupied  (SG) (SG) (SG) (SG) (SG) (PI) (PI)
       Virtual   (SG) (SG) (SG) (SG) (SG) (SG) (SG) (DLTA) (SG)
                 (SG) (SG) (DLTA) (SG) (SG) (SG) (SG) (SG) (SG)
                 (SG) (SG) (SG) (SG) (DLTA) (DLTA) (PI) (PI) (PI)
                 (PI) (PI) (PI) (PI) (PI) (PI) (PI) (PI) (PI) (PI)
                 (PI) (PI) (PI) (PI) (PI) (PI) (PI)
 ExpMin= 3.60D-02 ExpMax= 6.29D+03 ExpMxC= 9.49D+02 IAcc=3 IRadAn=         5 AccDes= 0.00D+00
 Harris functional with IExCor=  205 and IRadAn=       5 diagonalized for initial guess.
 HarFok:  IExCor=  205 AccDes= 0.00D+00 IRadAn=         5 IDoV= 1 UseB2=F ITyADJ=14
 ICtDFT=  3500011 ScaDFX=  1.000000  1.000000  1.000000  1.000000
 FoFCou: FMM=F IPFlag=           0 FMFlag=      100000 FMFlg1=           0
         NFxFlg=           0 DoJE=T BraDBF=F KetDBF=T FulRan=T
         wScrn=  0.000000 ICntrl=     500 IOpCl=  0 I1Cent=   200000004 NGrid=           0
         NMat0=    1 NMatS0=      1 NMatT0=    0 NMatD0=    1 NMtDS0=    0 NMtDT0=    0
 Petite list used in FoFCou.
 Keep R1 ints in memory in symmetry-blocked form, NReq=1746609.
 Requested convergence on RMS density matrix=1.00D-08 within 128 cycles.
 Requested convergence on MAX density matrix=1.00D-06.
 Requested convergence on             energy=1.00D-06.
 No special actions if energy rises.
 SCF Done:  E(RHF) =  -92.9005526402     A.U. after   10 cycles
            NFock= 10  Conv=0.20D-08     -V/T= 2.0013
 Calling FoFJK, ICntrl=      2127 FMM=F ISym2X=1 I1Cent= 0 IOpClX= 0 NMat=1 NMatS=1 NMatT=0.
 ***** Axes restored to original set *****
 -------------------------------------------------------------------
 Center     Atomic                   Forces (Hartrees/Bohr)
 Number     Number              X              Y              Z
 -------------------------------------------------------------------
      1        7           0.000000000    0.000000000    0.024162315
      2        6           0.000000000    0.000000000   -0.000573377
      3        1           0.000000000    0.000000000   -0.023588937
 -------------------------------------------------------------------
 Cartesian Forces:  Max     0.024162315 RMS     0.011257512

 GradGradGradGradGradGradGradGradGradGradGradGradGradGradGradGradGradGrad
 Berny optimization.
 Using GEDIIS/GDIIS optimizer.
 Internal  Forces:  Max     0.024162315 RMS     0.016883834
 Search for a local minimum.
 Step number   9 out of a maximum of   20
 All quantities printed in internal units (Hartrees-Bohrs-Radians)
 Mixed Optimization -- RFO/linear search
 Update second derivatives using D2CorX and points    6    7    5    8    9
 DE= -1.39D-02 DEPred=-1.12D-02 R= 1.24D+00
 TightC=F SS=  1.41D+00  RLast= 1.42D-01 DXNew= 3.5676D-01 4.2579D-01
 Trust test= 1.24D+00 RLast= 1.42D-01 DXMaxT set to 3.57D-01
 The second derivative matrix:
                          R1        R2        A1        A2
           R1           1.20085
           R2           0.02488   0.27940
           A1           0.00000   0.00000   0.00230
           A2           0.00000   0.00000   0.00000   0.00230
 ITU=  1  0 -1 -1  1
 Use linear search instead of GDIIS.
     Eigenvalues ---    0.00230   0.00230   0.27873   1.20152
 RFO step:  Lambda=-7.50445312D-04 EMin= 2.30000000D-03
 Quartic linear search produced a step of  0.22696.
 Iteration  1 RMS(Cart)=  0.03150188 RMS(Int)=  0.00000000
 Iteration  2 RMS(Cart)=  0.00000000 RMS(Int)=  0.00000000
 ClnCor:  largest displacement from symmetrization is 7.48D-10 for atom     2.
 Variable       Old X    -DE/DX   Delta X   Delta X   Delta X     New X
                                 (Linear)    (Quad)   (Total)
    R1        2.14642  -0.02416  -0.02482   0.01012  -0.01470   2.13172
    R2        2.05883  -0.02359  -0.02053  -0.04823  -0.06876   1.99007
    A1        3.14159   0.00000   0.00000   0.00000   0.00000   3.14159
    A2        3.14159   0.00000   0.00000   0.00000   0.00000   3.14159
         Item               Value     Threshold  Converged?
 Maximum Force            0.024162     0.000015     NO 
 RMS     Force            0.016884     0.000010     NO 
 Maximum Displacement     0.050738     0.000060     NO 
 RMS     Displacement     0.031502     0.000040     NO 
 Predicted change in Energy=-1.161767D-03
 GradGradGradGradGradGradGradGradGradGradGradGradGradGradGradGradGradGrad

[...]
     1  N    0.000000
     2  C    1.127125   0.000000
     3  H    2.185448   1.058323   0.000000
 Stoichiometry    CHN
 Framework group  C*V[C*(HCN)]
 Deg. of freedom     2
 Full point group                 C*V     NOp   4
 Largest Abelian subgroup         C2V     NOp   4
 Largest concise Abelian subgroup C1      NOp   1
                         Standard orientation:                         
 ---------------------------------------------------------------------
 Center     Atomic      Atomic             Coordinates (Angstroms)
 Number     Number       Type             X           Y           Z
 ---------------------------------------------------------------------
      1          7           0        0.000000    0.000000    0.639157
      2          6           0        0.000000    0.000000   -0.487968
      3          1           0        0.000000    0.000000   -1.546291
 ---------------------------------------------------------------------
 Rotational constants (GHZ):      0.0000000     46.3638757     46.3638757
 Standard basis: 6-311++G(d,p) (5D, 7F)
 There are    29 symmetry adapted cartesian basis functions of A1  symmetry.
 There are     2 symmetry adapted cartesian basis functions of A2  symmetry.
 There are    11 symmetry adapted cartesian basis functions of B1  symmetry.
 There are    11 symmetry adapted cartesian basis functions of B2  symmetry.
 There are    27 symmetry adapted basis functions of A1  symmetry.
 There are     2 symmetry adapted basis functions of A2  symmetry.
 There are    11 symmetry adapted basis functions of B1  symmetry.
 There are    11 symmetry adapted basis functions of B2  symmetry.
    51 basis functions,    81 primitive gaussians,    53 cartesian basis functions
     7 alpha electrons        7 beta electrons
       nuclear repulsion energy        24.4137476853 Hartrees.
 NAtoms=    3 NActive=    3 NUniq=    3 SFac= 1.00D+00 NAtFMM=   60 NAOKFM=F Big=F
 Integral buffers will be    131072 words long.
 Raffenetti 1 integral format.
 Two-electron integral symmetry is turned on.
 One-electron integrals computed using PRISM.
 NBasis=    51 RedAO= T EigKep=  2.41D-03  NBF=    27     2    11    11
 NBsUse=    51 1.00D-06 EigRej= -1.00D+00 NBFU=    27     2    11    11
 Initial guess from the checkpoint file:  "HNC6311ppGss.chk"
 B after Tr=     0.000000    0.000000    0.000000
         Rot=    1.000000    0.000000    0.000000    0.000000 Ang=   0.00 deg.
 Initial guess orbital symmetries:
       Occupied  (SG) (SG) (SG) (SG) (SG) (PI) (PI)
       Virtual   (SG) (SG) (SG) (SG) (SG) (SG) (SG) (DLTA) (SG)
                 (SG) (SG) (DLTA) (SG) (SG) (SG) (SG) (SG) (SG)
                 (SG) (SG) (SG) (SG) (DLTA) (DLTA) (PI) (PI) (PI)
                 (PI) (PI) (PI) (PI) (PI) (PI) (PI) (PI) (PI) (PI)
                 (PI) (PI) (PI) (PI) (PI) (PI) (PI)
 Keep R1 ints in memory in symmetry-blocked form, NReq=1746623.
 Requested convergence on RMS density matrix=1.00D-08 within 128 cycles.
 Requested convergence on MAX density matrix=1.00D-06.
 Requested convergence on             energy=1.00D-06.
 No special actions if energy rises.
 SCF Done:  E(RHF) =  -92.9014695364     A.U. after    8 cycles
            NFock=  8  Conv=0.13D-08     -V/T= 2.0002
 Calling FoFJK, ICntrl=      2127 FMM=F ISym2X=1 I1Cent= 0 IOpClX= 0 NMat=1 NMatS=1 NMatT=0.
 ***** Axes restored to original set *****
 -------------------------------------------------------------------
 Center     Atomic                   Forces (Hartrees/Bohr)
 Number     Number              X              Y              Z
 -------------------------------------------------------------------
      1        7           0.000000000    0.000000000    0.000111262
      2        6           0.000000000    0.000000000   -0.000082324
      3        1           0.000000000    0.000000000   -0.000028938
 -------------------------------------------------------------------
 Cartesian Forces:  Max     0.000111262 RMS     0.000047133

 GradGradGradGradGradGradGradGradGradGradGradGradGradGradGradGradGradGrad
 Berny optimization.
 Using GEDIIS/GDIIS optimizer.
 Internal  Forces:  Max     0.000111262 RMS     0.000057482
 Search for a local minimum.
 Step number  12 out of a maximum of   20
 All quantities printed in internal units (Hartrees-Bohrs-Radians)
 Mixed Optimization -- En-DIIS/RFO-DIIS
 Update second derivatives using D2CorX and points    8    9   10   11   12
 DE= -2.68D-06 DEPred=-2.75D-06 R= 9.75D-01
 TightC=F SS=  1.41D+00  RLast= 2.22D-03 DXNew= 6.0000D-01 6.6475D-03
 Trust test= 9.75D-01 RLast= 2.22D-03 DXMaxT set to 3.57D-01
 The second derivative matrix:
                          R1        R2        A1        A2
           R1           1.55422
           R2          -0.01483   0.43758
           A1           0.00000   0.00000   0.00230
           A2           0.00000   0.00000   0.00000   0.00230
 ITU=  1  1  1  1  0
 Use linear search instead of GDIIS.
     Eigenvalues ---    0.00230   0.00230   0.43738   1.55442
 RFO step:  Lambda= 0.00000000D+00 EMin= 2.30000000D-03
 Quartic linear search produced a step of -0.02770.
 Iteration  1 RMS(Cart)=  0.00004975 RMS(Int)=  0.00000000
 Iteration  2 RMS(Cart)=  0.00000000 RMS(Int)=  0.00000000
 ClnCor:  largest displacement from symmetrization is 0.00D+00 for atom     0.
 Variable       Old X    -DE/DX   Delta X   Delta X   Delta X     New X
                                 (Linear)    (Quad)   (Total)
    R1        2.12996  -0.00011  -0.00005  -0.00002  -0.00007   2.12989
    R2        1.99994  -0.00003   0.00004  -0.00011  -0.00007   1.99987
    A1        3.14159   0.00000   0.00000   0.00000   0.00000   3.14159
    A2        3.14159   0.00000   0.00000   0.00000   0.00000   3.14159
         Item               Value     Threshold  Converged?
 Maximum Force            0.000111     0.000015     NO 
 RMS     Force            0.000057     0.000010     NO 
 Maximum Displacement     0.000071     0.000060     NO 
 RMS     Displacement     0.000050     0.000040     NO 
 Predicted change in Energy=-5.011113D-09
 GradGradGradGradGradGradGradGradGradGradGradGradGradGradGradGradGradGrad

                          Input orientation:                          
 ---------------------------------------------------------------------
 Center     Atomic      Atomic             Coordinates (Angstroms)
 Number     Number       Type             X           Y           Z
 ---------------------------------------------------------------------
      1          7           0        0.000000    0.000000    0.329180
      2          6           0        0.000000    0.000000    1.456267
      3          1           0        0.000000    0.000000    2.514553
 ---------------------------------------------------------------------
                    Distance matrix (angstroms):
                    1          2          3
     1  N    0.000000
     2  C    1.127087   0.000000
     3  H    2.185374   1.058287   0.000000
 Stoichiometry    CHN
 Framework group  C*V[C*(HCN)]
 Deg. of freedom     2
 Full point group                 C*V     NOp   4
 Largest Abelian subgroup         C2V     NOp   4
 Largest concise Abelian subgroup C1      NOp   1
                         Standard orientation:                         
 ---------------------------------------------------------------------
 Center     Atomic      Atomic             Coordinates (Angstroms)
 Number     Number       Type             X           Y           Z
 ---------------------------------------------------------------------
      1          7           0        0.000000    0.000000    0.639135
      2          6           0        0.000000    0.000000   -0.487951
      3          1           0        0.000000    0.000000   -1.546238
 ---------------------------------------------------------------------
 Rotational constants (GHZ):      0.0000000     46.3670275     46.3670275
 Standard basis: 6-311++G(d,p) (5D, 7F)
 There are    29 symmetry adapted cartesian basis functions of A1  symmetry.
 There are     2 symmetry adapted cartesian basis functions of A2  symmetry.
 There are    11 symmetry adapted cartesian basis functions of B1  symmetry.
 There are    11 symmetry adapted cartesian basis functions of B2  symmetry.
 There are    27 symmetry adapted basis functions of A1  symmetry.
 There are     2 symmetry adapted basis functions of A2  symmetry.
 There are    11 symmetry adapted basis functions of B1  symmetry.
 There are    11 symmetry adapted basis functions of B2  symmetry.
    51 basis functions,    81 primitive gaussians,    53 cartesian basis functions
     7 alpha electrons        7 beta electrons
       nuclear repulsion energy        24.4145775042 Hartrees.
 NAtoms=    3 NActive=    3 NUniq=    3 SFac= 1.00D+00 NAtFMM=   60 NAOKFM=F Big=F
 Integral buffers will be    131072 words long.
 Raffenetti 1 integral format.
 Two-electron integral symmetry is turned on.
 One-electron integrals computed using PRISM.
 NBasis=    51 RedAO= T EigKep=  2.41D-03  NBF=    27     2    11    11
 NBsUse=    51 1.00D-06 EigRej= -1.00D+00 NBFU=    27     2    11    11
 Initial guess from the checkpoint file:  "HNC6311ppGss.chk"
 B after Tr=     0.000000    0.000000    0.000000
         Rot=    1.000000    0.000000    0.000000    0.000000 Ang=   0.00 deg.
 Initial guess orbital symmetries:
       Occupied  (SG) (SG) (SG) (SG) (SG) (PI) (PI)
       Virtual   (SG) (SG) (SG) (SG) (SG) (SG) (SG) (DLTA) (SG)
                 (SG) (SG) (DLTA) (SG) (SG) (SG) (SG) (SG) (SG)
                 (SG) (SG) (SG) (SG) (DLTA) (DLTA) (PI) (PI) (PI)
                 (PI) (PI) (PI) (PI) (PI) (PI) (PI) (PI) (PI) (PI)
                 (PI) (PI) (PI) (PI) (PI) (PI) (PI)
 Keep R1 ints in memory in symmetry-blocked form, NReq=1746623.
 Requested convergence on RMS density matrix=1.00D-08 within 128 cycles.
 Requested convergence on MAX density matrix=1.00D-06.
 Requested convergence on             energy=1.00D-06.
 No special actions if energy rises.
 SCF Done:  E(RHF) =  -92.9014695414     A.U. after    6 cycles
            NFock=  6  Conv=0.26D-08     -V/T= 2.0002
 Calling FoFJK, ICntrl=      2127 FMM=F ISym2X=1 I1Cent= 0 IOpClX= 0 NMat=1 NMatS=1 NMatT=0.
 ***** Axes restored to original set *****
 -------------------------------------------------------------------
 Center     Atomic                   Forces (Hartrees/Bohr)
 Number     Number              X              Y              Z
 -------------------------------------------------------------------
      1        7           0.000000000    0.000000000    0.000000095
      2        6           0.000000000    0.000000000   -0.000000191
      3        1           0.000000000    0.000000000    0.000000096
 -------------------------------------------------------------------
 Cartesian Forces:  Max     0.000000191 RMS     0.000000078

 GradGradGradGradGradGradGradGradGradGradGradGradGradGradGradGradGradGrad
 Berny optimization.
 Using GEDIIS/GDIIS optimizer.
 Internal  Forces:  Max     0.000000096 RMS     0.000000068
 Search for a local minimum.
 Step number  13 out of a maximum of   20
 All quantities printed in internal units (Hartrees-Bohrs-Radians)
 Mixed Optimization -- En-DIIS/RFO-DIIS
 Swapping is turned off.
 Update second derivatives using D2CorX and points    9   10   11   12   13
 DE= -5.01D-09 DEPred=-5.01D-09 R= 1.00D+00
 Trust test= 1.00D+00 RLast= 9.95D-05 DXMaxT set to 3.57D-01
 The second derivative matrix:
                          R1        R2        A1        A2
           R1           1.55090
           R2          -0.01443   0.43986
           A1           0.00000   0.00000   0.00230
           A2           0.00000   0.00000   0.00000   0.00230
 ITU=  0  1  1  1  1
     Eigenvalues ---    0.00230   0.00230   0.43967   1.55109
 En-DIIS/RFO-DIIS IScMMF=        0 using points:    13   12
 RFO step:  Lambda=-2.08783367D-14.
 DidBck=F Rises=F RFO-DIIS coefs:    1.00003   -0.00003
 Iteration  1 RMS(Cart)=  0.00000008 RMS(Int)=  0.00000000
 ClnCor:  largest displacement from symmetrization is 1.11D-16 for atom     1.
 Variable       Old X    -DE/DX   Delta X   Delta X   Delta X     New X
                                 (Linear)    (Quad)   (Total)
    R1        2.12989   0.00000   0.00000   0.00000   0.00000   2.12989
    R2        1.99987   0.00000   0.00000   0.00000   0.00000   1.99987
    A1        3.14159   0.00000   0.00000   0.00000   0.00000   3.14159
    A2        3.14159   0.00000   0.00000   0.00000   0.00000   3.14159
         Item               Value     Threshold  Converged?
 Maximum Force            0.000000     0.000015     YES
 RMS     Force            0.000000     0.000010     YES
 Maximum Displacement     0.000000     0.000060     YES
 RMS     Displacement     0.000000     0.000040     YES
 Predicted change in Energy=-1.314530D-14
 Optimization completed.
    -- Stationary point found.
                           ----------------------------
                           !   Optimized Parameters   !
                           ! (Angstroms and Degrees)  !
 --------------------------                            --------------------------
 ! Name  Definition              Value          Derivative Info.                !
 --------------------------------------------------------------------------------
 ! R1    R(1,2)                  1.1271         -DE/DX =    0.0                 !
 ! R2    R(2,3)                  1.0583         -DE/DX =    0.0                 !
 ! A1    L(1,2,3,-1,-1)        180.0            -DE/DX =    0.0                 !
 ! A2    L(1,2,3,-2,-2)        180.0            -DE/DX =    0.0                 !
 --------------------------------------------------------------------------------
 GradGradGradGradGradGradGradGradGradGradGradGradGradGradGradGradGradGrad

                          Input orientation:                          
 ---------------------------------------------------------------------
 Center     Atomic      Atomic             Coordinates (Angstroms)
 Number     Number       Type             X           Y           Z
 ---------------------------------------------------------------------
      1          7           0        0.000000    0.000000    0.329180
      2          6           0        0.000000    0.000000    1.456267
      3          1           0        0.000000    0.000000    2.514553
 ---------------------------------------------------------------------
                    Distance matrix (angstroms):
                    1          2          3
     1  N    0.000000
     2  C    1.127087   0.000000
     3  H    2.185374   1.058287   0.000000
 Stoichiometry    CHN
 Framework group  C*V[C*(HCN)]
 Deg. of freedom     2
 Full point group                 C*V     NOp   4
 Largest Abelian subgroup         C2V     NOp   4
 Largest concise Abelian subgroup C1      NOp   1
                         Standard orientation:                         
 ---------------------------------------------------------------------
 Center     Atomic      Atomic             Coordinates (Angstroms)
 Number     Number       Type             X           Y           Z
 ---------------------------------------------------------------------
      1          7           0        0.000000    0.000000    0.639135
      2          6           0        0.000000    0.000000   -0.487951
      3          1           0        0.000000    0.000000   -1.546238
 ---------------------------------------------------------------------
 Rotational constants (GHZ):      0.0000000     46.3670275     46.3670275

 **********************************************************************

            Population analysis using the SCF density.

 **********************************************************************

 Orbital symmetries:
       Occupied  (SG) (SG) (SG) (SG) (SG) (PI) (PI)
       Virtual   (SG) (SG) (PI) (PI) (SG) (PI) (PI) (SG) (PI) (PI)
                 (SG) (SG) (SG) (PI) (PI) (SG) (SG) (SG) (PI) (PI)
                 (SG) (PI) (PI) (SG) (DLTA) (DLTA) (PI) (PI) (SG)
                 (DLTA) (DLTA) (SG) (PI) (PI) (SG) (PI) (PI) (SG)
                 (SG) (PI) (PI) (SG) (SG) (SG)
 The electronic state is 1-SG.
 Alpha  occ. eigenvalues --  -15.59337 -11.28479  -1.25391  -0.81280  -0.58212
 Alpha  occ. eigenvalues --   -0.50638  -0.50638
 Alpha virt. eigenvalues --    0.03607   0.08746   0.09094   0.09094   0.16774
 Alpha virt. eigenvalues --    0.18030   0.18030   0.20978   0.28055   0.28055
 Alpha virt. eigenvalues --    0.28715   0.33975   0.53997   0.70374   0.70374
 Alpha virt. eigenvalues --    0.75200   0.95362   0.97369   1.06402   1.06402
 Alpha virt. eigenvalues --    1.32544   1.40974   1.40974   1.47712   1.49380
 Alpha virt. eigenvalues --    1.49380   2.10155   2.10155   2.27648   2.39697
 Alpha virt. eigenvalues --    2.39697   2.81707   3.00569   3.00569   3.24121
 Alpha virt. eigenvalues --    3.25360   3.25360   3.42210   3.83487   4.41599
 Alpha virt. eigenvalues --    4.41599   5.08206  25.55005  37.25335
          Condensed to atoms (all electrons):
               1          2          3
     1  N    6.556756   0.716061  -0.010235
     2  C    0.716061   4.838416   0.392301
     3  H   -0.010235   0.392301   0.408573
 Mulliken charges:
               1
     1  N   -0.262582
     2  C    0.053222
     3  H    0.209360
 Sum of Mulliken charges =   0.00000
 Mulliken charges with hydrogens summed into heavy atoms:
               1
     1  N   -0.262582
     2  C    0.262582
 Electronic spatial extent (au):  <R**2>=             48.7339
 Charge=              0.0000 electrons
 Dipole moment (field-independent basis, Debye):
    X=              0.0000    Y=              0.0000    Z=             -3.2745  Tot=              3.2745
 Quadrupole moment (field-independent basis, Debye-Ang):
   XX=            -11.8439   YY=            -11.8439   ZZ=             -9.7809
   XY=              0.0000   XZ=              0.0000   YZ=              0.0000
 Traceless Quadrupole moment (field-independent basis, Debye-Ang):
   XX=             -0.6877   YY=             -0.6877   ZZ=              1.3753
   XY=              0.0000   XZ=              0.0000   YZ=              0.0000
 Octapole moment (field-independent basis, Debye-Ang**2):
  XXX=              0.0000  YYY=              0.0000  ZZZ=             -7.9682  XYY=              0.0000
  XXY=              0.0000  XXZ=             -0.4082  XZZ=              0.0000  YZZ=              0.0000
  YYZ=             -0.4082  XYZ=              0.0000
 Hexadecapole moment (field-independent basis, Debye-Ang**3):
 XXXX=            -12.0558 YYYY=            -12.0558 ZZZZ=            -34.5530 XXXY=              0.0000
 XXXZ=              0.0000 YYYX=              0.0000 YYYZ=              0.0000 ZZZX=              0.0000
 ZZZY=              0.0000 XXYY=             -4.0186 XXZZ=             -8.9925 YYZZ=             -8.9925
 XXYZ=              0.0000 YYXZ=              0.0000 ZZXY=              0.0000
 N-N= 2.441457750420D+01 E-N=-2.664312897530D+02  KE= 9.287866783542D+01
 Symmetry A1   KE= 8.743714667913D+01
 Symmetry A2   KE=-2.153190590180D-51
 Symmetry B1   KE= 2.720760578144D+00
 Symmetry B2   KE= 2.720760578144D+00
 B after Tr=     0.000000    0.000000   -0.574532
         Rot=    1.000000    0.000000    0.000000    0.000000 Ang=   0.00 deg.
 Final structure in terms of initial Z-matrix:
 N
 C,1,B1
 H,2,B2,1,A1
      Variables:
 B1=1.12708679
 B2=1.05828683
      Constants:
 A1=180.
 1\1\GINC-TC-NODE166\FOpt\RHF\6-311++G(d,p)\C1H1N1\MAXB2\26-Sep-2016\0\
 \# opt=(modredundant,tight) RHF/6-311++g** gfp\\HNC-HCN\\0,1\N,0.,0.,0
 .329179863\C,0.,0.,1.4562666518\H,0.,0.,2.5145534851\\Version=ES64L-G0
 9RevD.01\State=1-SG\HF=-92.9014695\RMSD=2.574e-09\RMSF=7.797e-08\Dipol
 e=0.,0.,1.2882777\Quadrupole=-0.5112637,-0.5112637,1.0225273,0.,0.,0.\
 PG=C*V [C*(H1C1N1)]\\@


 GARBAGE IN, GARBAGE OUT
 Job cpu time:       0 days  0 hours  0 minutes 42.4 seconds.
 File lengths (MBytes):  RWF=     72 Int=      0 D2E=      0 Chk=      2 Scr=      1
 Normal termination of Gaussian 09 at Mon Sep 26 18:24:51 2016.
