 Entering Gaussian System, Link 0=g09
 Initial command:
 /cluster/software/gaussian/gaussian-09-D.01/g09/l1.exe "/local/scratch/epktb/Gau-16392.inp" -scrdir="/local/scratch/epktb/"
 Entering Link 1 = /cluster/software/gaussian/gaussian-09-D.01/g09/l1.exe PID=     16393.
  
 Copyright (c) 1988,1990,1992,1993,1995,1998,2003,2009,2013,
            Gaussian, Inc.  All Rights Reserved.
  
 This is part of the Gaussian(R) 09 program.  It is based on
 the Gaussian(R) 03 system (copyright 2003, Gaussian, Inc.),
 the Gaussian(R) 98 system (copyright 1998, Gaussian, Inc.),
 the Gaussian(R) 94 system (copyright 1995, Gaussian, Inc.),
 the Gaussian 92(TM) system (copyright 1992, Gaussian, Inc.),
 the Gaussian 90(TM) system (copyright 1990, Gaussian, Inc.),
 the Gaussian 88(TM) system (copyright 1988, Gaussian, Inc.),
 the Gaussian 86(TM) system (copyright 1986, Carnegie Mellon
 University), and the Gaussian 82(TM) system (copyright 1983,
 Carnegie Mellon University). Gaussian is a federally registered
 trademark of Gaussian, Inc.
  
 This software contains proprietary and confidential information,
 including trade secrets, belonging to Gaussian, Inc.
  
 This software is provided under written license and may be
 used, copied, transmitted, or stored only in accord with that
 written license.
  
 The following legend is applicable only to US Government
 contracts under FAR:
  
                    RESTRICTED RIGHTS LEGEND
  
 Use, reproduction and disclosure by the US Government is
 subject to restrictions as set forth in subparagraphs (a)
 and (c) of the Commercial Computer Software - Restricted
 Rights clause in FAR 52.227-19.
  
 Gaussian, Inc.
 340 Quinnipiac St., Bldg. 40, Wallingford CT 06492
  
  
 ---------------------------------------------------------------
 Warning -- This program may not be used in any manner that
 competes with the business of Gaussian, Inc. or will provide
 assistance to any competitor of Gaussian, Inc.  The licensee
 of this program is prohibited from giving any competitor of
 Gaussian, Inc. access to this program.  By using this program,
 the user acknowledges that Gaussian, Inc. is engaged in the
 business of creating and licensing software in the field of
 computational chemistry and represents and warrants to the
 licensee that it is not a competitor of Gaussian, Inc. and that
 it will not use this program in any manner prohibited above.
 ---------------------------------------------------------------
  

 Cite this work as:
 Gaussian 09, Revision D.01,
 M. J. Frisch, G. W. Trucks, H. B. Schlegel, G. E. Scuseria, 
 M. A. Robb, J. R. Cheeseman, G. Scalmani, V. Barone, B. Mennucci, 
 G. A. Petersson, H. Nakatsuji, M. Caricato, X. Li, H. P. Hratchian, 
 A. F. Izmaylov, J. Bloino, G. Zheng, J. L. Sonnenberg, M. Hada, 
 M. Ehara, K. Toyota, R. Fukuda, J. Hasegawa, M. Ishida, T. Nakajima, 
 Y. Honda, O. Kitao, H. Nakai, T. Vreven, J. A. Montgomery, Jr., 
 J. E. Peralta, F. Ogliaro, M. Bearpark, J. J. Heyd, E. Brothers, 
 K. N. Kudin, V. N. Staroverov, T. Keith, R. Kobayashi, J. Normand, 
 K. Raghavachari, A. Rendell, J. C. Burant, S. S. Iyengar, J. Tomasi, 
 M. Cossi, N. Rega, J. M. Millam, M. Klene, J. E. Knox, J. B. Cross, 
 V. Bakken, C. Adamo, J. Jaramillo, R. Gomperts, R. E. Stratmann, 
 O. Yazyev, A. J. Austin, R. Cammi, C. Pomelli, J. W. Ochterski, 
 R. L. Martin, K. Morokuma, V. G. Zakrzewski, G. A. Voth, 
 P. Salvador, J. J. Dannenberg, S. Dapprich, A. D. Daniels, 
 O. Farkas, J. B. Foresman, J. V. Ortiz, J. Cioslowski, 
 and D. J. Fox, Gaussian, Inc., Wallingford CT, 2013.
 
 ******************************************
 Gaussian 09:  ES64L-G09RevD.01 24-Apr-2013
                21-Oct-2016 
 ******************************************
 %mem=6GB
 %nprocshared=6
 Will use up to    6 processors via shared memory.
 %chk=h3c+-gasopt
 -----------------------------------------------------
 # opt freq=raman mp2(full)/6-311G** geom=connectivity
 -----------------------------------------------------
 1/18=20,19=15,38=1,57=2/1,3;
 2/9=110,12=2,17=6,18=5,40=1/2;
 3/5=4,6=6,7=101,11=9,16=1,25=1,30=1,71=1/1,2,3;
 4//1;
 5/5=2,38=5/2;
 8/6=4,10=90/1;
 9/15=2,16=-3/6;
 10/5=1/2;
 6/7=2,8=2,9=2,10=2/1;
 7/12=2/1,2,3,16;
 1/18=20,19=15/3(2);
 2/9=110/2;
 99//99;
 2/9=110/2;
 3/5=4,6=6,7=101,11=9,16=1,25=1,30=1,71=1/1,2,3;
 4/5=5,16=3,69=1/1;
 5/5=2,38=5/2;
 8/6=4,10=90/1;
 9/15=2,16=-3/6;
 10/5=1/2;
 7/12=2/1,2,3,16;
 1/18=20,19=15/3(-8);
 2/9=110/2;
 6/7=2,8=2,9=2,10=2/1;
 99//99;
 -------------------
 Title Card Required
 -------------------
 Symbolic Z-matrix:
 Charge =  0 Multiplicity = 2
 C
 H                    1    B1
 H                    1    B2       2    A1
 H                    1    B3       3    A2       2    D1       0
       Variables:
  B1                    1.07                     
  B2                    1.07                     
  B3                    1.07                     
  A1                  109.4712                   
  A2                  109.47122                  
  D1                 -120.                       
 
     2 tetrahedral angles replaced.

 GradGradGradGradGradGradGradGradGradGradGradGradGradGradGradGradGradGrad
 Berny optimization.
 Initialization pass.
                           ----------------------------
                           !    Initial Parameters    !
                           ! (Angstroms and Degrees)  !
 --------------------------                            --------------------------
 ! Name  Definition              Value          Derivative Info.                !
 --------------------------------------------------------------------------------
 ! R1    R(1,2)                  1.07           estimate D2E/DX2                !
 ! R2    R(1,3)                  1.07           estimate D2E/DX2                !
 ! R3    R(1,4)                  1.07           estimate D2E/DX2                !
 ! A1    A(2,1,3)              109.4712         estimate D2E/DX2                !
 ! A2    A(2,1,4)              109.4712         estimate D2E/DX2                !
 ! A3    A(3,1,4)              109.4712         estimate D2E/DX2                !
 ! D1    D(2,1,4,3)           -120.0            estimate D2E/DX2                !
 --------------------------------------------------------------------------------
 Trust Radius=3.00D-01 FncErr=1.00D-07 GrdErr=1.00D-07
 Number of steps in this run=     20 maximum allowed number of steps=    100.
 GradGradGradGradGradGradGradGradGradGradGradGradGradGradGradGradGradGrad

                          Input orientation:                          
 ---------------------------------------------------------------------
 Center     Atomic      Atomic             Coordinates (Angstroms)
 Number     Number       Type             X           Y           Z
 ---------------------------------------------------------------------
      1          6           0        0.000000    0.000000    0.000000
      2          1           0        0.000000    0.000000    1.070000
      3          1           0        1.008806    0.000000   -0.356667
      4          1           0       -0.504403   -0.873651   -0.356667
 ---------------------------------------------------------------------
                    Distance matrix (angstroms):
                    1          2          3          4
     1  C    0.000000
     2  H    1.070000   0.000000
     3  H    1.070000   1.747303   0.000000
     4  H    1.070000   1.747303   1.747303   0.000000
 Stoichiometry    CH3(2)
 Framework group  C3V[C3(C),3SGV(H)]
 Deg. of freedom     2
 Full point group                 C3V     NOp   6
 Largest Abelian subgroup         CS      NOp   2
 Largest concise Abelian subgroup CS      NOp   2
                         Standard orientation:                         
 ---------------------------------------------------------------------
 Center     Atomic      Atomic             Coordinates (Angstroms)
 Number     Number       Type             X           Y           Z
 ---------------------------------------------------------------------
      1          6           0        0.000000    0.000000    0.118889
      2          1           0        0.000000    1.008806   -0.237778
      3          1           0       -0.873651   -0.504403   -0.237778
      4          1           0        0.873651   -0.504403   -0.237778
 ---------------------------------------------------------------------
 Rotational constants (GHZ):    273.8152496    273.8152496    164.2463640
 Standard basis: 6-311G(d,p) (5D, 7F)
 There are    25 symmetry adapted cartesian basis functions of A'  symmetry.
 There are    12 symmetry adapted cartesian basis functions of A"  symmetry.
 There are    24 symmetry adapted basis functions of A'  symmetry.
 There are    12 symmetry adapted basis functions of A"  symmetry.
    36 basis functions,    56 primitive gaussians,    37 cartesian basis functions
     5 alpha electrons        4 beta electrons
       nuclear repulsion energy         9.8106078116 Hartrees.
 NAtoms=    4 NActive=    4 NUniq=    2 SFac= 4.00D+00 NAtFMM=   60 NAOKFM=F Big=F
 Integral buffers will be    131072 words long.
 Raffenetti 2 integral format.
 Two-electron integral symmetry is turned on.
 One-electron integrals computed using PRISM.
 NBasis=    36 RedAO= T EigKep=  1.76D-02  NBF=    24    12
 NBsUse=    36 1.00D-06 EigRej= -1.00D+00 NBFU=    24    12
 ExpMin= 1.03D-01 ExpMax= 4.56D+03 ExpMxC= 6.82D+02 IAcc=1 IRadAn=         1 AccDes= 0.00D+00
 Harris functional with IExCor=  205 and IRadAn=       1 diagonalized for initial guess.
 HarFok:  IExCor=  205 AccDes= 0.00D+00 IRadAn=         1 IDoV= 1 UseB2=F ITyADJ=14
 ICtDFT=  3500011 ScaDFX=  1.000000  1.000000  1.000000  1.000000
 FoFCou: FMM=F IPFlag=           0 FMFlag=      100000 FMFlg1=           0
         NFxFlg=           0 DoJE=T BraDBF=F KetDBF=T FulRan=T
         wScrn=  0.000000 ICntrl=     500 IOpCl=  0 I1Cent=   200000004 NGrid=           0
         NMat0=    1 NMatS0=      1 NMatT0=    0 NMatD0=    1 NMtDS0=    0 NMtDT0=    0
 Petite list used in FoFCou.
 Initial guess orbital symmetries:
 Alpha Orbitals:
       Occupied  (A1) (A1) (E) (E) (A1)
       Virtual   (A1) (E) (E) (E) (E) (A1) (A1) (E) (E) (A1) (E)
                 (E) (A1) (E) (E) (A2) (E) (E) (A1) (E) (E) (A1)
                 (E) (E) (E) (E) (A1) (A1) (E) (E) (A1)
 Beta  Orbitals:
       Occupied  (A1) (A1) (E) (E)
       Virtual   (A1) (A1) (E) (E) (E) (E) (A1) (A1) (E) (E) (A1)
                 (E) (E) (A1) (E) (E) (A2) (E) (E) (A1) (E) (E)
                 (A1) (E) (E) (E) (E) (A1) (A1) (E) (E) (A1)
 The electronic state of the initial guess is 2-A1.
 Initial guess <Sx>= 0.0000 <Sy>= 0.0000 <Sz>= 0.5000 <S**2>= 0.7500 S= 0.5000
 Keep R1 and R2 ints in memory in symmetry-blocked form, NReq=1084755.
 Requested convergence on RMS density matrix=1.00D-08 within 128 cycles.
 Requested convergence on MAX density matrix=1.00D-06.
 Requested convergence on             energy=1.00D-06.
 No special actions if energy rises.
 SCF Done:  E(UHF) =  -39.5621542639     A.U. after   12 cycles
            NFock= 12  Conv=0.33D-08     -V/T= 1.9988
 <Sx>= 0.0000 <Sy>= 0.0000 <Sz>= 0.5000 <S**2>= 0.7575 S= 0.5037
 <L.S>= 0.000000000000E+00
 Annihilation of the first spin contaminant:
 S**2 before annihilation     0.7575,   after     0.7500
 Range of M.O.s used for correlation:     1    36
 NBasis=    36 NAE=     5 NBE=     4 NFC=     0 NFV=     0
 NROrb=     36 NOA=     5 NOB=     4 NVA=    31 NVB=    32
 Fully direct method using O(ONN) memory.
 JobTyp=2 Pass  1:  I=   1 to   5 NPSUse=  6 ParTrn=T ParDer=T DoDerP=T.
 JobTyp=3 Pass  1:  I=   1 to   4 NPSUse=  6 ParTrn=T ParDer=T DoDerP=T.
 Spin components of T(2) and E(2):
     alpha-alpha T2 =       0.6347255766D-02 E2=     -0.1990045720D-01
     alpha-beta  T2 =       0.3469826362D-01 E2=     -0.1247088367D+00
     beta-beta   T2 =       0.2449682655D-02 E2=     -0.7918683270D-02
 (S**2,0)=  0.75746D+00           (S**2,1)=  0.75208D+00
 E(PUHF)=      -0.39564193338D+02        E(PMP2)=      -0.39715988968D+02
 ANorm=    0.1021516129D+01
 E2 =    -0.1525279772D+00 EUMP2 =    -0.39714682241117D+02
          IDoAtm=1111
          Differentiating once with respect to electric field.
                with respect to dipole field.
          Differentiating once with respect to nuclear coordinates.
 Keep R1 and R2 ints in memory in symmetry-blocked form, NReq=1068713.
          There are     1 degrees of freedom in the 1st order CPHF.  IDoFFX=0 NUNeed=     1.
 LinEq1:  Iter=  0 NonCon=     1 RMS=2.01D-03 Max=1.09D-02 NDo=     1
 AX will form     1 AO Fock derivatives at one time.
 LinEq1:  Iter=  1 NonCon=     1 RMS=6.48D-04 Max=5.89D-03 NDo=     1
 LinEq1:  Iter=  2 NonCon=     1 RMS=2.34D-04 Max=1.66D-03 NDo=     1
 LinEq1:  Iter=  3 NonCon=     1 RMS=4.14D-05 Max=2.32D-04 NDo=     1
 LinEq1:  Iter=  4 NonCon=     1 RMS=6.04D-06 Max=4.25D-05 NDo=     1
 LinEq1:  Iter=  5 NonCon=     1 RMS=9.31D-07 Max=6.51D-06 NDo=     1
 LinEq1:  Iter=  6 NonCon=     1 RMS=1.85D-07 Max=1.47D-06 NDo=     1
 LinEq1:  Iter=  7 NonCon=     1 RMS=2.96D-08 Max=2.33D-07 NDo=     1
 LinEq1:  Iter=  8 NonCon=     1 RMS=3.89D-09 Max=3.22D-08 NDo=     1
 LinEq1:  Iter=  9 NonCon=     1 RMS=3.77D-10 Max=2.44D-09 NDo=     1
 LinEq1:  Iter= 10 NonCon=     0 RMS=5.62D-11 Max=3.14D-10 NDo=     1
 Linear equations converged to 1.000D-10 1.000D-09 after    10 iterations.
 End of Minotr F.D. properties file   721 does not exist.
 End of Minotr F.D. properties file   722 does not exist.
 End of Minotr F.D. properties file   788 does not exist.

 **********************************************************************

            Population analysis using the SCF density.

 **********************************************************************

 Orbital symmetries:
 Alpha Orbitals:
       Occupied  (A1) (A1) (E) (E) (A1)
       Virtual   (A1) (E) (E) (E) (E) (A1) (A1) (E) (E) (A1) (E)
                 (E) (A1) (E) (E) (A2) (E) (E) (A1) (E) (E) (A1)
                 (E) (E) (E) (E) (A1) (A1) (E) (E) (A1)
 Beta  Orbitals:
       Occupied  (A1) (A1) (E) (E)
       Virtual   (A1) (A1) (E) (E) (E) (E) (A1) (A1) (E) (E) (A1)
                 (E) (E) (A1) (E) (E) (A2) (E) (E) (A1) (E) (E)
                 (A1) (E) (E) (E) (E) (A1) (A1) (E) (E) (A1)
 The electronic state is 2-A1.
 Alpha  occ. eigenvalues --  -11.23619  -0.95835  -0.56843  -0.56843  -0.42672
 Alpha virt. eigenvalues --    0.16461   0.23134   0.23134   0.43172   0.43172
 Alpha virt. eigenvalues --    0.54690   0.64003   0.80546   0.80546   0.88540
 Alpha virt. eigenvalues --    1.23855   1.23855   1.56565   1.71054   1.71054
 Alpha virt. eigenvalues --    1.73150   1.94469   1.94469   2.19546   2.45347
 Alpha virt. eigenvalues --    2.45347   2.61108   2.67588   2.67588   2.91206
 Alpha virt. eigenvalues --    2.91206   2.99472   3.17097   4.16008   4.16008
 Alpha virt. eigenvalues --   25.08274
  Beta  occ. eigenvalues --  -11.21047  -0.87776  -0.54940  -0.54940
  Beta virt. eigenvalues --    0.11665   0.17265   0.23946   0.23946   0.44658
  Beta virt. eigenvalues --    0.44658   0.62567   0.72298   0.82797   0.82797
  Beta virt. eigenvalues --    0.91444   1.27971   1.27971   1.64329   1.72622
  Beta virt. eigenvalues --    1.72622   1.72885   1.97026   1.97026   2.22276
  Beta virt. eigenvalues --    2.47539   2.47539   2.61586   2.68030   2.68030
  Beta virt. eigenvalues --    2.92688   2.92688   3.01269   3.24322   4.17712
  Beta virt. eigenvalues --    4.17712  25.10146
          Condensed to atoms (all electrons):
               1          2          3          4
     1  C    5.082727   0.402274   0.402274   0.402274
     2  H    0.402274   0.565494  -0.032142  -0.032142
     3  H    0.402274  -0.032142   0.565494  -0.032142
     4  H    0.402274  -0.032142  -0.032142   0.565494
          Atomic-Atomic Spin Densities.
               1          2          3          4
     1  C    1.233810  -0.011567  -0.011567  -0.011567
     2  H   -0.011567  -0.066302   0.005750   0.005750
     3  H   -0.011567   0.005750  -0.066302   0.005750
     4  H   -0.011567   0.005750   0.005750  -0.066302
 Mulliken charges and spin densities:
               1          2
     1  C   -0.289549   1.199108
     2  H    0.096516  -0.066369
     3  H    0.096516  -0.066369
     4  H    0.096516  -0.066369
 Sum of Mulliken charges =   0.00000   1.00000
 Mulliken charges and spin densities with hydrogens summed into heavy atoms:
               1          2
     1  C    0.000000   1.000000
 Electronic spatial extent (au):  <R**2>=             29.2337
 Charge=              0.0000 electrons
 Dipole moment (field-independent basis, Debye):
    X=              0.0000    Y=              0.0000    Z=             -0.6056  Tot=              0.6056
 Quadrupole moment (field-independent basis, Debye-Ang):
   XX=             -7.5385   YY=             -7.5385   ZZ=             -8.3568
   XY=              0.0000   XZ=              0.0000   YZ=              0.0000
 Traceless Quadrupole moment (field-independent basis, Debye-Ang):
   XX=              0.2727   YY=              0.2727   ZZ=             -0.5455
   XY=              0.0000   XZ=              0.0000   YZ=              0.0000
 Octapole moment (field-independent basis, Debye-Ang**2):
  XXX=              0.0000  YYY=              0.5578  ZZZ=             -0.9734  XYY=              0.0000
  XXY=             -0.5578  XXZ=             -0.6445  XZZ=              0.0000  YZZ=              0.0000
  YYZ=             -0.6445  XYZ=              0.0000
 Hexadecapole moment (field-independent basis, Debye-Ang**3):
 XXXX=            -14.4423 YYYY=            -14.4423 ZZZZ=            -10.4780 XXXY=              0.0000
 XXXZ=              0.0000 YYYX=              0.0000 YYYZ=             -0.3016 ZZZX=              0.0000
 ZZZY=              0.0000 XXYY=             -4.8141 XXZZ=             -4.2309 YYZZ=             -4.2309
 XXYZ=              0.3016 YYXZ=              0.0000 ZZXY=              0.0000
 N-N= 9.810607811634D+00 E-N=-1.114114005740D+02  KE= 3.961101436078D+01
 Symmetry A'   KE= 3.765458108743D+01
 Symmetry A"   KE= 1.956433273349D+00
                          Isotropic Fermi Contact Couplings
        Atom                 a.u.       MegaHertz       Gauss      10(-4) cm-1
     1  C(13)              0.29318     329.58626     117.60457     109.93814
     2  H(1)              -0.00727     -32.51358     -11.60165     -10.84536
     3  H(1)              -0.00727     -32.51358     -11.60165     -10.84536
     4  H(1)              -0.00727     -32.51358     -11.60165     -10.84536
 --------------------------------------------------------
       Center         ----  Spin Dipole Couplings  ----
                      3XX-RR        3YY-RR        3ZZ-RR
 --------------------------------------------------------
     1   Atom       -0.501738     -0.501738      1.003477
     2   Atom       -0.067245      0.061702      0.005543
     3   Atom        0.029465     -0.035008      0.005543
     4   Atom        0.029465     -0.035008      0.005543
 --------------------------------------------------------
                        XY            XZ            YZ
 --------------------------------------------------------
     1   Atom        0.000000      0.000000      0.000000
     2   Atom        0.000000      0.000000     -0.031273
     3   Atom        0.055835      0.027083      0.015636
     4   Atom       -0.055835     -0.027083      0.015636
 --------------------------------------------------------


 ---------------------------------------------------------------------------------
              Anisotropic Spin Dipole Couplings in Principal Axis System
 ---------------------------------------------------------------------------------

       Atom             a.u.   MegaHertz   Gauss  10(-4) cm-1        Axes

              Baa    -0.5017   -67.328   -24.024   -22.458 -0.0213  0.9998  0.0000
     1 C(13)  Bbb    -0.5017   -67.328   -24.024   -22.458  0.9998  0.0213  0.0000
              Bcc     1.0035   134.657    48.049    44.917  0.0000  0.0000  1.0000
 
              Baa    -0.0672   -35.878   -12.802   -11.968  1.0000  0.0000  0.0000
     2 H(1)   Bbb    -0.0084    -4.486    -1.601    -1.496  0.0000  0.4074  0.9133
              Bcc     0.0757    40.364    14.403    13.464  0.0000  0.9133 -0.4074
 
              Baa    -0.0672   -35.878   -12.802   -11.968 -0.5000  0.8660  0.0000
     3 H(1)   Bbb    -0.0084    -4.486    -1.601    -1.496 -0.3528 -0.2037  0.9133
              Bcc     0.0757    40.364    14.403    13.464  0.7909  0.4566  0.4074
 
              Baa    -0.0672   -35.878   -12.802   -11.968  0.5000  0.8660  0.0000
     4 H(1)   Bbb    -0.0084    -4.486    -1.601    -1.496  0.3528 -0.2037  0.9133
              Bcc     0.0757    40.364    14.403    13.464  0.7909 -0.4566 -0.4074
 

 ---------------------------------------------------------------------------------

 Calling FoFJK, ICntrl=  10002127 FMM=F ISym2X=1 I1Cent= 0 IOpClX= 1 NMat=1 NMatS=1 NMatT=0.
 ***** Axes restored to original set *****
 -------------------------------------------------------------------
 Center     Atomic                   Forces (Hartrees/Bohr)
 Number     Number              X              Y              Z
 -------------------------------------------------------------------
      1        6           0.014263121   -0.024704450    0.010085549
      2        1          -0.007749986    0.013423371    0.013583896
      3        1           0.010223691    0.013423370   -0.011834723
      4        1          -0.016736825   -0.002142291   -0.011834723
 -------------------------------------------------------------------
 Cartesian Forces:  Max     0.024704450 RMS     0.013508574

 GradGradGradGradGradGradGradGradGradGradGradGradGradGradGradGradGradGrad
 Berny optimization.
 FormGI is forming the generalized inverse of G from B-inverse, IUseBI=4.
 Internal  Forces:  Max     0.023621412 RMS     0.015523924
 Search for a local minimum.
 Step number   1 out of a maximum of   20
 All quantities printed in internal units (Hartrees-Bohrs-Radians)
 Mixed Optimization -- RFO/linear search
 Second derivative matrix not updated -- first step.
 The second derivative matrix:
                          R1        R2        R3        A1        A2
           R1           0.37230
           R2           0.00000   0.37230
           R3           0.00000   0.00000   0.37230
           A1           0.00000   0.00000   0.00000   0.16000
           A2           0.00000   0.00000   0.00000   0.00000   0.16000
           A3           0.00000   0.00000   0.00000   0.00000   0.00000
           D1           0.00000   0.00000   0.00000   0.00000   0.00000
                          A3        D1
           A3           0.16000
           D1           0.00000   0.00499
 ITU=  0
     Eigenvalues ---    0.05269   0.16000   0.16000   0.37230   0.37230
     Eigenvalues ---    0.37230
 RFO step:  Lambda=-1.51741572D-02 EMin= 5.26880960D-02
 Linear search not attempted -- first point.
 Iteration  1 RMS(Cart)=  0.09272536 RMS(Int)=  0.05070064
 Iteration  2 RMS(Cart)=  0.02535892 RMS(Int)=  0.02201577
 Iteration  3 RMS(Cart)=  0.00153911 RMS(Int)=  0.02194690
 Iteration  4 RMS(Cart)=  0.00004695 RMS(Int)=  0.02194681
 Iteration  5 RMS(Cart)=  0.00000198 RMS(Int)=  0.02194681
 Iteration  6 RMS(Cart)=  0.00000008 RMS(Int)=  0.02194681
 ClnCor:  largest displacement from symmetrization is 1.63D-02 for atom     4.
 Variable       Old X    -DE/DX   Delta X   Delta X   Delta X     New X
                                 (Linear)    (Quad)   (Total)
    R1        2.02201   0.01358   0.00000   0.03506   0.03021   2.05221
    R2        2.02201   0.01358   0.00000   0.03506   0.03021   2.05221
    R3        2.02201   0.01358   0.00000   0.03506   0.03021   2.05221
    A1        1.91063   0.00241   0.00000   0.12983   0.11413   2.02477
    A2        1.91063   0.01688   0.00000   0.15437   0.11413   2.02477
    A3        1.91063   0.01688   0.00000   0.15437   0.11413   2.02477
    D1       -2.09440  -0.02362   0.00000  -0.34808  -0.37277  -2.46716
         Item               Value     Threshold  Converged?
 Maximum Force            0.023621     0.000450     NO 
 RMS     Force            0.015524     0.000300     NO 
 Maximum Displacement     0.159316     0.001800     NO 
 RMS     Displacement     0.108370     0.001200     NO 
 Predicted change in Energy=-1.018079D-02
 GradGradGradGradGradGradGradGradGradGradGradGradGradGradGradGradGradGrad

                          Input orientation:                          
 ---------------------------------------------------------------------
 Center     Atomic      Atomic             Coordinates (Angstroms)
 Number     Number       Type             X           Y           Z
 ---------------------------------------------------------------------
      1          6           0        0.048674   -0.084306    0.034418
      2          1           0       -0.024948    0.043212    1.110374
      3          1           0        1.038555    0.043212   -0.393646
      4          1           0       -0.556700   -0.877809   -0.393646
 ---------------------------------------------------------------------
                    Distance matrix (angstroms):
                    1          2          3          4
     1  C    0.000000
     2  H    1.085985   0.000000
     3  H    1.085985   1.842042   0.000000
     4  H    1.085985   1.842042   1.842042   0.000000
 Stoichiometry    CH3(2)
 Framework group  C3V[C3(C),3SGV(H)]
 Deg. of freedom     2
 Full point group                 C3V     NOp   6
 Largest Abelian subgroup         CS      NOp   2
 Largest concise Abelian subgroup CS      NOp   2
                         Standard orientation:                         
 ---------------------------------------------------------------------
 Center     Atomic      Atomic             Coordinates (Angstroms)
 Number     Number       Type             X           Y           Z
 ---------------------------------------------------------------------
      1          6           0        0.000000    0.000000    0.073276
      2          1           0        0.000000    1.063503   -0.146552
      3          1           0       -0.921021   -0.531752   -0.146552
      4          1           0        0.921021   -0.531752   -0.146552
 ---------------------------------------------------------------------
 Rotational constants (GHZ):    276.6869348    276.6869348    147.7859666
 Standard basis: 6-311G(d,p) (5D, 7F)
 There are    25 symmetry adapted cartesian basis functions of A'  symmetry.
 There are    12 symmetry adapted cartesian basis functions of A"  symmetry.
 There are    24 symmetry adapted basis functions of A'  symmetry.
 There are    12 symmetry adapted basis functions of A"  symmetry.
    36 basis functions,    56 primitive gaussians,    37 cartesian basis functions
     5 alpha electrons        4 beta electrons
       nuclear repulsion energy         9.6328472368 Hartrees.
 NAtoms=    4 NActive=    4 NUniq=    2 SFac= 4.00D+00 NAtFMM=   60 NAOKFM=F Big=F
 Integral buffers will be    131072 words long.
 Raffenetti 2 integral format.
 Two-electron integral symmetry is turned on.
 One-electron integrals computed using PRISM.
 NBasis=    36 RedAO= T EigKep=  2.08D-02  NBF=    24    12
 NBsUse=    36 1.00D-06 EigRej= -1.00D+00 NBFU=    24    12
 Initial guess from the checkpoint file:  "h3c+-gasopt.chk"
 B after Tr=     0.000000    0.000000    0.000000
         Rot=    1.000000    0.000000    0.000000    0.000000 Ang=   0.00 deg.
 Initial guess orbital symmetries:
 Alpha Orbitals:
       Occupied  (A1) (A1) (E) (E) (A1)
       Virtual   (?A) (?A) (?A) (?A) (?A) (?A) (?A) (?A) (?A) (?A)
                 (?A) (?A) (?A) (?A) (?A) (?A) (?A) (?A) (?A) (?A)
                 (?A) (?A) (?A) (?A) (?A) (?A) (?A) (?A) (?A) (?A)
                 (?A)
 Beta  Orbitals:
       Occupied  (A1) (A1) (E) (E)
       Virtual   (?A) (?A) (?A) (?A) (?A) (?A) (?A) (?A) (?A) (?A)
                 (?A) (?A) (?A) (?A) (?A) (?A) (?A) (?A) (?A) (?A)
                 (?A) (?A) (?A) (?A) (?A) (?A) (?A) (?A) (?A) (?A)
                 (?A) (?A)
 Initial guess <Sx>= 0.0000 <Sy>= 0.0000 <Sz>= 0.5000 <S**2>= 0.7582 S= 0.5041
 ExpMin= 1.03D-01 ExpMax= 4.56D+03 ExpMxC= 6.82D+02 IAcc=1 IRadAn=         1 AccDes= 0.00D+00
 Harris functional with IExCor=  205 and IRadAn=       1 diagonalized for initial guess.
 HarFok:  IExCor=  205 AccDes= 0.00D+00 IRadAn=         1 IDoV= 1 UseB2=F ITyADJ=14
 ICtDFT=  3500011 ScaDFX=  1.000000  1.000000  1.000000  1.000000
 FoFCou: FMM=F IPFlag=           0 FMFlag=      100000 FMFlg1=           0
         NFxFlg=           0 DoJE=T BraDBF=F KetDBF=T FulRan=T
         wScrn=  0.000000 ICntrl=     500 IOpCl=  0 I1Cent=   200000004 NGrid=           0
         NMat0=    1 NMatS0=      1 NMatT0=    0 NMatD0=    1 NMtDS0=    0 NMtDT0=    0
 Petite list used in FoFCou.
 Keep R1 and R2 ints in memory in symmetry-blocked form, NReq=1084755.
 Requested convergence on RMS density matrix=1.00D-08 within 128 cycles.
 Requested convergence on MAX density matrix=1.00D-06.
 Requested convergence on             energy=1.00D-06.
 No special actions if energy rises.
 SCF Done:  E(UHF) =  -39.5705606912     A.U. after   12 cycles
            NFock= 12  Conv=0.79D-08     -V/T= 2.0011
 <Sx>= 0.0000 <Sy>= 0.0000 <Sz>= 0.5000 <S**2>= 0.7595 S= 0.5047
 <L.S>= 0.000000000000E+00
 Annihilation of the first spin contaminant:
 S**2 before annihilation     0.7595,   after     0.7501
 Range of M.O.s used for correlation:     1    36
 NBasis=    36 NAE=     5 NBE=     4 NFC=     0 NFV=     0
 NROrb=     36 NOA=     5 NOB=     4 NVA=    31 NVB=    32
 Fully direct method using O(ONN) memory.
 JobTyp=2 Pass  1:  I=   1 to   5 NPSUse=  6 ParTrn=T ParDer=T DoDerP=T.
 JobTyp=3 Pass  1:  I=   1 to   4 NPSUse=  6 ParTrn=T ParDer=T DoDerP=T.
 Spin components of T(2) and E(2):
     alpha-alpha T2 =       0.6482914382D-02 E2=     -0.2013569523D-01
     alpha-beta  T2 =       0.3513201702D-01 E2=     -0.1249905104D+00
     beta-beta   T2 =       0.2379361904D-02 E2=     -0.7603392538D-02
 (S**2,0)=  0.75946D+00           (S**2,1)=  0.75270D+00
 E(PUHF)=      -0.39573073014D+02        E(PMP2)=      -0.39724908182D+02
 ANorm=    0.1021760389D+01
 E2 =    -0.1527295982D+00 EUMP2 =    -0.39723290289397D+02
          IDoAtm=1111
          Differentiating once with respect to electric field.
                with respect to dipole field.
          Differentiating once with respect to nuclear coordinates.
 Keep R1 and R2 ints in memory in symmetry-blocked form, NReq=1068713.
          There are     1 degrees of freedom in the 1st order CPHF.  IDoFFX=0 NUNeed=     1.
 LinEq1:  Iter=  0 NonCon=     1 RMS=2.04D-03 Max=1.15D-02 NDo=     1
 AX will form     1 AO Fock derivatives at one time.
 LinEq1:  Iter=  1 NonCon=     1 RMS=6.88D-04 Max=4.82D-03 NDo=     1
 LinEq1:  Iter=  2 NonCon=     1 RMS=2.54D-04 Max=1.80D-03 NDo=     1
 LinEq1:  Iter=  3 NonCon=     1 RMS=4.14D-05 Max=2.30D-04 NDo=     1
 LinEq1:  Iter=  4 NonCon=     1 RMS=5.94D-06 Max=3.60D-05 NDo=     1
 LinEq1:  Iter=  5 NonCon=     1 RMS=8.55D-07 Max=7.48D-06 NDo=     1
 LinEq1:  Iter=  6 NonCon=     1 RMS=1.57D-07 Max=1.28D-06 NDo=     1
 LinEq1:  Iter=  7 NonCon=     1 RMS=2.94D-08 Max=2.55D-07 NDo=     1
 LinEq1:  Iter=  8 NonCon=     1 RMS=3.96D-09 Max=3.29D-08 NDo=     1
 LinEq1:  Iter=  9 NonCon=     1 RMS=4.43D-10 Max=2.75D-09 NDo=     1
 LinEq1:  Iter= 10 NonCon=     0 RMS=5.59D-11 Max=3.41D-10 NDo=     1
 Linear equations converged to 1.000D-10 1.000D-09 after    10 iterations.
 End of Minotr F.D. properties file   721 does not exist.
 End of Minotr F.D. properties file   722 does not exist.
 End of Minotr F.D. properties file   788 does not exist.
 Calling FoFJK, ICntrl=  10002127 FMM=F ISym2X=1 I1Cent= 0 IOpClX= 1 NMat=1 NMatS=1 NMatT=0.
 ***** Axes restored to original set *****
 -------------------------------------------------------------------
 Center     Atomic                   Forces (Hartrees/Bohr)
 Number     Number              X              Y              Z
 -------------------------------------------------------------------
      1        6           0.007638234   -0.013229810    0.005401047
      2        1          -0.002361252    0.004089808   -0.002845886
      3        1          -0.003470211    0.004089808   -0.001277581
      4        1          -0.001806772    0.005050195   -0.001277581
 -------------------------------------------------------------------
 Cartesian Forces:  Max     0.013229810 RMS     0.005429435

 GradGradGradGradGradGradGradGradGradGradGradGradGradGradGradGradGradGrad
 Berny optimization.
 Using GEDIIS/GDIIS optimizer.
 FormGI is forming the generalized inverse of G from B-inverse, IUseBI=4.
 Internal  Forces:  Max     0.008909184 RMS     0.004062641
 Search for a local minimum.
 Step number   2 out of a maximum of   20
 All quantities printed in internal units (Hartrees-Bohrs-Radians)
 Mixed Optimization -- RFO/linear search
 Update second derivatives using D2CorX and points    1    2
 DE= -8.61D-03 DEPred=-1.02D-02 R= 8.46D-01
 TightC=F SS=  1.41D+00  RLast= 4.25D-01 DXNew= 5.0454D-01 1.2755D+00
 Trust test= 8.46D-01 RLast= 4.25D-01 DXMaxT set to 5.05D-01
 The second derivative matrix:
                          R1        R2        R3        A1        A2
           R1           0.38054
           R2           0.00824   0.38054
           R3           0.00824   0.00824   0.38054
           A1          -0.02184  -0.02184  -0.02184   0.11878
           A2          -0.00503  -0.00503  -0.00503  -0.03847   0.13600
           A3          -0.00503  -0.00503  -0.00503  -0.03847  -0.02400
           D1          -0.01988  -0.01988  -0.01988   0.00059  -0.01510
                          A3        D1
           A3           0.13600
           D1          -0.01510   0.02556
 ITU=  1  0
 Use linear search instead of GDIIS.
     Eigenvalues ---    0.03765   0.16000   0.16939   0.37230   0.37230
     Eigenvalues ---    0.39998
 RFO step:  Lambda=-1.33242465D-03 EMin= 3.76496719D-02
 Quartic linear search produced a step of  0.56489.
 Iteration  1 RMS(Cart)=  0.04942189 RMS(Int)=  0.04267296
 Iteration  2 RMS(Cart)=  0.01936555 RMS(Int)=  0.02249431
 Iteration  3 RMS(Cart)=  0.00099889 RMS(Int)=  0.02245461
 Iteration  4 RMS(Cart)=  0.00002595 RMS(Int)=  0.02245457
 Iteration  5 RMS(Cart)=  0.00000091 RMS(Int)=  0.02245457
 ClnCor:  largest displacement from symmetrization is 1.18D-02 for atom     4.
 Variable       Old X    -DE/DX   Delta X   Delta X   Delta X     New X
                                 (Linear)    (Quad)   (Total)
    R1        2.05221  -0.00218   0.01706  -0.02955  -0.00873   2.04349
    R2        2.05221  -0.00218   0.01706  -0.02955  -0.00873   2.04349
    R3        2.05221  -0.00218   0.01706  -0.02955  -0.00873   2.04349
    A1        2.02477  -0.00017   0.06447   0.03896   0.05107   2.07583
    A2        2.02477   0.00331   0.06447   0.01072   0.05107   2.07583
    A3        2.02477   0.00331   0.06447   0.01072   0.05107   2.07583
    D1       -2.46716  -0.00891  -0.21057  -0.09926  -0.31867  -2.78583
         Item               Value     Threshold  Converged?
 Maximum Force            0.008909     0.000450     NO 
 RMS     Force            0.004063     0.000300     NO 
 Maximum Displacement     0.124175     0.001800     NO 
 RMS     Displacement     0.068191     0.001200     NO 
 Predicted change in Energy=-1.276851D-03
 GradGradGradGradGradGradGradGradGradGradGradGradGradGradGradGradGradGrad

                          Input orientation:                          
 ---------------------------------------------------------------------
 Center     Atomic      Atomic             Coordinates (Angstroms)
 Number     Number       Type             X           Y           Z
 ---------------------------------------------------------------------
      1          6           0        0.086612   -0.150017    0.061244
      2          1           0       -0.039731    0.068816    1.112673
      3          1           0        1.035795    0.068816   -0.408350
      4          1           0       -0.577494   -0.862617   -0.408350
 ---------------------------------------------------------------------
                    Distance matrix (angstroms):
                    1          2          3          4
     1  C    0.000000
     2  H    1.081367   0.000000
     3  H    1.081367   1.862865   0.000000
     4  H    1.081367   1.862865   1.862865   0.000000
 Stoichiometry    CH3(2)
 Framework group  C3V[C3(C),3SGV(H)]
 Deg. of freedom     2
 Full point group                 C3V     NOp   6
 Largest Abelian subgroup         CS      NOp   2
 Largest concise Abelian subgroup CS      NOp   2
                         Standard orientation:                         
 ---------------------------------------------------------------------
 Center     Atomic      Atomic             Coordinates (Angstroms)
 Number     Number       Type             X           Y           Z
 ---------------------------------------------------------------------
      1          6           0        0.000000    0.000000    0.037414
      2          1           0        0.000000    1.075526   -0.074828
      3          1           0       -0.931433   -0.537763   -0.074828
      4          1           0        0.931433   -0.537763   -0.074828
 ---------------------------------------------------------------------
 Rotational constants (GHZ):    284.0587206    284.0587206    144.5004185
 Standard basis: 6-311G(d,p) (5D, 7F)
 There are    25 symmetry adapted cartesian basis functions of A'  symmetry.
 There are    12 symmetry adapted cartesian basis functions of A"  symmetry.
 There are    24 symmetry adapted basis functions of A'  symmetry.
 There are    12 symmetry adapted basis functions of A"  symmetry.
    36 basis functions,    56 primitive gaussians,    37 cartesian basis functions
     5 alpha electrons        4 beta electrons
       nuclear repulsion energy         9.6606721375 Hartrees.
 NAtoms=    4 NActive=    4 NUniq=    2 SFac= 4.00D+00 NAtFMM=   60 NAOKFM=F Big=F
 Integral buffers will be    131072 words long.
 Raffenetti 2 integral format.
 Two-electron integral symmetry is turned on.
 One-electron integrals computed using PRISM.
 NBasis=    36 RedAO= T EigKep=  2.05D-02  NBF=    24    12
 NBsUse=    36 1.00D-06 EigRej= -1.00D+00 NBFU=    24    12
 Initial guess from the checkpoint file:  "h3c+-gasopt.chk"
 B after Tr=     0.000000    0.000000    0.000000
         Rot=    1.000000    0.000000    0.000000    0.000000 Ang=   0.00 deg.
 Initial guess orbital symmetries:
 Alpha Orbitals:
       Occupied  (A1) (A1) (E) (E) (A1)
       Virtual   (?A) (?A) (?A) (?A) (?A) (?A) (?A) (?A) (?A) (?A)
                 (?A) (?A) (?A) (?A) (?A) (?A) (?A) (?A) (?A) (?A)
                 (?A) (?A) (?A) (?A) (?A) (?A) (?A) (?A) (?A) (?A)
                 (?A)
 Beta  Orbitals:
       Occupied  (A1) (A1) (E) (E)
       Virtual   (?A) (?A) (?A) (?A) (?A) (?A) (?A) (?A) (?A) (?A)
                 (?A) (?A) (?A) (?A) (?A) (?A) (?A) (?A) (?A) (?A)
                 (?A) (?A) (?A) (?A) (?A) (?A) (?A) (?A) (?A) (?A)
                 (?A) (?A)
 Initial guess <Sx>= 0.0000 <Sy>= 0.0000 <Sz>= 0.5000 <S**2>= 0.7598 S= 0.5049
 ExpMin= 1.03D-01 ExpMax= 4.56D+03 ExpMxC= 6.82D+02 IAcc=1 IRadAn=         1 AccDes= 0.00D+00
 Harris functional with IExCor=  205 and IRadAn=       1 diagonalized for initial guess.
 HarFok:  IExCor=  205 AccDes= 0.00D+00 IRadAn=         1 IDoV= 1 UseB2=F ITyADJ=14
 ICtDFT=  3500011 ScaDFX=  1.000000  1.000000  1.000000  1.000000
 FoFCou: FMM=F IPFlag=           0 FMFlag=      100000 FMFlg1=           0
         NFxFlg=           0 DoJE=T BraDBF=F KetDBF=T FulRan=T
         wScrn=  0.000000 ICntrl=     500 IOpCl=  0 I1Cent=   200000004 NGrid=           0
         NMat0=    1 NMatS0=      1 NMatT0=    0 NMatD0=    1 NMtDS0=    0 NMtDT0=    0
 Petite list used in FoFCou.
 Keep R1 and R2 ints in memory in symmetry-blocked form, NReq=1084755.
 Requested convergence on RMS density matrix=1.00D-08 within 128 cycles.
 Requested convergence on MAX density matrix=1.00D-06.
 Requested convergence on             energy=1.00D-06.
 No special actions if energy rises.
 SCF Done:  E(UHF) =  -39.5724502282     A.U. after   12 cycles
            NFock= 12  Conv=0.12D-08     -V/T= 2.0009
 <Sx>= 0.0000 <Sy>= 0.0000 <Sz>= 0.5000 <S**2>= 0.7609 S= 0.5054
 <L.S>= 0.000000000000E+00
 Annihilation of the first spin contaminant:
 S**2 before annihilation     0.7609,   after     0.7501
 Range of M.O.s used for correlation:     1    36
 NBasis=    36 NAE=     5 NBE=     4 NFC=     0 NFV=     0
 NROrb=     36 NOA=     5 NOB=     4 NVA=    31 NVB=    32
 Fully direct method using O(ONN) memory.
 JobTyp=2 Pass  1:  I=   1 to   5 NPSUse=  6 ParTrn=T ParDer=T DoDerP=T.
 JobTyp=3 Pass  1:  I=   1 to   4 NPSUse=  6 ParTrn=T ParDer=T DoDerP=T.
 Spin components of T(2) and E(2):
     alpha-alpha T2 =       0.6531787170D-02 E2=     -0.2035460974D-01
     alpha-beta  T2 =       0.3498352481D-01 E2=     -0.1249389451D+00
     beta-beta   T2 =       0.2335495062D-02 E2=     -0.7487079588D-02
 (S**2,0)=  0.76085D+00           (S**2,1)=  0.75308D+00
 E(PUHF)=      -0.39575311778D+02        E(PMP2)=      -0.39727071434D+02
 ANorm=    0.1021690172D+01
 E2 =    -0.1527806345D+00 EUMP2 =    -0.39725230862685D+02
          IDoAtm=1111
          Differentiating once with respect to electric field.
                with respect to dipole field.
          Differentiating once with respect to nuclear coordinates.
 Keep R1 and R2 ints in memory in symmetry-blocked form, NReq=1068713.
          There are     1 degrees of freedom in the 1st order CPHF.  IDoFFX=0 NUNeed=     1.
 LinEq1:  Iter=  0 NonCon=     1 RMS=2.02D-03 Max=1.23D-02 NDo=     1
 AX will form     1 AO Fock derivatives at one time.
 LinEq1:  Iter=  1 NonCon=     1 RMS=6.89D-04 Max=5.56D-03 NDo=     1
 LinEq1:  Iter=  2 NonCon=     1 RMS=2.59D-04 Max=1.83D-03 NDo=     1
 LinEq1:  Iter=  3 NonCon=     1 RMS=3.87D-05 Max=2.13D-04 NDo=     1
 LinEq1:  Iter=  4 NonCon=     1 RMS=5.27D-06 Max=2.91D-05 NDo=     1
 LinEq1:  Iter=  5 NonCon=     1 RMS=6.81D-07 Max=5.78D-06 NDo=     1
 LinEq1:  Iter=  6 NonCon=     1 RMS=1.15D-07 Max=8.67D-07 NDo=     1
 LinEq1:  Iter=  7 NonCon=     1 RMS=2.10D-08 Max=1.30D-07 NDo=     1
 LinEq1:  Iter=  8 NonCon=     1 RMS=3.10D-09 Max=1.60D-08 NDo=     1
 LinEq1:  Iter=  9 NonCon=     1 RMS=3.77D-10 Max=3.23D-09 NDo=     1
 LinEq1:  Iter= 10 NonCon=     0 RMS=4.91D-11 Max=3.02D-10 NDo=     1
 Linear equations converged to 1.000D-10 1.000D-09 after    10 iterations.
 End of Minotr F.D. properties file   721 does not exist.
 End of Minotr F.D. properties file   722 does not exist.
 End of Minotr F.D. properties file   788 does not exist.
 Calling FoFJK, ICntrl=  10002127 FMM=F ISym2X=1 I1Cent= 0 IOpClX= 1 NMat=1 NMatS=1 NMatT=0.
 ***** Axes restored to original set *****
 -------------------------------------------------------------------
 Center     Atomic                   Forces (Hartrees/Bohr)
 Number     Number              X              Y              Z
 -------------------------------------------------------------------
      1        6           0.002346232   -0.004063793    0.001659036
      2        1          -0.000642512    0.001112863   -0.001342514
      3        1          -0.001479905    0.001112863   -0.000158261
      4        1          -0.000223815    0.001838067   -0.000158261
 -------------------------------------------------------------------
 Cartesian Forces:  Max     0.004063793 RMS     0.001711055

 GradGradGradGradGradGradGradGradGradGradGradGradGradGradGradGradGradGrad
 Berny optimization.
 Using GEDIIS/GDIIS optimizer.
 FormGI is forming the generalized inverse of G from B-inverse, IUseBI=4.
 Internal  Forces:  Max     0.002775025 RMS     0.001266179
 Search for a local minimum.
 Step number   3 out of a maximum of   20
 All quantities printed in internal units (Hartrees-Bohrs-Radians)
 Mixed Optimization -- RFO/linear search
 Update second derivatives using D2CorX and points    2    3
 DE= -1.94D-03 DEPred=-1.28D-03 R= 1.52D+00
 TightC=F SS=  1.41D+00  RLast= 3.31D-01 DXNew= 8.4853D-01 9.9319D-01
 Trust test= 1.52D+00 RLast= 3.31D-01 DXMaxT set to 8.49D-01
 The second derivative matrix:
                          R1        R2        R3        A1        A2
           R1           0.38075
           R2           0.00845   0.38075
           R3           0.00845   0.00845   0.38075
           A1          -0.02259  -0.02259  -0.02259   0.11715
           A2          -0.00925  -0.00925  -0.00925  -0.04421   0.12007
           A3          -0.00925  -0.00925  -0.00925  -0.04421  -0.03993
           D1          -0.01379  -0.01379  -0.01379   0.00674  -0.00232
                          A3        D1
           A3           0.12007
           D1          -0.00232   0.02072
 ITU=  1  1  0
 Use linear search instead of GDIIS.
     Eigenvalues ---    0.01966   0.16000   0.16278   0.37230   0.37230
     Eigenvalues ---    0.39968
 RFO step:  Lambda=-1.41720476D-04 EMin= 1.96630857D-02
 Quartic linear search produced a step of  2.00000.
 Iteration  1 RMS(Cart)=  0.04534268 RMS(Int)=  0.17377193
 Iteration  2 RMS(Cart)=  0.04075564 RMS(Int)=  0.10202911
 Iteration  3 RMS(Cart)=  0.03791096 RMS(Int)=  0.06457708
 Iteration  4 RMS(Cart)=  0.00296141 RMS(Int)=  0.06446198
 Iteration  5 RMS(Cart)=  0.00015759 RMS(Int)=  0.06446145
 Iteration  6 RMS(Cart)=  0.00001516 RMS(Int)=  0.06446144
 Iteration  7 RMS(Cart)=  0.00000145 RMS(Int)=  0.06446144
 Iteration  8 RMS(Cart)=  0.00000014 RMS(Int)=  0.06446144
 ClnCor:  largest displacement from symmetrization is 1.37D-02 for atom     4.
 Variable       Old X    -DE/DX   Delta X   Delta X   Delta X     New X
                                 (Linear)    (Quad)   (Total)
    R1        2.04349  -0.00101  -0.01745   0.00281  -0.01017   2.03331
    R2        2.04349  -0.00101  -0.01745   0.00281  -0.01017   2.03331
    R3        2.04349  -0.00101  -0.01745   0.00281  -0.01017   2.03331
    A1        2.07583  -0.00008   0.10213   0.02520   0.00673   2.08257
    A2        2.07583   0.00049   0.10213  -0.00952   0.00673   2.08257
    A3        2.07583   0.00049   0.10213  -0.00952   0.00673   2.08257
    D1       -2.78583  -0.00278  -0.63734  -0.02410  -0.64057   2.85678
         Item               Value     Threshold  Converged?
 Maximum Force            0.002775     0.000450     NO 
 RMS     Force            0.001266     0.000300     NO 
 Maximum Displacement     0.232519     0.001800     NO 
 RMS     Displacement     0.124587     0.001200     NO 
 Predicted change in Energy=-2.230539D-03
 GradGradGradGradGradGradGradGradGradGradGradGradGradGradGradGradGradGrad

                          Input orientation:                          
 ---------------------------------------------------------------------
 Center     Atomic      Atomic             Coordinates (Angstroms)
 Number     Number       Type             X           Y           Z
 ---------------------------------------------------------------------
      1          6           0        0.157652   -0.273061    0.111477
      2          1           0       -0.063051    0.109207    1.092752
      3          1           0        1.009240    0.109207   -0.423696
      4          1           0       -0.599196   -0.819424   -0.423696
 ---------------------------------------------------------------------
                    Distance matrix (angstroms):
                    1          2          3          4
     1  C    0.000000
     2  H    1.075984   0.000000
     3  H    1.075984   1.857262   0.000000
     4  H    1.075984   1.857262   1.857262   0.000000
 Stoichiometry    CH3(2)
 Framework group  C3V[C3(C),3SGV(H)]
 Deg. of freedom     2
 Full point group                 C3V     NOp   6
 Largest Abelian subgroup         CS      NOp   2
 Largest concise Abelian subgroup CS      NOp   2
                         Standard orientation:                         
 ---------------------------------------------------------------------
 Center     Atomic      Atomic             Coordinates (Angstroms)
 Number     Number       Type             X           Y           Z
 ---------------------------------------------------------------------
      1          6           0        0.000000    0.000000   -0.029689
      2          1           0        0.000000    1.072291    0.059379
      3          1           0       -0.928631   -0.536145    0.059379
      4          1           0        0.928631   -0.536145    0.059379
 ---------------------------------------------------------------------
 Rotational constants (GHZ):    287.5775721    287.5775721    145.3736362
 Standard basis: 6-311G(d,p) (5D, 7F)
 There are    25 symmetry adapted cartesian basis functions of A'  symmetry.
 There are    12 symmetry adapted cartesian basis functions of A"  symmetry.
 There are    24 symmetry adapted basis functions of A'  symmetry.
 There are    12 symmetry adapted basis functions of A"  symmetry.
    36 basis functions,    56 primitive gaussians,    37 cartesian basis functions
     5 alpha electrons        4 beta electrons
       nuclear repulsion energy         9.7073116109 Hartrees.
 NAtoms=    4 NActive=    4 NUniq=    2 SFac= 4.00D+00 NAtFMM=   60 NAOKFM=F Big=F
 Integral buffers will be    131072 words long.
 Raffenetti 2 integral format.
 Two-electron integral symmetry is turned on.
 One-electron integrals computed using PRISM.
 NBasis=    36 RedAO= T EigKep=  2.00D-02  NBF=    24    12
 NBsUse=    36 1.00D-06 EigRej= -1.00D+00 NBFU=    24    12
 Initial guess from the checkpoint file:  "h3c+-gasopt.chk"
 B after Tr=     0.000000    0.000000    0.000000
         Rot=    1.000000    0.000000    0.000000    0.000000 Ang=   0.00 deg.
 Initial guess orbital symmetries:
 Alpha Orbitals:
       Occupied  (?A) (?A) (?A) (?A) (?A)
       Virtual   (?A) (?A) (?A) (?A) (?A) (?A) (?A) (?A) (?A) (?A)
                 (?A) (?A) (?A) (?A) (?A) (?A) (?A) (?A) (?A) (?A)
                 (?A) (?A) (?A) (?A) (?A) (?A) (?A) (?A) (?A) (?A)
                 (?A)
 Beta  Orbitals:
       Occupied  (?A) (?A) (?A) (?A)
       Virtual   (?A) (?A) (?A) (?A) (?A) (?A) (?A) (?A) (?A) (?A)
                 (?A) (?A) (?A) (?A) (?A) (?A) (?A) (?A) (?A) (?A)
                 (?A) (?A) (?A) (?A) (?A) (?A) (?A) (?A) (?A) (?A)
                 (?A) (?A)
 Initial guess <Sx>= 0.0000 <Sy>= 0.0000 <Sz>= 0.5000 <S**2>= 0.7611 S= 0.5056
 ExpMin= 1.03D-01 ExpMax= 4.56D+03 ExpMxC= 6.82D+02 IAcc=1 IRadAn=         1 AccDes= 0.00D+00
 Harris functional with IExCor=  205 and IRadAn=       1 diagonalized for initial guess.
 HarFok:  IExCor=  205 AccDes= 0.00D+00 IRadAn=         1 IDoV= 1 UseB2=F ITyADJ=14
 ICtDFT=  3500011 ScaDFX=  1.000000  1.000000  1.000000  1.000000
 FoFCou: FMM=F IPFlag=           0 FMFlag=      100000 FMFlg1=           0
         NFxFlg=           0 DoJE=T BraDBF=F KetDBF=T FulRan=T
         wScrn=  0.000000 ICntrl=     500 IOpCl=  0 I1Cent=   200000004 NGrid=           0
         NMat0=    1 NMatS0=      1 NMatT0=    0 NMatD0=    1 NMtDS0=    0 NMtDT0=    0
 Petite list used in FoFCou.
 Keep R1 and R2 ints in memory in symmetry-blocked form, NReq=1084755.
 Requested convergence on RMS density matrix=1.00D-08 within 128 cycles.
 Requested convergence on MAX density matrix=1.00D-06.
 Requested convergence on             energy=1.00D-06.
 No special actions if energy rises.
 SCF Done:  E(UHF) =  -39.5726916913     A.U. after   13 cycles
            NFock= 13  Conv=0.21D-08     -V/T= 2.0003
 <Sx>= 0.0000 <Sy>= 0.0000 <Sz>= 0.5000 <S**2>= 0.7609 S= 0.5054
 <L.S>= 0.000000000000E+00
 Annihilation of the first spin contaminant:
 S**2 before annihilation     0.7609,   after     0.7501
 Range of M.O.s used for correlation:     1    36
 NBasis=    36 NAE=     5 NBE=     4 NFC=     0 NFV=     0
 NROrb=     36 NOA=     5 NOB=     4 NVA=    31 NVB=    32
 Fully direct method using O(ONN) memory.
 JobTyp=2 Pass  1:  I=   1 to   5 NPSUse=  6 ParTrn=T ParDer=T DoDerP=T.
 JobTyp=3 Pass  1:  I=   1 to   4 NPSUse=  6 ParTrn=T ParDer=T DoDerP=T.
 Spin components of T(2) and E(2):
     alpha-alpha T2 =       0.6521378605D-02 E2=     -0.2038695245D-01
     alpha-beta  T2 =       0.3479925265D-01 E2=     -0.1248258300D+00
     beta-beta   T2 =       0.2323050661D-02 E2=     -0.7479182853D-02
 (S**2,0)=  0.76089D+00           (S**2,1)=  0.75303D+00
 E(PUHF)=      -0.39575586620D+02        E(PMP2)=      -0.39727238322D+02
 ANorm=    0.1021588803D+01
 E2 =    -0.1526919653D+00 EUMP2 =    -0.39725383656515D+02
          IDoAtm=1111
          Differentiating once with respect to electric field.
                with respect to dipole field.
          Differentiating once with respect to nuclear coordinates.
 Keep R1 and R2 ints in memory in symmetry-blocked form, NReq=1068713.
          There are     1 degrees of freedom in the 1st order CPHF.  IDoFFX=0 NUNeed=     1.
 LinEq1:  Iter=  0 NonCon=     1 RMS=2.01D-03 Max=1.24D-02 NDo=     1
 AX will form     1 AO Fock derivatives at one time.
 LinEq1:  Iter=  1 NonCon=     1 RMS=6.77D-04 Max=5.49D-03 NDo=     1
 LinEq1:  Iter=  2 NonCon=     1 RMS=2.54D-04 Max=1.79D-03 NDo=     1
 LinEq1:  Iter=  3 NonCon=     1 RMS=3.76D-05 Max=2.05D-04 NDo=     1
 LinEq1:  Iter=  4 NonCon=     1 RMS=5.01D-06 Max=2.87D-05 NDo=     1
 LinEq1:  Iter=  5 NonCon=     1 RMS=6.17D-07 Max=4.78D-06 NDo=     1
 LinEq1:  Iter=  6 NonCon=     1 RMS=9.97D-08 Max=7.71D-07 NDo=     1
 LinEq1:  Iter=  7 NonCon=     1 RMS=1.85D-08 Max=1.18D-07 NDo=     1
 LinEq1:  Iter=  8 NonCon=     1 RMS=2.79D-09 Max=1.48D-08 NDo=     1
 LinEq1:  Iter=  9 NonCon=     1 RMS=3.38D-10 Max=3.18D-09 NDo=     1
 LinEq1:  Iter= 10 NonCon=     0 RMS=4.56D-11 Max=2.77D-10 NDo=     1
 Linear equations converged to 1.000D-10 1.000D-09 after    10 iterations.
 End of Minotr F.D. properties file   721 does not exist.
 End of Minotr F.D. properties file   722 does not exist.
 End of Minotr F.D. properties file   788 does not exist.
 Calling FoFJK, ICntrl=  10002127 FMM=F ISym2X=1 I1Cent= 0 IOpClX= 1 NMat=1 NMatS=1 NMatT=0.
 ***** Axes restored to original set *****
 -------------------------------------------------------------------
 Center     Atomic                   Forces (Hartrees/Bohr)
 Number     Number              X              Y              Z
 -------------------------------------------------------------------
      1        6          -0.001368490    0.002370294   -0.000967668
      2        1           0.000004363   -0.000007556    0.002878326
      3        1           0.002715166   -0.000007556   -0.000955329
      4        1          -0.001351039   -0.002355181   -0.000955329
 -------------------------------------------------------------------
 Cartesian Forces:  Max     0.002878326 RMS     0.001665382

 GradGradGradGradGradGradGradGradGradGradGradGradGradGradGradGradGradGrad
 Berny optimization.
 Using GEDIIS/GDIIS optimizer.
 FormGI is forming the generalized inverse of G from B-inverse, IUseBI=4.
 Internal  Forces:  Max     0.002621398 RMS     0.001897170
 Search for a local minimum.
 Step number   4 out of a maximum of   20
 All quantities printed in internal units (Hartrees-Bohrs-Radians)
 Mixed Optimization -- RFO/linear search
 Update second derivatives using D2CorX and points    3    4
 DE= -1.53D-04 DEPred=-2.23D-03 R= 6.85D-02
 Trust test= 6.85D-02 RLast= 6.41D-01 DXMaxT set to 4.24D-01
 The second derivative matrix:
                          R1        R2        R3        A1        A2
           R1           0.38230
           R2           0.01000   0.38230
           R3           0.01000   0.01000   0.38230
           A1          -0.02065  -0.02065  -0.02065   0.11569
           A2          -0.01060  -0.01060  -0.01060  -0.04336   0.11959
           A3          -0.01060  -0.01060  -0.01060  -0.04336  -0.04041
           D1          -0.00117  -0.00117  -0.00117   0.00133   0.00057
                          A3        D1
           A3           0.11959
           D1           0.00057   0.00769
 ITU= -1  1  1  0
 Use linear search instead of GDIIS.
     Eigenvalues ---    0.00847   0.16000   0.16067   0.37230   0.37230
     Eigenvalues ---    0.40320
 RFO step:  Lambda=-7.79531511D-06 EMin= 8.46740282D-03
 Quartic linear search produced a step of -0.45943.
 Iteration  1 RMS(Cart)=  0.03941724 RMS(Int)=  0.04063219
 Iteration  2 RMS(Cart)=  0.02006406 RMS(Int)=  0.00942145
 Iteration  3 RMS(Cart)=  0.00065537 RMS(Int)=  0.00938910
 Iteration  4 RMS(Cart)=  0.00000301 RMS(Int)=  0.00938910
 Iteration  5 RMS(Cart)=  0.00000004 RMS(Int)=  0.00938910
 ClnCor:  largest displacement from symmetrization is 1.07D-03 for atom     4.
 Variable       Old X    -DE/DX   Delta X   Delta X   Delta X     New X
                                 (Linear)    (Quad)   (Total)
    R1        2.03331   0.00262   0.00467   0.00241   0.00673   2.04005
    R2        2.03331   0.00262   0.00467   0.00241   0.00673   2.04005
    R3        2.03331   0.00262   0.00467   0.00241   0.00673   2.04005
    A1        2.08257  -0.00005  -0.00309  -0.00107   0.01179   2.09436
    A2        2.08257   0.00029  -0.00309   0.00135   0.01179   2.09436
    A3        2.08257   0.00029  -0.00309   0.00135   0.01179   2.09436
    D1        2.85678   0.00210   0.29429   0.00622   0.30066  -3.12574
         Item               Value     Threshold  Converged?
 Maximum Force            0.002621     0.000450     NO 
 RMS     Force            0.001897     0.000300     NO 
 Maximum Displacement     0.108800     0.001800     NO 
 RMS     Displacement     0.058836     0.001200     NO 
 Predicted change in Energy=-3.165973D-04
 GradGradGradGradGradGradGradGradGradGradGradGradGradGradGradGradGradGrad

                          Input orientation:                          
 ---------------------------------------------------------------------
 Center     Atomic      Atomic             Coordinates (Angstroms)
 Number     Number       Type             X           Y           Z
 ---------------------------------------------------------------------
      1          6           0        0.124411   -0.215486    0.087972
      2          1           0       -0.053183    0.092115    1.107413
      3          1           0        1.026351    0.092115   -0.419279
      4          1           0       -0.592950   -0.842789   -0.419279
 ---------------------------------------------------------------------
                    Distance matrix (angstroms):
                    1          2          3          4
     1  C    0.000000
     2  H    1.079545   0.000000
     3  H    1.079545   1.869808   0.000000
     4  H    1.079545   1.869808   1.869808   0.000000
 Stoichiometry    CH3(2)
 Framework group  C3V[C3(C),3SGV(H)]
 Deg. of freedom     2
 Full point group                 C3V     NOp   6
 Largest Abelian subgroup         CS      NOp   2
 Largest concise Abelian subgroup CS      NOp   2
                         Standard orientation:                         
 ---------------------------------------------------------------------
 Center     Atomic      Atomic             Coordinates (Angstroms)
 Number     Number       Type             X           Y           Z
 ---------------------------------------------------------------------
      1          6           0        0.000000    0.000000    0.001647
      2          1           0        0.000000    1.079534   -0.003293
      3          1           0       -0.934904   -0.539767   -0.003293
      4          1           0        0.934904   -0.539767   -0.003293
 ---------------------------------------------------------------------
 Rotational constants (GHZ):    286.8491541    286.8491541    143.4293747
 Standard basis: 6-311G(d,p) (5D, 7F)
 There are    25 symmetry adapted cartesian basis functions of A'  symmetry.
 There are    12 symmetry adapted cartesian basis functions of A"  symmetry.
 There are    24 symmetry adapted basis functions of A'  symmetry.
 There are    12 symmetry adapted basis functions of A"  symmetry.
    36 basis functions,    56 primitive gaussians,    37 cartesian basis functions
     5 alpha electrons        4 beta electrons
       nuclear repulsion energy         9.6723691184 Hartrees.
 NAtoms=    4 NActive=    4 NUniq=    2 SFac= 4.00D+00 NAtFMM=   60 NAOKFM=F Big=F
 Integral buffers will be    131072 words long.
 Raffenetti 2 integral format.
 Two-electron integral symmetry is turned on.
 One-electron integrals computed using PRISM.
 NBasis=    36 RedAO= T EigKep=  2.03D-02  NBF=    24    12
 NBsUse=    36 1.00D-06 EigRej= -1.00D+00 NBFU=    24    12
 Initial guess from the checkpoint file:  "h3c+-gasopt.chk"
 B after Tr=     0.000000    0.000000    0.000000
         Rot=    1.000000    0.000000    0.000000    0.000000 Ang=   0.00 deg.
 Initial guess orbital symmetries:
 Alpha Orbitals:
       Occupied  (A1) (A1) (E) (E) (A1)
       Virtual   (?A) (?A) (?A) (?A) (?A) (?A) (?A) (?A) (?A) (?A)
                 (?A) (?A) (?A) (?A) (?A) (?A) (?A) (?A) (?A) (?A)
                 (?A) (?A) (?A) (?A) (?A) (?A) (?A) (?A) (?A) (?A)
                 (?A)
 Beta  Orbitals:
       Occupied  (A1) (A1) (E) (E)
       Virtual   (?A) (?A) (?A) (?A) (?A) (?A) (?A) (?A) (?A) (?A)
                 (?A) (?A) (?A) (?A) (?A) (?A) (?A) (?A) (?A) (?A)
                 (?A) (?A) (?A) (?A) (?A) (?A) (?A) (?A) (?A) (?A)
                 (?A) (?A)
 Initial guess <Sx>= 0.0000 <Sy>= 0.0000 <Sz>= 0.5000 <S**2>= 0.7612 S= 0.5056
 ExpMin= 1.03D-01 ExpMax= 4.56D+03 ExpMxC= 6.82D+02 IAcc=1 IRadAn=         1 AccDes= 0.00D+00
 Harris functional with IExCor=  205 and IRadAn=       1 diagonalized for initial guess.
 HarFok:  IExCor=  205 AccDes= 0.00D+00 IRadAn=         1 IDoV= 1 UseB2=F ITyADJ=14
 ICtDFT=  3500011 ScaDFX=  1.000000  1.000000  1.000000  1.000000
 FoFCou: FMM=F IPFlag=           0 FMFlag=      100000 FMFlg1=           0
         NFxFlg=           0 DoJE=T BraDBF=F KetDBF=T FulRan=T
         wScrn=  0.000000 ICntrl=     500 IOpCl=  0 I1Cent=   200000004 NGrid=           0
         NMat0=    1 NMatS0=      1 NMatT0=    0 NMatD0=    1 NMtDS0=    0 NMtDT0=    0
 Petite list used in FoFCou.
 Keep R1 and R2 ints in memory in symmetry-blocked form, NReq=1084713.
 Requested convergence on RMS density matrix=1.00D-08 within 128 cycles.
 Requested convergence on MAX density matrix=1.00D-06.
 Requested convergence on             energy=1.00D-06.
 No special actions if energy rises.
 SCF Done:  E(UHF) =  -39.5728347732     A.U. after   11 cycles
            NFock= 11  Conv=0.83D-08     -V/T= 2.0008
 <Sx>= 0.0000 <Sy>= 0.0000 <Sz>= 0.5000 <S**2>= 0.7615 S= 0.5057
 <L.S>= 0.000000000000E+00
 Annihilation of the first spin contaminant:
 S**2 before annihilation     0.7615,   after     0.7501
 Range of M.O.s used for correlation:     1    36
 NBasis=    36 NAE=     5 NBE=     4 NFC=     0 NFV=     0
 NROrb=     36 NOA=     5 NOB=     4 NVA=    31 NVB=    32
 Fully direct method using O(ONN) memory.
 JobTyp=2 Pass  1:  I=   1 to   5 NPSUse=  6 ParTrn=T ParDer=T DoDerP=T.
 JobTyp=3 Pass  1:  I=   1 to   4 NPSUse=  6 ParTrn=T ParDer=T DoDerP=T.
 Spin components of T(2) and E(2):
     alpha-alpha T2 =       0.6553825946D-02 E2=     -0.2045320087D-01
     alpha-beta  T2 =       0.3493954996D-01 E2=     -0.1249370670D+00
     beta-beta   T2 =       0.2320128448D-02 E2=     -0.7445815947D-02
 (S**2,0)=  0.76153D+00           (S**2,1)=  0.75327D+00
 E(PUHF)=      -0.39575859918D+02        E(PMP2)=      -0.39727616836D+02
 ANorm=    0.1021671916D+01
 E2 =    -0.1528360838D+00 EUMP2 =    -0.39725670856947D+02
          IDoAtm=1111
          Differentiating once with respect to electric field.
                with respect to dipole field.
          Differentiating once with respect to nuclear coordinates.
 Keep R1 and R2 ints in memory in symmetry-blocked form, NReq=1068713.
          There are     1 degrees of freedom in the 1st order CPHF.  IDoFFX=0 NUNeed=     1.
 LinEq1:  Iter=  0 NonCon=     1 RMS=2.02D-03 Max=1.27D-02 NDo=     1
 AX will form     1 AO Fock derivatives at one time.
 LinEq1:  Iter=  1 NonCon=     1 RMS=6.91D-04 Max=5.72D-03 NDo=     1
 LinEq1:  Iter=  2 NonCon=     1 RMS=2.61D-04 Max=1.84D-03 NDo=     1
 LinEq1:  Iter=  3 NonCon=     1 RMS=3.73D-05 Max=2.05D-04 NDo=     1
 LinEq1:  Iter=  4 NonCon=     1 RMS=4.82D-06 Max=2.98D-05 NDo=     1
 LinEq1:  Iter=  5 NonCon=     1 RMS=4.96D-07 Max=3.66D-06 NDo=     1
 LinEq1:  Iter=  6 NonCon=     1 RMS=3.78D-08 Max=2.10D-07 NDo=     1
 LinEq1:  Iter=  7 NonCon=     1 RMS=4.26D-09 Max=3.44D-08 NDo=     1
 LinEq1:  Iter=  8 NonCon=     1 RMS=9.94D-10 Max=8.49D-09 NDo=     1
 LinEq1:  Iter=  9 NonCon=     1 RMS=1.06D-10 Max=4.64D-10 NDo=     1
 LinEq1:  Iter= 10 NonCon=     0 RMS=1.43D-11 Max=1.18D-10 NDo=     1
 Linear equations converged to 1.000D-10 1.000D-09 after    10 iterations.
 End of Minotr F.D. properties file   721 does not exist.
 End of Minotr F.D. properties file   722 does not exist.
 End of Minotr F.D. properties file   788 does not exist.
 Calling FoFJK, ICntrl=  10002127 FMM=F ISym2X=1 I1Cent= 0 IOpClX= 1 NMat=1 NMatS=1 NMatT=0.
 ***** Axes restored to original set *****
 -------------------------------------------------------------------
 Center     Atomic                   Forces (Hartrees/Bohr)
 Number     Number              X              Y              Z
 -------------------------------------------------------------------
      1        6           0.000074942   -0.000129804    0.000052992
      2        1           0.000061352   -0.000106265   -0.000506037
      3        1          -0.000456646   -0.000106265    0.000226523
      4        1           0.000320351    0.000342334    0.000226523
 -------------------------------------------------------------------
 Cartesian Forces:  Max     0.000506037 RMS     0.000264365

 GradGradGradGradGradGradGradGradGradGradGradGradGradGradGradGradGradGrad
 Berny optimization.
 Using GEDIIS/GDIIS optimizer.
 FormGI is forming the generalized inverse of G from B-inverse, IUseBI=4.
 Internal  Forces:  Max     0.000518235 RMS     0.000340945
 Search for a local minimum.
 Step number   5 out of a maximum of   20
 All quantities printed in internal units (Hartrees-Bohrs-Radians)
 Mixed Optimization -- En-DIIS/RFO-DIIS
 Update second derivatives using D2CorX and points    3    4    5
 DE= -2.87D-04 DEPred=-3.17D-04 R= 9.07D-01
 TightC=F SS=  1.41D+00  RLast= 3.02D-01 DXNew= 7.1352D-01 9.0475D-01
 Trust test= 9.07D-01 RLast= 3.02D-01 DXMaxT set to 7.14D-01
 The second derivative matrix:
                          R1        R2        R3        A1        A2
           R1           0.39193
           R2           0.01963   0.39193
           R3           0.01963   0.01963   0.39193
           A1          -0.02090  -0.02090  -0.02090   0.11506
           A2          -0.00892  -0.00892  -0.00892  -0.04399   0.11933
           A3          -0.00892  -0.00892  -0.00892  -0.04399  -0.04067
           D1           0.00231   0.00231   0.00231   0.00017   0.00022
                          A3        D1
           A3           0.11933
           D1           0.00022   0.00710
 ITU=  1 -1  1  1  0
 Use linear search instead of GDIIS.
     Eigenvalues ---    0.00705   0.16000   0.16052   0.37230   0.37230
     Eigenvalues ---    0.43230
 RFO step:  Lambda=-6.87229952D-07 EMin= 7.05040225D-03
 Quartic linear search produced a step of -0.07191.
 Iteration  1 RMS(Cart)=  0.00360737 RMS(Int)=  0.00058856
 Iteration  2 RMS(Cart)=  0.00001906 RMS(Int)=  0.00058824
 Iteration  3 RMS(Cart)=  0.00000000 RMS(Int)=  0.00058824
 ClnCor:  largest displacement from symmetrization is 1.39D-04 for atom     4.
 Variable       Old X    -DE/DX   Delta X   Delta X   Delta X     New X
                                 (Linear)    (Quad)   (Total)
    R1        2.04005  -0.00052  -0.00048  -0.00071  -0.00124   2.03881
    R2        2.04005  -0.00052  -0.00048  -0.00071  -0.00124   2.03881
    R3        2.04005  -0.00052  -0.00048  -0.00071  -0.00124   2.03881
    A1        2.09436   0.00000  -0.00085  -0.00023   0.00004   2.09439
    A2        2.09436   0.00000  -0.00085   0.00009   0.00004   2.09439
    A3        2.09436   0.00000  -0.00085   0.00009   0.00004   2.09439
    D1       -3.12574  -0.00009  -0.02162   0.00331  -0.01831   3.13913
         Item               Value     Threshold  Converged?
 Maximum Force            0.000518     0.000450     NO 
 RMS     Force            0.000341     0.000300     NO 
 Maximum Displacement     0.006604     0.001800     NO 
 RMS     Displacement     0.003618     0.001200     NO 
 Predicted change in Energy=-1.219556D-06
 GradGradGradGradGradGradGradGradGradGradGradGradGradGradGradGradGradGrad

                          Input orientation:                          
 ---------------------------------------------------------------------
 Center     Atomic      Atomic             Coordinates (Angstroms)
 Number     Number       Type             X           Y           Z
 ---------------------------------------------------------------------
      1          6           0        0.126429   -0.218981    0.089398
      2          1           0       -0.053748    0.093094    1.106331
      3          1           0        1.025143    0.093094   -0.419451
      4          1           0       -0.593194   -0.841253   -0.419451
 ---------------------------------------------------------------------
                    Distance matrix (angstroms):
                    1          2          3          4
     1  C    0.000000
     2  H    1.078891   0.000000
     3  H    1.078891   1.868694   0.000000
     4  H    1.078891   1.868694   1.868694   0.000000
 Stoichiometry    CH3(2)
 Framework group  C3V[C3(C),3SGV(H)]
 Deg. of freedom     2
 Full point group                 C3V     NOp   6
 Largest Abelian subgroup         CS      NOp   2
 Largest concise Abelian subgroup CS      NOp   2
                         Standard orientation:                         
 ---------------------------------------------------------------------
 Center     Atomic      Atomic             Coordinates (Angstroms)
 Number     Number       Type             X           Y           Z
 ---------------------------------------------------------------------
      1          6           0        0.000000    0.000000   -0.000256
      2          1           0        0.000000    1.078891    0.000511
      3          1           0       -0.934347   -0.539445    0.000511
      4          1           0        0.934347   -0.539445    0.000511
 ---------------------------------------------------------------------
 Rotational constants (GHZ):    287.2005938    287.2005938    143.6004127
 Standard basis: 6-311G(d,p) (5D, 7F)
 There are    25 symmetry adapted cartesian basis functions of A'  symmetry.
 There are    12 symmetry adapted cartesian basis functions of A"  symmetry.
 There are    24 symmetry adapted basis functions of A'  symmetry.
 There are    12 symmetry adapted basis functions of A"  symmetry.
    36 basis functions,    56 primitive gaussians,    37 cartesian basis functions
     5 alpha electrons        4 beta electrons
       nuclear repulsion energy         9.6782247034 Hartrees.
 NAtoms=    4 NActive=    4 NUniq=    2 SFac= 4.00D+00 NAtFMM=   60 NAOKFM=F Big=F
 Integral buffers will be    131072 words long.
 Raffenetti 2 integral format.
 Two-electron integral symmetry is turned on.
 One-electron integrals computed using PRISM.
 NBasis=    36 RedAO= T EigKep=  2.03D-02  NBF=    24    12
 NBsUse=    36 1.00D-06 EigRej= -1.00D+00 NBFU=    24    12
 Initial guess from the checkpoint file:  "h3c+-gasopt.chk"
 B after Tr=     0.000000    0.000000    0.000000
         Rot=    1.000000    0.000000    0.000000    0.000000 Ang=   0.00 deg.
 Initial guess orbital symmetries:
 Alpha Orbitals:
       Occupied  (?A) (?A) (?A) (?A) (A1)
       Virtual   (?A) (?A) (?A) (?A) (?A) (?A) (?A) (?A) (?A) (?A)
                 (?A) (?A) (?A) (?A) (?A) (?A) (?A) (?A) (?A) (?A)
                 (?A) (?A) (?A) (?A) (?A) (?A) (?A) (?A) (?A) (?A)
                 (?A)
 Beta  Orbitals:
       Occupied  (?A) (?A) (?A) (?A)
       Virtual   (?A) (?A) (?A) (?A) (?A) (?A) (?A) (?A) (?A) (?A)
                 (?A) (?A) (?A) (?A) (?A) (?A) (?A) (?A) (?A) (?A)
                 (?A) (?A) (?A) (?A) (?A) (?A) (?A) (?A) (?A) (?A)
                 (?A) (?A)
 Initial guess <Sx>= 0.0000 <Sy>= 0.0000 <Sz>= 0.5000 <S**2>= 0.7615 S= 0.5057
 Keep R1 and R2 ints in memory in symmetry-blocked form, NReq=1084713.
 Requested convergence on RMS density matrix=1.00D-08 within 128 cycles.
 Requested convergence on MAX density matrix=1.00D-06.
 Requested convergence on             energy=1.00D-06.
 No special actions if energy rises.
 SCF Done:  E(UHF) =  -39.5728510481     A.U. after    9 cycles
            NFock=  9  Conv=0.49D-08     -V/T= 2.0007
 <Sx>= 0.0000 <Sy>= 0.0000 <Sz>= 0.5000 <S**2>= 0.7615 S= 0.5057
 <L.S>= 0.000000000000E+00
 Annihilation of the first spin contaminant:
 S**2 before annihilation     0.7615,   after     0.7501
 Range of M.O.s used for correlation:     1    36
 NBasis=    36 NAE=     5 NBE=     4 NFC=     0 NFV=     0
 NROrb=     36 NOA=     5 NOB=     4 NVA=    31 NVB=    32
 Fully direct method using O(ONN) memory.
 JobTyp=2 Pass  1:  I=   1 to   5 NPSUse=  6 ParTrn=T ParDer=T DoDerP=T.
 JobTyp=3 Pass  1:  I=   1 to   4 NPSUse=  6 ParTrn=T ParDer=T DoDerP=T.
 Spin components of T(2) and E(2):
     alpha-alpha T2 =       0.6551328462D-02 E2=     -0.2045294242D-01
     alpha-beta  T2 =       0.3491640945D-01 E2=     -0.1249218591D+00
     beta-beta   T2 =       0.2319169093D-02 E2=     -0.7446743700D-02
 (S**2,0)=  0.76150D+00           (S**2,1)=  0.75326D+00
 E(PUHF)=      -0.39575872943D+02        E(PMP2)=      -0.39727615410D+02
 ANorm=    0.1021658900D+01
 E2 =    -0.1528215452D+00 EUMP2 =    -0.39725672593310D+02
          IDoAtm=1111
          Differentiating once with respect to electric field.
                with respect to dipole field.
          Differentiating once with respect to nuclear coordinates.
 Keep R1 and R2 ints in memory in symmetry-blocked form, NReq=1068713.
          There are     1 degrees of freedom in the 1st order CPHF.  IDoFFX=0 NUNeed=     1.
 LinEq1:  Iter=  0 NonCon=     1 RMS=2.02D-03 Max=1.27D-02 NDo=     1
 AX will form     1 AO Fock derivatives at one time.
 LinEq1:  Iter=  1 NonCon=     1 RMS=6.89D-04 Max=5.70D-03 NDo=     1
 LinEq1:  Iter=  2 NonCon=     1 RMS=2.60D-04 Max=1.84D-03 NDo=     1
 LinEq1:  Iter=  3 NonCon=     1 RMS=3.72D-05 Max=2.04D-04 NDo=     1
 LinEq1:  Iter=  4 NonCon=     1 RMS=4.81D-06 Max=2.97D-05 NDo=     1
 LinEq1:  Iter=  5 NonCon=     1 RMS=4.95D-07 Max=3.67D-06 NDo=     1
 LinEq1:  Iter=  6 NonCon=     1 RMS=3.71D-08 Max=2.10D-07 NDo=     1
 LinEq1:  Iter=  7 NonCon=     1 RMS=3.27D-09 Max=2.38D-08 NDo=     1
 LinEq1:  Iter=  8 NonCon=     1 RMS=4.09D-10 Max=3.25D-09 NDo=     1
 LinEq1:  Iter=  9 NonCon=     0 RMS=7.28D-11 Max=4.41D-10 NDo=     1
 Linear equations converged to 1.000D-10 1.000D-09 after     9 iterations.
 End of Minotr F.D. properties file   721 does not exist.
 End of Minotr F.D. properties file   722 does not exist.
 End of Minotr F.D. properties file   788 does not exist.
 Calling FoFJK, ICntrl=  10002127 FMM=F ISym2X=1 I1Cent= 0 IOpClX= 1 NMat=1 NMatS=1 NMatT=0.
 ***** Axes restored to original set *****
 -------------------------------------------------------------------
 Center     Atomic                   Forces (Hartrees/Bohr)
 Number     Number              X              Y              Z
 -------------------------------------------------------------------
      1        6          -0.000011259    0.000019502   -0.000007961
      2        1           0.000011140   -0.000019295   -0.000039132
      3        1          -0.000033180   -0.000019295    0.000023547
      4        1           0.000033300    0.000019088    0.000023547
 -------------------------------------------------------------------
 Cartesian Forces:  Max     0.000039132 RMS     0.000023547

 GradGradGradGradGradGradGradGradGradGradGradGradGradGradGradGradGradGrad
 Berny optimization.
 Using GEDIIS/GDIIS optimizer.
 FormGI is forming the generalized inverse of G from B-inverse, IUseBI=4.
 Internal  Forces:  Max     0.000044326 RMS     0.000029497
 Search for a local minimum.
 Step number   6 out of a maximum of   20
 All quantities printed in internal units (Hartrees-Bohrs-Radians)
 Mixed Optimization -- En-DIIS/RFO-DIIS
 Swapping is turned off.
 Update second derivatives using D2CorX and points    3    4    5    6
 DE= -1.74D-06 DEPred=-1.22D-06 R= 1.42D+00
 TightC=F SS=  1.41D+00  RLast= 1.84D-02 DXNew= 1.2000D+00 5.5313D-02
 Trust test= 1.42D+00 RLast= 1.84D-02 DXMaxT set to 7.14D-01
 The second derivative matrix:
                          R1        R2        R3        A1        A2
           R1           0.38251
           R2           0.01021   0.38251
           R3           0.01021   0.01021   0.38251
           A1          -0.01018  -0.01018  -0.01018   0.11281
           A2          -0.00338  -0.00338  -0.00338  -0.04536   0.11879
           A3          -0.00338  -0.00338  -0.00338  -0.04536  -0.04121
           D1          -0.00135  -0.00135  -0.00135   0.00211   0.00071
                          A3        D1
           A3           0.11879
           D1           0.00071   0.00593
 ITU=  1  1 -1  1  1  0
     Eigenvalues ---    0.00591   0.16000   0.16117   0.37230   0.37230
     Eigenvalues ---    0.40332
 En-DIIS/RFO-DIIS IScMMF=        0 using points:     6    5
 RFO step:  Lambda=-1.16991808D-08.
 DidBck=F Rises=F RFO-DIIS coefs:    0.97498    0.02502
 Iteration  1 RMS(Cart)=  0.00044718 RMS(Int)=  0.00000042
 Iteration  2 RMS(Cart)=  0.00000030 RMS(Int)=  0.00000030
 ClnCor:  largest displacement from symmetrization is 1.46D-05 for atom     4.
 Variable       Old X    -DE/DX   Delta X   Delta X   Delta X     New X
                                 (Linear)    (Quad)   (Total)
    R1        2.03881  -0.00004   0.00003  -0.00013  -0.00011   2.03870
    R2        2.03881  -0.00004   0.00003  -0.00013  -0.00011   2.03870
    R3        2.03881  -0.00004   0.00003  -0.00013  -0.00011   2.03870
    A1        2.09439   0.00000   0.00000  -0.00002   0.00000   2.09440
    A2        2.09439   0.00000   0.00000   0.00001   0.00000   2.09440
    A3        2.09439   0.00000   0.00000   0.00001   0.00000   2.09440
    D1        3.13913   0.00001   0.00046   0.00184   0.00229   3.14143
         Item               Value     Threshold  Converged?
 Maximum Force            0.000044     0.000450     YES
 RMS     Force            0.000029     0.000300     YES
 Maximum Displacement     0.000827     0.001800     YES
 RMS     Displacement     0.000448     0.001200     YES
 Predicted change in Energy=-2.281889D-08
 Optimization completed.
    -- Stationary point found.
                           ----------------------------
                           !   Optimized Parameters   !
                           ! (Angstroms and Degrees)  !
 --------------------------                            --------------------------
 ! Name  Definition              Value          Derivative Info.                !
 --------------------------------------------------------------------------------
 ! R1    R(1,2)                  1.0789         -DE/DX =    0.0                 !
 ! R2    R(1,3)                  1.0789         -DE/DX =    0.0                 !
 ! R3    R(1,4)                  1.0789         -DE/DX =    0.0                 !
 ! A1    A(2,1,3)              119.9999         -DE/DX =    0.0                 !
 ! A2    A(2,1,4)              119.9999         -DE/DX =    0.0                 !
 ! A3    A(3,1,4)              119.9999         -DE/DX =    0.0                 !
 ! D1    D(2,1,4,3)            179.8589         -DE/DX =    0.0                 !
 --------------------------------------------------------------------------------
 GradGradGradGradGradGradGradGradGradGradGradGradGradGradGradGradGradGrad

                          Input orientation:                          
[...]
               1
     1  C    0.000000
 Electronic spatial extent (au):  <R**2>=             29.8060
 Charge=              0.0000 electrons
 Dipole moment (field-independent basis, Debye):
    X=              0.0000    Y=              0.0000    Z=              0.0083  Tot=              0.0083
 Quadrupole moment (field-independent basis, Debye-Ang):
   XX=             -7.2035   YY=             -7.2035   ZZ=             -8.9101
   XY=              0.0000   XZ=              0.0000   YZ=              0.0000
 Traceless Quadrupole moment (field-independent basis, Debye-Ang):
   XX=              0.5688   YY=              0.5688   ZZ=             -1.1377
   XY=              0.0000   XZ=              0.0000   YZ=              0.0000
 Octapole moment (field-independent basis, Debye-Ang**2):
  XXX=              0.0000  YYY=              0.8754  ZZZ=              0.0123  XYY=              0.0000
  XXY=             -0.8754  XXZ=              0.0052  XZZ=              0.0000  YZZ=              0.0000
  YYZ=              0.0052  XYZ=              0.0000
 Hexadecapole moment (field-independent basis, Debye-Ang**3):
 XXXX=            -14.5700 YYYY=            -14.5700 ZZZZ=            -10.0886 XXXY=              0.0000
 XXXZ=              0.0000 YYYX=              0.0000 YYYZ=              0.0010 ZZZX=              0.0000
 ZZZY=              0.0000 XXYY=             -4.8567 XXZZ=             -4.4910 YYZZ=             -4.4910
 XXYZ=             -0.0010 YYXZ=              0.0000 ZZXY=              0.0000
 N-N= 9.678224703427D+00 E-N=-1.111981584134D+02  KE= 3.968186511017D+01
  Exact polarizability:  12.376   0.000  12.376   0.000   0.000   7.882
 Approx polarizability:   9.779   0.000   9.779   0.000   0.000   6.292
                          Isotropic Fermi Contact Couplings
        Atom                 a.u.       MegaHertz       Gauss      10(-4) cm-1
     1  C(13)              0.05770      64.86535      23.14557      21.63675
     2  H(1)              -0.01730     -77.34740     -27.59948     -25.80032
     3  H(1)              -0.01730     -77.34740     -27.59948     -25.80032
     4  H(1)              -0.01730     -77.34740     -27.59948     -25.80032
 --------------------------------------------------------
       Center         ----  Spin Dipole Couplings  ----
                      3XX-RR        3YY-RR        3ZZ-RR
 --------------------------------------------------------
     1   Atom       -0.564048     -0.564048      1.128097
     2   Atom       -0.076381      0.077590     -0.001209
     3   Atom        0.039097     -0.037888     -0.001209
     4   Atom        0.039097     -0.037888     -0.001209
 --------------------------------------------------------
                        XY            XZ            YZ
 --------------------------------------------------------
     1   Atom        0.000000      0.000000      0.000000
     2   Atom        0.000000      0.000000     -0.000022
     3   Atom        0.066671      0.000019      0.000011
     4   Atom       -0.066671     -0.000019      0.000011
 --------------------------------------------------------


 ---------------------------------------------------------------------------------
              Anisotropic Spin Dipole Couplings in Principal Axis System
 ---------------------------------------------------------------------------------

       Atom             a.u.   MegaHertz   Gauss  10(-4) cm-1        Axes

              Baa    -0.5640   -75.690   -27.008   -25.247  0.2547  0.9670  0.0000
     1 C(13)  Bbb    -0.5640   -75.690   -27.008   -25.247  0.9670 -0.2547  0.0000
              Bcc     1.1281   151.380    54.016    50.495  0.0000  0.0000  1.0000
 
              Baa    -0.0764   -40.753   -14.542   -13.594  1.0000  0.0000  0.0000
     2 H(1)   Bbb    -0.0012    -0.645    -0.230    -0.215  0.0000  0.0003  1.0000
              Bcc     0.0776    41.398    14.772    13.809  0.0000  1.0000 -0.0003
 
              Baa    -0.0764   -40.753   -14.542   -13.594 -0.5000  0.8660  0.0000
     3 H(1)   Bbb    -0.0012    -0.645    -0.230    -0.215 -0.0002 -0.0001  1.0000
              Bcc     0.0776    41.398    14.772    13.809  0.8660  0.5000  0.0003
 
              Baa    -0.0764   -40.753   -14.542   -13.594  0.5000  0.8660  0.0000
     4 H(1)   Bbb    -0.0012    -0.645    -0.230    -0.215  0.0002 -0.0001  1.0000
              Bcc     0.0776    41.398    14.772    13.809  0.8660 -0.5000 -0.0003
 

 ---------------------------------------------------------------------------------

 -------------------------------------------------------------------
 Center     Atomic                   Forces (Hartrees/Bohr)
 Number     Number              X              Y              Z
 -------------------------------------------------------------------
      1        6           0.000000000    0.000000000   -0.000127033
      2        1           0.000000000   -0.000044341    0.000042344
      3        1           0.000038401    0.000022171    0.000042344
      4        1          -0.000038401    0.000022171    0.000042344
 -------------------------------------------------------------------
 Cartesian Forces:  Max     0.000127033 RMS     0.000047797
 NDeriv=   3 NFrqRd=  0 NDerD0=   0 MskFDP=       0 MskDFD=       0 MskDF0=       0
 Re-enter D2Numr: IAtom=  0 IXYZ=3 IStep= 2.
 Max difference between analytic and numerical Dipole moment IMax=       3 EMax= 1.77D-06
 Max difference between analytic and numerical Dipole derivatives IMax=      15 EMax= 1.55D-05
 Max difference between off-diagonal Polarizability IMax=       2 JMax=       3 EMax= 5.02D-08
 Max difference between analytic and numerical Polarizability IMax=       6 EMax= 1.75D-04
 Max difference between off-diagonal HyperPolarizability IMax=       2 JMax=       2 KMax=       3 EMax= 9.71D-04
 Final packed hyperpolarizability:
 K=  1 block:
                1 
      1  0.000000D+00
 K=  2 block:
                1             2 
      1 -0.250338D+02
      2  0.000000D+00  0.250338D+02
 K=  3 block:
                1             2             3 
      1  0.255735D-01
      2  0.000000D+00  0.255726D-01
      3  0.000000D+00 -0.625994D-05  0.104607D-01
 Max difference between off-diagonal Polar Derivs IMax=       1 JMax=       3 KMax=       1 EMax= 2.83D-04
 Full mass-weighted force constant matrix:
 Low frequencies ---   -0.0009    0.0004    0.0010   23.8709   23.8746   23.8746
 Low frequencies ---  424.6829 1446.7257 1446.7257
 Diagonal vibrational polarizability:
        0.0486471       0.0486471      12.3462495
 Diagonal vibrational hyperpolarizability:
        0.0000000      -1.4376644       0.0664838
 Harmonic frequencies (cm**-1), IR intensities (KM/Mole), Raman scattering
 activities (A**4/AMU), depolarization ratios for plane and unpolarized
 incident light, reduced masses (AMU), force constants (mDyne/A),
 and normal coordinates:
                      1                      2                      3
                     A1                     ?A                     ?A
 Frequencies --    424.6829              1446.7257              1446.7257
 Red. masses --      1.2356                 1.1021                 1.1021
 Frc consts  --      0.1313                 1.3590                 1.3590
 IR Inten    --     82.7431                 3.0237                 3.0237
 Raman Activ --      0.0000                 2.0329                 2.0329
 Depolar (P) --      0.0123                 0.7500                 0.7500
 Depolar (U) --      0.0242                 0.8571                 0.8571
  Atom  AN      X      Y      Z        X      Y      Z        X      Y      Z
     1   6     0.00   0.00   0.14     0.00   0.09   0.00    -0.09   0.00   0.00
     2   1     0.00   0.00  -0.57     0.00   0.07   0.00     0.81   0.00   0.00
     3   1     0.00   0.00  -0.57     0.38  -0.59   0.00     0.15  -0.38   0.00
     4   1     0.00   0.00  -0.57    -0.38  -0.59   0.00     0.15   0.38   0.00
                      4                      5                      6
                     ?B                     ?A                     ?A
 Frequencies --   3178.8007              3371.6871              3371.6871
 Red. masses --      1.0078                 1.1184                 1.1184
 Frc consts  --      6.0001                 7.4908                 7.4908
 IR Inten    --      0.0000                 4.1268                 4.1268
 Raman Activ --    121.9063                32.0151                32.0152
 Depolar (P) --      0.1247                 0.7500                 0.7500
 Depolar (U) --      0.2217                 0.8571                 0.8571
  Atom  AN      X      Y      Z        X      Y      Z        X      Y      Z
     1   6     0.00   0.00   0.00     0.00   0.10   0.00     0.10   0.00   0.00
     2   1     0.00   0.58   0.00     0.00  -0.81   0.00     0.02   0.00   0.00
     3   1    -0.50  -0.29   0.00    -0.36  -0.19   0.00    -0.60  -0.36   0.00
     4   1     0.50  -0.29   0.00     0.36  -0.19   0.00    -0.61   0.36   0.00

 -------------------
 - Thermochemistry -
 -------------------
 Temperature   298.150 Kelvin.  Pressure   1.00000 Atm.
 Atom     1 has atomic number  6 and mass  12.00000
 Atom     2 has atomic number  1 and mass   1.00783
 Atom     3 has atomic number  1 and mass   1.00783
 Atom     4 has atomic number  1 and mass   1.00783
 Molecular mass:    15.02348 amu.
 Principal axes and moments of inertia in atomic units:
                           1         2         3
     Eigenvalues --     6.28390   6.28390  12.56780
           X            0.32377   0.94613   0.00000
           Y            0.94613  -0.32377   0.00000
           Z            0.00000   0.00000   1.00000
 This molecule is an oblate symmetric top.
 Rotational symmetry number  3.
 Rotational temperatures (Kelvin)     13.78344    13.78344     6.89172
 Rotational constants (GHZ):         287.20059   287.20059   143.60041
 Zero-point vibrational energy      79194.6 (Joules/Mol)
                                   18.92797 (Kcal/Mol)
 Warning -- explicit consideration of   1 degrees of freedom as
           vibrations may cause significant error
 Vibrational temperatures:    611.02  2081.51  2081.51  4573.58  4851.10
          (Kelvin)           4851.10
 
 Zero-point correction=                           0.030164 (Hartree/Particle)
 Thermal correction to Energy=                    0.033295
 Thermal correction to Enthalpy=                  0.034239
 Thermal correction to Gibbs Free Energy=         0.011367
 Sum of electronic and zero-point Energies=            -39.695509
 Sum of electronic and thermal Energies=               -39.692378
 Sum of electronic and thermal Enthalpies=             -39.691434
 Sum of electronic and thermal Free Energies=          -39.714306
 
                     E (Thermal)             CV                S
                      KCal/Mol        Cal/Mol-Kelvin    Cal/Mol-Kelvin
 Total                   20.893              7.559             48.138
 Electronic               0.000              0.000              1.377
 Translational            0.889              2.981             34.068
 Rotational               0.889              2.981             11.787
 Vibrational             19.115              1.597              0.906
 Vibration     1          0.787              1.417              0.876
                       Q            Log10(Q)             Ln(Q)
 Total Bot       0.591070D-05         -5.228361        -12.038747
 Total V=0       0.442509D+09          8.645922         19.907971
 Vib (Bot)       0.153608D-13        -13.813587        -31.806959
 Vib (Bot)    1  0.411976D+00         -0.385128         -0.886791
 Vib (V=0)       0.115000D+01          0.060697          0.139760
 Vib (V=0)    1  0.114786D+01          0.059889          0.137900
 Electronic      0.200000D+01          0.301030          0.693147
 Translational   0.228882D+07          6.359611         14.643545
 Rotational      0.840590D+02          1.924584          4.431519
 ***** Axes restored to original set *****
 -------------------------------------------------------------------
 Center     Atomic                   Forces (Hartrees/Bohr)
 Number     Number              X              Y              Z
 -------------------------------------------------------------------
      1        6          -0.000011259    0.000019501   -0.000007961
      2        1           0.000011140   -0.000019295   -0.000039132
      3        1          -0.000033181   -0.000019295    0.000023547
      4        1           0.000033300    0.000019088    0.000023547
 -------------------------------------------------------------------
 Cartesian Forces:  Max     0.000039132 RMS     0.000023547

 GradGradGradGradGradGradGradGradGradGradGradGradGradGradGradGradGradGrad
 Berny optimization.
 Internal  Forces:  Max     0.000044326 RMS     0.000029497
 Search for a local minimum.
 Step number   1 out of a maximum of    2
 All quantities printed in internal units (Hartrees-Bohrs-Radians)
 Second derivative matrix not updated -- analytic derivatives used.
 The second derivative matrix:
                          R1        R2        R3        A1        A2
           R1           0.38663
           R2          -0.00062   0.38663
           R3          -0.00062  -0.00062   0.38663
           A1           0.00562   0.00562  -0.01124   0.06641
           A2           0.00562  -0.01124   0.00562  -0.03321   0.06641
           A3          -0.01124   0.00562   0.00562  -0.03321  -0.03321
           D1           0.00003   0.00003   0.00003  -0.00001   0.00001
                          A3        D1
           A3           0.06641
           D1           0.00001   0.00569
 ITU=  0
     Eigenvalues ---    0.00569   0.09864   0.09864   0.38539   0.38824
     Eigenvalues ---    0.38824
 Angle between quadratic step and forces=  75.03 degrees.
 Linear search not attempted -- first point.
 Iteration  1 RMS(Cart)=  0.00048055 RMS(Int)=  0.00000067
 Iteration  2 RMS(Cart)=  0.00000034 RMS(Int)=  0.00000057
 ClnCor:  largest displacement from symmetrization is 8.37D-08 for atom     3.
 Variable       Old X    -DE/DX   Delta X   Delta X   Delta X     New X
                                 (Linear)    (Quad)   (Total)
    R1        2.03881  -0.00004   0.00000  -0.00012  -0.00012   2.03869
    R2        2.03881  -0.00004   0.00000  -0.00012  -0.00012   2.03869
    R3        2.03881  -0.00004   0.00000  -0.00012  -0.00012   2.03869
    A1        2.09439   0.00000   0.00000   0.00000   0.00000   2.09440
    A2        2.09439   0.00000   0.00000   0.00000   0.00000   2.09440
    A3        2.09439   0.00000   0.00000   0.00000   0.00000   2.09440
    D1        3.13913   0.00001   0.00000   0.00246   0.00246  -3.14159
         Item               Value     Threshold  Converged?
 Maximum Force            0.000044     0.000450     YES
 RMS     Force            0.000029     0.000300     YES
 Maximum Displacement     0.000888     0.001800     YES
 RMS     Displacement     0.000481     0.001200     YES
 Predicted change in Energy=-2.491095D-08
 Optimization completed.
    -- Stationary point found.
                           ----------------------------
                           !   Optimized Parameters   !
                           ! (Angstroms and Degrees)  !
 --------------------------                            --------------------------
 ! Name  Definition              Value          Derivative Info.                !
 --------------------------------------------------------------------------------
 ! R1    R(1,2)                  1.0789         -DE/DX =    0.0                 !
 ! R2    R(1,3)                  1.0789         -DE/DX =    0.0                 !
 ! R3    R(1,4)                  1.0789         -DE/DX =    0.0                 !
 ! A1    A(2,1,3)              119.9999         -DE/DX =    0.0                 !
 ! A2    A(2,1,4)              119.9999         -DE/DX =    0.0                 !
 ! A3    A(3,1,4)              119.9999         -DE/DX =    0.0                 !
 ! D1    D(2,1,4,3)           -180.1411         -DE/DX =    0.0                 !
 --------------------------------------------------------------------------------
 GradGradGradGradGradGradGradGradGradGradGradGradGradGradGradGradGradGrad

 1\1\GINC-TC-NODE162\Freq\UMP2-Full\6-311G(d,p)\C1H3(2)\EPKTB\21-Oct-20
 16\0\\#N Geom=AllCheck Guess=TCheck SCRF=Check GenChk UMP2-Full/6-311G
 (d,p) Freq\\Title Card Required\\0,2\C,0.1264285254,-0.2189806313,0.08
 93984671\H,-0.0537480653,0.0930943962,1.1063310456\H,1.0251428871,0.09
 30943857,-0.419451192\H,-0.5931935637,-0.8412525818,-0.4194511809\\Ver
 sion=ES64L-G09RevD.01\HF=-39.572851\MP2=-39.7256726\PUHF=-39.5758729\P
 MP2-0=-39.7276154\S2=0.761502\S2-1=0.753256\S2A=0.750073\RMSD=8.399e-1
 0\RMSF=2.355e-05\ZeroPoint=0.0301636\Thermal=0.0332946\Dipole=-0.00030
 92,0.0005356,-0.0002187\DipoleDeriv=-0.0888697,0.180069,-0.0735129,0.1
 80069,-0.2967955,0.127328,-0.0735129,0.127328,-0.0368883,0.0652186,-0.
 0362527,0.0323479,-0.0362527,0.1070795,-0.0560281,0.0322793,-0.0559094
 ,-0.0314469,-0.0003959,-0.0647961,0.0554775,-0.064908,0.1070795,-0.015
 5033,0.0555461,-0.0155429,0.0341676,0.0240471,-0.0790203,-0.0143125,-0
 .0789083,0.0826365,-0.0557966,-0.0143125,-0.0558758,0.0341676\Polar=11
 .3773607,1.72955,9.3802483,-0.7060858,1.2229766,11.8766388\PolarDeriv=
 -1.4128817,0.2446291,0.851488,2.61646,1.7455844,0.5731684,0.2415523,0.
 8497116,0.7308102,1.7455844,0.6008326,-0.9927569,2.6177163,1.7455812,0
 .6020926,0.5713927,-0.9896813,-3.2114803,-0.4933425,0.3217781,-0.24161
 22,1.1348894,-0.4451464,-0.7356035,0.3147113,-0.2456922,0.9582676,-0.4
 451464,1.6489002,1.2741027,0.770553,0.1420703,0.6065043,-0.9788689,1.6
 954508,6.9166979,5.2987505,1.4475725,0.4912804,-2.2192706,-0.2559553,1
 .5392189,0.8877118,1.4727003,0.9582698,-0.6477323,-0.7812705,0.7011045
 ,-1.8684713,-0.8431725,-0.4299618,1.8016231,0.5696545,-1.8526089,-3.39
 25264,-2.0139797,-1.1011562,-1.5320788,-1.0444827,-1.3767838,-1.443975
 4,-2.0767197,-2.6473476,-0.6527057,-1.4684623,-0.9824504,-1.519798,-1.
 0444791,-0.7786351,-1.3941468,-1.2754241,-1.8526088\HyperPolar=9.24255
 28,-1.5970623,-5.5542965,-4.7911858,-17.0495734,-11.3640613,-3.927485,
 -3.7172975,6.4385491,20.9565205\DQPolar=2.650384,-1.5872246,-1.0631594
 ,-0.4587833,-4.8850469,-3.2574848,-0.46194,-1.3795063,1.8414463,-1.589
 0471,-3.2574848,-1.1236272,-4.8837507,-1.1223388,6.0060895,-3.2574781,
 -1.0649848,1.844608\Quadrupole=0.1409713,-0.4229139,0.2819426,0.488338
 9,-0.1993635,0.3453078\PG=C03V [C3(C1),3SGV(H1)]\NImag=0\\0.50594665,0
 .24222147,0.22625338,-0.09888650,0.17127645,0.57586997,-0.05481895,-0.
 00481413,0.05785780,0.04715366,-0.00481413,-0.04926008,-0.10021265,0.0
 0138563,0.04555367,0.05781411,-0.10013698,-0.33194431,-0.06055827,0.10
 489000,0.34372433,-0.26480043,-0.09601475,0.13205377,0.00090722,-0.001
 53535,-0.00244062,0.27270878,-0.09608609,-0.04926007,0.02886541,0.0083
 4184,0.00477863,-0.00457777,0.09935312,0.04555367,0.13209746,0.0288401
 9,-0.12196283,0.02166610,0.00939069,-0.00589001,-0.14030405,-0.0336569
 5,0.11816921,-0.18632728,-0.14139259,-0.09102507,0.00675808,0.00496385
 ,0.00518478,-0.00881557,-0.01160887,-0.01345951,0.18838477,-0.14132125
 ,-0.12773323,-0.09992921,-0.00491335,-0.00107222,-0.00017525,-0.001803
 01,-0.00107222,-0.00457393,0.14803761,0.12987768,-0.09102507,-0.099979
 66,-0.12196283,-0.01896563,-0.01406805,-0.00589001,0.01069090,0.009369
 31,0.00968364,0.09929980,0.10467840,0.11816921\\0.00001126,-0.00001950
 ,0.00000796,-0.00001114,0.00001929,0.00003913,0.00003318,0.00001929,-0
 .00002355,-0.00003330,-0.00001909,-0.00002355\\\@


 ALL PAPERS THAT YOU SAVE WILL NEVER BE NEEDED UNTIL
 SUCH TIME AS THEY ARE DISPOSED OF, WHEN THEY BECOME
 ESSENTIAL.

           -- JOHN CORCORAN IN
              PAUL DICKSON'S "THE OFFICIAL RULES"
 Job cpu time:       0 days  0 hours  2 minutes 47.1 seconds.
 File lengths (MBytes):  RWF=     72 Int=      0 D2E=      0 Chk=     39 Scr=      1
 Normal termination of Gaussian 09 at Fri Oct 21 11:18:07 2016.
