 Entering Gaussian System, Link 0=g09
 Initial command:
 /cluster/software/gaussian/gaussian-09-D.01/g09/l1.exe "/local/scratch/epktb/Gau-30301.inp" -scrdir="/local/scratch/epktb/"
 Entering Link 1 = /cluster/software/gaussian/gaussian-09-D.01/g09/l1.exe PID=     30302.
  
 Copyright (c) 1988,1990,1992,1993,1995,1998,2003,2009,2013,
            Gaussian, Inc.  All Rights Reserved.
  
 This is part of the Gaussian(R) 09 program.  It is based on
 the Gaussian(R) 03 system (copyright 2003, Gaussian, Inc.),
 the Gaussian(R) 98 system (copyright 1998, Gaussian, Inc.),
 the Gaussian(R) 94 system (copyright 1995, Gaussian, Inc.),
 the Gaussian 92(TM) system (copyright 1992, Gaussian, Inc.),
 the Gaussian 90(TM) system (copyright 1990, Gaussian, Inc.),
 the Gaussian 88(TM) system (copyright 1988, Gaussian, Inc.),
 the Gaussian 86(TM) system (copyright 1986, Carnegie Mellon
 University), and the Gaussian 82(TM) system (copyright 1983,
 Carnegie Mellon University). Gaussian is a federally registered
 trademark of Gaussian, Inc.
  
 This software contains proprietary and confidential information,
 including trade secrets, belonging to Gaussian, Inc.
  
 This software is provided under written license and may be
 used, copied, transmitted, or stored only in accord with that
 written license.
  
 The following legend is applicable only to US Government
 contracts under FAR:
  
                    RESTRICTED RIGHTS LEGEND
  
 Use, reproduction and disclosure by the US Government is
 subject to restrictions as set forth in subparagraphs (a)
 and (c) of the Commercial Computer Software - Restricted
 Rights clause in FAR 52.227-19.
  
 Gaussian, Inc.
 340 Quinnipiac St., Bldg. 40, Wallingford CT 06492
  
  
 ---------------------------------------------------------------
 Warning -- This program may not be used in any manner that
 competes with the business of Gaussian, Inc. or will provide
 assistance to any competitor of Gaussian, Inc.  The licensee
 of this program is prohibited from giving any competitor of
 Gaussian, Inc. access to this program.  By using this program,
 the user acknowledges that Gaussian, Inc. is engaged in the
 business of creating and licensing software in the field of
 computational chemistry and represents and warrants to the
 licensee that it is not a competitor of Gaussian, Inc. and that
 it will not use this program in any manner prohibited above.
 ---------------------------------------------------------------
  

 Cite this work as:
 Gaussian 09, Revision D.01,
 M. J. Frisch, G. W. Trucks, H. B. Schlegel, G. E. Scuseria, 
 M. A. Robb, J. R. Cheeseman, G. Scalmani, V. Barone, B. Mennucci, 
 G. A. Petersson, H. Nakatsuji, M. Caricato, X. Li, H. P. Hratchian, 
 A. F. Izmaylov, J. Bloino, G. Zheng, J. L. Sonnenberg, M. Hada, 
 M. Ehara, K. Toyota, R. Fukuda, J. Hasegawa, M. Ishida, T. Nakajima, 
 Y. Honda, O. Kitao, H. Nakai, T. Vreven, J. A. Montgomery, Jr., 
 J. E. Peralta, F. Ogliaro, M. Bearpark, J. J. Heyd, E. Brothers, 
 K. N. Kudin, V. N. Staroverov, T. Keith, R. Kobayashi, J. Normand, 
 K. Raghavachari, A. Rendell, J. C. Burant, S. S. Iyengar, J. Tomasi, 
 M. Cossi, N. Rega, J. M. Millam, M. Klene, J. E. Knox, J. B. Cross, 
 V. Bakken, C. Adamo, J. Jaramillo, R. Gomperts, R. E. Stratmann, 
 O. Yazyev, A. J. Austin, R. Cammi, C. Pomelli, J. W. Ochterski, 
 R. L. Martin, K. Morokuma, V. G. Zakrzewski, G. A. Voth, 
 P. Salvador, J. J. Dannenberg, S. Dapprich, A. D. Daniels, 
 O. Farkas, J. B. Foresman, J. V. Ortiz, J. Cioslowski, 
 and D. J. Fox, Gaussian, Inc., Wallingford CT, 2013.
 
 ******************************************
 Gaussian 09:  ES64L-G09RevD.01 24-Apr-2013
                21-Oct-2016 
 ******************************************
 %mem=6GB
 %nprocshared=6
 Will use up to    6 processors via shared memory.
 %oldchk=h3c+-gasopt
 %chk=h3c+-solopt
 Copying data from "h3c+-gasopt.chk" to current chk file "h3c+-solopt.chk".
 ----------------------------------------------------------------------
 # opt freq=raman scrf=(smd,solvent=water) mp2(full)/6-311G** geom=chec
 k
 ----------------------------------------------------------------------
 1/14=-1,18=20,19=15,29=2,38=1/1,3;
 2/9=110,12=2,40=1/2;
 3/5=4,6=6,7=101,11=9,14=-4,16=1,25=1,30=1,70=32201,71=1,72=1/1,2,3;
 4//1;
 5/5=2,38=5,53=1/2;
 8/6=4,10=90/1;
 9/15=2,16=-3/6;
 10/5=1/2;
 6/7=2,8=2,9=2,10=2/1;
 7/12=2/1,2,3,16;
 1/14=-1,18=20,19=15/3(2);
 2/9=110/2;
 99//99;
 2/9=110/2;
 3/5=4,6=6,7=101,11=9,14=-2,16=1,25=1,30=1,70=32205,71=1,72=1/1,2,3;
 4/5=5,16=3,69=1/1;
 5/5=2,38=5,53=1/2;
 8/6=4,10=90/1;
 9/15=2,16=-3/6;
 10/5=1/2;
 7/12=2/1,2,3,16;
 1/14=-1,18=20,19=15/3(-8);
 2/9=110/2;
 6/7=2,8=2,9=2,10=2/1;
 99//99;
 -------------------
 Title Card Required
 -------------------
 Structure from the checkpoint file:  "h3c+-solopt.chk"
 Charge =  0 Multiplicity = 2
 Redundant internal coordinates found in file.
 C,0,0.1264285254,-0.2189806313,0.0893984671
 H,0,-0.0537480653,0.0930943962,1.1063310456
 H,0,1.0251428871,0.0930943857,-0.419451192
 H,0,-0.5931935637,-0.8412525818,-0.4194511809
 Recover connectivity data from disk.

 GradGradGradGradGradGradGradGradGradGradGradGradGradGradGradGradGradGrad
 Berny optimization.
 Initialization pass.
                           ----------------------------
                           !    Initial Parameters    !
                           ! (Angstroms and Degrees)  !
 --------------------------                            --------------------------
 ! Name  Definition              Value          Derivative Info.                !
 --------------------------------------------------------------------------------
 ! R1    R(1,2)                  1.0789         estimate D2E/DX2                !
 ! R2    R(1,3)                  1.0789         estimate D2E/DX2                !
 ! R3    R(1,4)                  1.0789         estimate D2E/DX2                !
 ! A1    A(2,1,3)              119.9999         estimate D2E/DX2                !
 ! A2    A(2,1,4)              119.9999         estimate D2E/DX2                !
 ! A3    A(3,1,4)              119.9999         estimate D2E/DX2                !
 ! D1    D(2,1,4,3)            179.8589         estimate D2E/DX2                !
 --------------------------------------------------------------------------------
 Trust Radius=3.00D-01 FncErr=1.00D-07 GrdErr=1.00D-07
 Number of steps in this run=     20 maximum allowed number of steps=    100.
 GradGradGradGradGradGradGradGradGradGradGradGradGradGradGradGradGradGrad

                          Input orientation:                          
 ---------------------------------------------------------------------
 Center     Atomic      Atomic             Coordinates (Angstroms)
 Number     Number       Type             X           Y           Z
 ---------------------------------------------------------------------
      1          6           0        0.126429   -0.218981    0.089398
      2          1           0       -0.053748    0.093094    1.106331
      3          1           0        1.025143    0.093094   -0.419451
      4          1           0       -0.593194   -0.841253   -0.419451
 ---------------------------------------------------------------------
                    Distance matrix (angstroms):
                    1          2          3          4
     1  C    0.000000
     2  H    1.078891   0.000000
     3  H    1.078891   1.868694   0.000000
     4  H    1.078891   1.868694   1.868694   0.000000
 Stoichiometry    CH3(2)
 Framework group  C3V[C3(C),3SGV(H)]
 Deg. of freedom     2
 Full point group                 C3V     NOp   6
 Largest Abelian subgroup         CS      NOp   2
 Largest concise Abelian subgroup CS      NOp   2
                         Standard orientation:                         
 ---------------------------------------------------------------------
 Center     Atomic      Atomic             Coordinates (Angstroms)
 Number     Number       Type             X           Y           Z
 ---------------------------------------------------------------------
      1          6           0        0.000000    0.000000   -0.000256
      2          1           0        0.000000    1.078891    0.000511
      3          1           0       -0.934347   -0.539445    0.000511
      4          1           0        0.934347   -0.539445    0.000511
 ---------------------------------------------------------------------
 Rotational constants (GHZ):    287.2005938    287.2005938    143.6004127
 Standard basis: 6-311G(d,p) (5D, 7F)
 There are    25 symmetry adapted cartesian basis functions of A'  symmetry.
 There are    12 symmetry adapted cartesian basis functions of A"  symmetry.
 There are    24 symmetry adapted basis functions of A'  symmetry.
 There are    12 symmetry adapted basis functions of A"  symmetry.
    36 basis functions,    56 primitive gaussians,    37 cartesian basis functions
     5 alpha electrons        4 beta electrons
       nuclear repulsion energy         9.6782247034 Hartrees.
 NAtoms=    4 NActive=    4 NUniq=    2 SFac= 4.00D+00 NAtFMM=   60 NAOKFM=F Big=F
 Integral buffers will be    131072 words long.
 Raffenetti 2 integral format.
 Two-electron integral symmetry is turned on.
 ------------------------------------------------------------------------------
 Polarizable Continuum Model (PCM)
 =================================
 Model                : PCM (using non-symmetric T matrix).
 Atomic radii         : SMD-Coulomb.
 Polarization charges : Total charges.
 Charge compensation  : None.
 Solution method      : On-the-fly selection.
 Cavity type          : VdW (van der Waals Surface) (Alpha=1.000).
 Cavity algorithm     : GePol (No added spheres)
                        Default sphere list used, NSphG=    4.
                        Lebedev-Laikov grids with approx.  5.0 points / Ang**2.
                        Smoothing algorithm: Karplus/York (Gamma=1.0000).
                        Polarization charges: spherical gaussians, with
                                              point-specific exponents (IZeta= 3).
                        Self-potential: point-specific (ISelfS= 7).
                        Self-field    : sphere-specific E.n sum rule (ISelfD= 2).
 1st derivatives      : Analytical E(r).r(x)/FMM algorithm (CHGder, D1EAlg=3).
                        Cavity 1st derivative terms included.
 Solvent              : Water, Eps=  78.355300 Eps(inf)=   1.777849
 ------------------------------------------------------------------------------
 Spheres list:
 ISph  on   Nord     Re0    Alpha      Xe            Ye            Ze
    1   C      1    1.8500  1.000      0.000000      0.000000     -0.000256
    2   H      2    1.2000  1.000      0.000000      1.078891      0.000511
    3   H      3    1.2000  1.000     -0.934347     -0.539445      0.000511
    4   H      4    1.2000  1.000      0.934347     -0.539445      0.000511
 ------------------------------------------------------------------------------
 ------------------------------------------------------------------------------
 Atomic radii for non-electrostatic terms: SMD-CDS.
 ------------------------------------------------------------------------------
 Nuclear repulsion after PCM non-electrostatic terms =        9.6843827717 Hartrees.
 One-electron integrals computed using PRISM.
 NBasis=    36 RedAO= T EigKep=  2.03D-02  NBF=    24    12
 NBsUse=    36 1.00D-06 EigRej= -1.00D+00 NBFU=    24    12
 ExpMin= 1.03D-01 ExpMax= 4.56D+03 ExpMxC= 6.82D+02 IAcc=1 IRadAn=         1 AccDes= 0.00D+00
 Harris functional with IExCor=  205 and IRadAn=       1 diagonalized for initial guess.
 HarFok:  IExCor=  205 AccDes= 0.00D+00 IRadAn=         1 IDoV= 1 UseB2=F ITyADJ=14
 ICtDFT=  3500011 ScaDFX=  1.000000  1.000000  1.000000  1.000000
 FoFCou: FMM=F IPFlag=           0 FMFlag=      100000 FMFlg1=           0
         NFxFlg=           0 DoJE=T BraDBF=F KetDBF=T FulRan=T
         wScrn=  0.000000 ICntrl=     500 IOpCl=  0 I1Cent=   200000004 NGrid=           0
         NMat0=    1 NMatS0=      1 NMatT0=    0 NMatD0=    1 NMtDS0=    0 NMtDT0=    0
 Petite list used in FoFCou.
 Initial guess orbital symmetries:
 Alpha Orbitals:
       Occupied  (?A) (?A) (?B) (?B) (A1)
       Virtual   (?A) (?B) (?B) (?B) (?B) (?A) (A1) (?B) (?B) (?A)
                 (E) (E) (?B) (?B) (?A) (?A) (A1) (?B) (?B) (E)
                 (E) (?A) (?B) (?B) (?B) (?B) (A1) (?A) (?B) (?B)
                 (?A)
 Beta  Orbitals:
       Occupied  (?A) (?A) (?B) (?B)
       Virtual   (A1) (?A) (?B) (?B) (?B) (?B) (?A) (A1) (?B) (?B)
                 (?A) (E) (E) (?B) (?B) (?A) (?A) (A1) (?B) (?B)
                 (E) (E) (?A) (?B) (?B) (?B) (?B) (A1) (?A) (?B)
                 (?B) (?A)
 Initial guess <Sx>= 0.0000 <Sy>= 0.0000 <Sz>= 0.5000 <S**2>= 0.7500 S= 0.5000
 Keep R1 and R2 ints in memory in symmetry-blocked form, NReq=3292830.
 Requested convergence on RMS density matrix=1.00D-08 within 128 cycles.
 Requested convergence on MAX density matrix=1.00D-06.
 Requested convergence on             energy=1.00D-06.
 No special actions if energy rises.
 Inv3:  Mode=1 IEnd=      446988.
 Iteration    1 A*A^-1 deviation from unit magnitude is 2.89D-15 for     31.
 Iteration    1 A*A^-1 deviation from orthogonality  is 2.90D-15 for    337     94.
 Iteration    1 A^-1*A deviation from unit magnitude is 2.55D-15 for    363.
 Iteration    1 A^-1*A deviation from orthogonality  is 2.26D-09 for    205    165.
 Iteration    2 A*A^-1 deviation from unit magnitude is 1.44D-15 for     77.
 Iteration    2 A*A^-1 deviation from orthogonality  is 2.00D-15 for    361     70.
 Iteration    2 A^-1*A deviation from unit magnitude is 6.66D-16 for     27.
 Iteration    2 A^-1*A deviation from orthogonality  is 2.78D-16 for    247    231.
 Error on total polarization charges =  0.02328
 SCF Done:  E(UHF) =  -39.5684243628     A.U. after   11 cycles
            NFock= 11  Conv=0.62D-08     -V/T= 2.0006
 <Sx>= 0.0000 <Sy>= 0.0000 <Sz>= 0.5000 <S**2>= 0.7612 S= 0.5056
 <L.S>= 0.000000000000E+00
 SMD-CDS (non-electrostatic) energy       (kcal/mol) =       3.86
 (included in total energy above)
 Annihilation of the first spin contaminant:
 S**2 before annihilation     0.7612,   after     0.7501
 Range of M.O.s used for correlation:     1    36
 NBasis=    36 NAE=     5 NBE=     4 NFC=     0 NFV=     0
 NROrb=     36 NOA=     5 NOB=     4 NVA=    31 NVB=    32
 Fully direct method using O(ONN) memory.
 JobTyp=2 Pass  1:  I=   1 to   5 NPSUse=  6 ParTrn=T ParDer=T DoDerP=T.
 JobTyp=3 Pass  1:  I=   1 to   4 NPSUse=  6 ParTrn=T ParDer=T DoDerP=T.
 Spin components of T(2) and E(2):
     alpha-alpha T2 =       0.6561852956D-02 E2=     -0.2048259341D-01
     alpha-beta  T2 =       0.3486661251D-01 E2=     -0.1248666810D+00
     beta-beta   T2 =       0.2329635504D-02 E2=     -0.7495913581D-02
 (S**2,0)=  0.76121D+00           (S**2,1)=  0.75310D+00
 E(PUHF)=      -0.39571401929D+02        E(PMP2)=      -0.39723173478D+02
 ANorm=    0.1021644802D+01
 E2 =    -0.1528451880D+00 EUMP2 =    -0.39721269550788D+02
          IDoAtm=1111
 NEqPCM:  Using equilibrium solvation (IEInf=0, Eps=  78.3553, EpsInf=   1.7778)
          Differentiating once with respect to electric field.
                with respect to dipole field.
          Differentiating once with respect to nuclear coordinates.
 Keep R1 and R2 ints in memory in symmetry-blocked form, NReq=2060585.
          There are     1 degrees of freedom in the 1st order CPHF.  IDoFFX=0 NUNeed=     1.
 LinEq1:  Iter=  0 NonCon=     1 RMS=2.00D-03 Max=1.26D-02 NDo=     1
 AX will form     1 AO Fock derivatives at one time.
 LinEq1:  Iter=  1 NonCon=     1 RMS=6.76D-04 Max=5.58D-03 NDo=     1
 LinEq1:  Iter=  2 NonCon=     1 RMS=2.52D-04 Max=1.75D-03 NDo=     1
 LinEq1:  Iter=  3 NonCon=     1 RMS=3.48D-05 Max=1.74D-04 NDo=     1
 LinEq1:  Iter=  4 NonCon=     1 RMS=4.65D-06 Max=2.91D-05 NDo=     1
 LinEq1:  Iter=  5 NonCon=     1 RMS=4.68D-07 Max=3.50D-06 NDo=     1
 LinEq1:  Iter=  6 NonCon=     1 RMS=3.77D-08 Max=2.09D-07 NDo=     1
 LinEq1:  Iter=  7 NonCon=     1 RMS=3.26D-09 Max=2.44D-08 NDo=     1
 LinEq1:  Iter=  8 NonCon=     1 RMS=4.24D-10 Max=4.02D-09 NDo=     1
 LinEq1:  Iter=  9 NonCon=     0 RMS=6.98D-11 Max=3.49D-10 NDo=     1
 Linear equations converged to 1.000D-10 1.000D-09 after     9 iterations.
 End of Minotr F.D. properties file   721 does not exist.
 End of Minotr F.D. properties file   722 does not exist.
 End of Minotr F.D. properties file   788 does not exist.

 **********************************************************************

            Population analysis using the SCF density.

 **********************************************************************

 Orbital symmetries:
 Alpha Orbitals:
       Occupied  (?A) (?A) (?B) (?B) (A1)
       Virtual   (?A) (?B) (?B) (?B) (?B) (?A) (A1) (?B) (?B) (?A)
                 (?B) (?B) (?B) (?B) (?A) (?A) (A1) (?B) (?B) (?B)
                 (?B) (?A) (?B) (?B) (?B) (?B) (?A) (A1) (?B) (?B)
                 (?A)
 Beta  Orbitals:
       Occupied  (?A) (?A) (?B) (?B)
       Virtual   (A1) (?A) (?B) (?B) (?B) (?B) (?A) (A1) (?B) (?B)
                 (?A) (?C) (?C) (?B) (?B) (?A) (?A) (A1) (?B) (?B)
                 (?C) (?C) (?A) (?B) (?B) (?B) (?B) (?A) (A1) (?B)
                 (?B) (?A)
 Unable to determine electronic state:  an orbital has unidentified symmetry.
 Alpha  occ. eigenvalues --  -11.22513  -0.94137  -0.57273  -0.57272  -0.38125
 Alpha virt. eigenvalues --    0.17095   0.23878   0.23880   0.45391   0.45392
 Alpha virt. eigenvalues --    0.51642   0.57689   0.81961   0.81961   0.88624
 Alpha virt. eigenvalues --    1.27916   1.27917   1.64754   1.64755   1.67125
 Alpha virt. eigenvalues --    1.74810   1.91713   2.15862   2.15863   2.24270
 Alpha virt. eigenvalues --    2.24271   2.60658   2.73089   2.73090   2.98928
 Alpha virt. eigenvalues --    2.98929   3.01220   3.04713   4.13376   4.13377
 Alpha virt. eigenvalues --   25.06753
  Beta  occ. eigenvalues --  -11.20173  -0.84944  -0.55785  -0.55784
  Beta virt. eigenvalues --    0.13591   0.18292   0.24380   0.24381   0.45799
  Beta virt. eigenvalues --    0.45800   0.56281   0.71232   0.83634   0.83634
  Beta virt. eigenvalues --    0.92243   1.34031   1.34033   1.65328   1.65329
  Beta virt. eigenvalues --    1.66645   1.83200   1.93178   2.15610   2.15611
  Beta virt. eigenvalues --    2.28189   2.28190   2.60733   2.73347   2.73349
  Beta virt. eigenvalues --    2.99877   2.99878   3.02094   3.13362   4.15437
  Beta virt. eigenvalues --    4.15438  25.08337
          Condensed to atoms (all electrons):
               1          2          3          4
     1  C    5.173833   0.406251   0.406251   0.406251
     2  H    0.406251   0.513834  -0.025474  -0.025474
     3  H    0.406251  -0.025474   0.513834  -0.025474
     4  H    0.406251  -0.025474  -0.025474   0.513834
          Atomic-Atomic Spin Densities.
               1          2          3          4
     1  C    1.298817  -0.008290  -0.008290  -0.008290
     2  H   -0.008290  -0.087406   0.002190   0.002190
     3  H   -0.008290   0.002190  -0.087406   0.002190
     4  H   -0.008290   0.002190   0.002190  -0.087406
 Mulliken charges and spin densities:
               1          2
     1  C   -0.392586   1.273947
     2  H    0.130862  -0.091316
     3  H    0.130862  -0.091316
     4  H    0.130862  -0.091316
 Sum of Mulliken charges =   0.00000   1.00000
 Mulliken charges and spin densities with hydrogens summed into heavy atoms:
               1          2
     1  C    0.000000   1.000000
 Electronic spatial extent (au):  <R**2>=             29.6251
 Charge=              0.0000 electrons
 Dipole moment (field-independent basis, Debye):
    X=              0.0000    Y=              0.0000    Z=              0.0020  Tot=              0.0020
 Quadrupole moment (field-independent basis, Debye-Ang):
   XX=             -7.0887   YY=             -7.0887   ZZ=             -8.8965
   XY=              0.0000   XZ=              0.0000   YZ=              0.0000
 Traceless Quadrupole moment (field-independent basis, Debye-Ang):
   XX=              0.6026   YY=              0.6026   ZZ=             -1.2052
   XY=              0.0000   XZ=              0.0000   YZ=              0.0000
 Octapole moment (field-independent basis, Debye-Ang**2):
  XXX=              0.0000  YYY=              0.9652  ZZZ=              0.0029  XYY=              0.0000
  XXY=             -0.9652  XXZ=              0.0018  XZZ=              0.0000  YZZ=              0.0000
  YYZ=              0.0018  XYZ=              0.0000
 Hexadecapole moment (field-independent basis, Debye-Ang**3):
 XXXX=            -14.0385 YYYY=            -14.0385 ZZZZ=             -9.9953 XXXY=              0.0000
 XXXZ=              0.0000 YYYX=              0.0000 YYYZ=              0.0009 ZZZX=              0.0000
 ZZZY=              0.0000 XXYY=             -4.6795 XXZZ=             -4.4191 YYZZ=             -4.4191
 XXYZ=             -0.0009 YYXZ=              0.0000 ZZXY=              0.0000
 N-N= 9.684382771742D+00 E-N=-1.111533940457D+02  KE= 3.954576566475D+01
 Symmetry A'   KE= 3.760437139036D+01
 Symmetry A"   KE= 1.941394274390D+00
                          Isotropic Fermi Contact Couplings
        Atom                 a.u.       MegaHertz       Gauss      10(-4) cm-1
     1  C(13)              0.05512      61.96374      22.11020      20.66888
     2  H(1)              -0.01724     -77.08198     -27.50477     -25.71178
     3  H(1)              -0.01724     -77.08102     -27.50442     -25.71146
     4  H(1)              -0.01724     -77.08102     -27.50442     -25.71146
 --------------------------------------------------------
       Center         ----  Spin Dipole Couplings  ----
                      3XX-RR        3YY-RR        3ZZ-RR
 --------------------------------------------------------
     1   Atom       -0.558053     -0.558054      1.116107
     2   Atom       -0.075746      0.076512     -0.000766
     3   Atom        0.038448     -0.037681     -0.000766
     4   Atom        0.038448     -0.037681     -0.000766
 --------------------------------------------------------
                        XY            XZ            YZ
 --------------------------------------------------------
     1   Atom        0.000000      0.000000      0.000000
     2   Atom        0.000000      0.000000      0.000073
     3   Atom        0.065930     -0.000063     -0.000036
     4   Atom       -0.065930      0.000063     -0.000036
 --------------------------------------------------------


 ---------------------------------------------------------------------------------
              Anisotropic Spin Dipole Couplings in Principal Axis System
 ---------------------------------------------------------------------------------

       Atom             a.u.   MegaHertz   Gauss  10(-4) cm-1        Axes

              Baa    -0.5581   -74.886   -26.721   -24.979  0.0000  1.0000  0.0000
     1 C(13)  Bbb    -0.5581   -74.885   -26.721   -24.979  1.0000  0.0000  0.0000
              Bcc     1.1161   149.771    53.442    49.958  0.0000  0.0000  1.0000
 
              Baa    -0.0757   -40.414   -14.421   -13.481  1.0000  0.0000  0.0000
     2 H(1)   Bbb    -0.0008    -0.409    -0.146    -0.136  0.0000 -0.0009  1.0000
              Bcc     0.0765    40.823    14.567    13.617  0.0000  1.0000  0.0009
 
              Baa    -0.0757   -40.414   -14.421   -13.481 -0.5000  0.8660  0.0000
     3 H(1)   Bbb    -0.0008    -0.409    -0.146    -0.136  0.0008  0.0005  1.0000
              Bcc     0.0765    40.823    14.567    13.617  0.8660  0.5000 -0.0009
 
              Baa    -0.0757   -40.414   -14.421   -13.481  0.5000  0.8660  0.0000
     4 H(1)   Bbb    -0.0008    -0.409    -0.146    -0.136 -0.0008  0.0005  1.0000
              Bcc     0.0765    40.823    14.567    13.617  0.8660 -0.5000  0.0009
 

 ---------------------------------------------------------------------------------

 Density matrix has only Abelian symmetry.
 D1PCM: PCM CHGder 1st derivatives, ID1Alg=3 FixD1E=F DoIter=F DoCFld=F I1PDM=2.
 Calling FoFJK, ICntrl=  10002127 FMM=F ISym2X=1 I1Cent= 0 IOpClX= 1 NMat=1 NMatS=1 NMatT=0.
 ***** Axes restored to original set *****
 -------------------------------------------------------------------
 Center     Atomic                   Forces (Hartrees/Bohr)
 Number     Number              X              Y              Z
 -------------------------------------------------------------------
      1        6          -0.000039409    0.000068259    0.000151608
      2        1          -0.000174810    0.000302779    0.001017393
      3        1           0.000824908    0.000228902   -0.000584500
      4        1          -0.000610689   -0.000599941   -0.000584500
 -------------------------------------------------------------------
 Cartesian Forces:  Max     0.001017393 RMS     0.000527221

 GradGradGradGradGradGradGradGradGradGradGradGradGradGradGradGradGradGrad
 Berny optimization.
 FormGI is forming the generalized inverse of G from B-inverse, IUseBI=4.
 Internal  Forces:  Max     0.001075741 RMS     0.000688511
 Search for a local minimum.
 Step number   1 out of a maximum of   20
 All quantities printed in internal units (Hartrees-Bohrs-Radians)
 Mixed Optimization -- En-DIIS/RFO-DIIS
 Second derivative matrix not updated -- first step.
 The second derivative matrix:
                          R1        R2        R3        A1        A2
           R1           0.36129
           R2           0.00000   0.36129
           R3           0.00000   0.00000   0.36129
           A1           0.00000   0.00000   0.00000   0.16000
           A2           0.00000   0.00000   0.00000   0.00000   0.16000
           A3           0.00000   0.00000   0.00000   0.00000   0.00000
           D1           0.00000   0.00000   0.00000   0.00000   0.00000
                          A3        D1
           A3           0.16000
           D1           0.00000   0.00382
 ITU=  0
     Eigenvalues ---    0.00382   0.16000   0.16000   0.36129   0.36129
     Eigenvalues ---    0.36129
 RFO step:  Lambda=-9.39540392D-06 EMin= 3.81801395D-03
 Linear search not attempted -- first point.
 Iteration  1 RMS(Cart)=  0.00209885 RMS(Int)=  0.00000325
 Iteration  2 RMS(Cart)=  0.00000180 RMS(Int)=  0.00000151
 Iteration  3 RMS(Cart)=  0.00000000 RMS(Int)=  0.00000151
 Variable       Old X    -DE/DX   Delta X   Delta X   Delta X     New X
                                 (Linear)    (Quad)   (Total)
    R1        2.03881   0.00108   0.00000   0.00298   0.00298   2.04179
    R2        2.03881   0.00103   0.00000   0.00285   0.00285   2.04166
    R3        2.03881   0.00103   0.00000   0.00285   0.00285   2.04166
    A1        2.09439   0.00008   0.00000   0.00053   0.00053   2.09492
    A2        2.09439   0.00008   0.00000   0.00053   0.00053   2.09492
    A3        2.09439  -0.00017   0.00000  -0.00106  -0.00106   2.09334
    D1        3.13913   0.00002   0.00000   0.00400   0.00400  -3.14006
         Item               Value     Threshold  Converged?
 Maximum Force            0.001076     0.000450     NO 
 RMS     Force            0.000689     0.000300     NO 
 Maximum Displacement     0.003415     0.001800     NO 
 RMS     Displacement     0.002099     0.001200     NO 
 Predicted change in Energy=-4.697704D-06
 GradGradGradGradGradGradGradGradGradGradGradGradGradGradGradGradGradGrad

                          Input orientation:                          
 ---------------------------------------------------------------------
 Center     Atomic      Atomic             Coordinates (Angstroms)
 Number     Number       Type             X           Y           Z
 ---------------------------------------------------------------------
      1          6           0        0.125950   -0.218151    0.089304
      2          1           0       -0.053902    0.093361    1.108138
      3          1           0        1.026342    0.093056   -0.420308
      4          1           0       -0.593760   -0.842311   -0.420308
 ---------------------------------------------------------------------
                    Distance matrix (angstroms):
                    1          2          3          4
     1  C    0.000000
     2  H    1.080467   0.000000
     3  H    1.080398   1.871650   0.000000
     4  H    1.080398   1.871650   1.870733   0.000000
 Stoichiometry    CH3(2)
 Framework group  C1[X(CH3)]
 Deg. of freedom     6
 Full point group                 C1      NOp   1
 Omega: Change in point group or standard orientation.

 Old FWG=C03V [C3(C1),3SGV(H1)]
 New FWG=C01  [X(C1H3)]
 Largest Abelian subgroup         C1      NOp   1
 Largest concise Abelian subgroup C1      NOp   1
                         Standard orientation:                         
 ---------------------------------------------------------------------
 Center     Atomic      Atomic             Coordinates (Angstroms)
 Number     Number       Type             X           Y           Z
 ---------------------------------------------------------------------
      1          6           0       -0.000102    0.000000    0.000160
      2          1           0       -1.080569    0.000037   -0.000320
      3          1           0        0.540560   -0.935385   -0.000320
      4          1           0        0.540624    0.935348   -0.000320
 ---------------------------------------------------------------------
 Rotational constants (GHZ):    286.5751505    286.2007206    143.1939516
 Standard basis: 6-311G(d,p) (5D, 7F)
 There are    37 symmetry adapted cartesian basis functions of A   symmetry.
 There are    36 symmetry adapted basis functions of A   symmetry.
    36 basis functions,    56 primitive gaussians,    37 cartesian basis functions
     5 alpha electrons        4 beta electrons
       nuclear repulsion energy         9.6645192781 Hartrees.
 NAtoms=    4 NActive=    4 NUniq=    4 SFac= 1.00D+00 NAtFMM=   60 NAOKFM=F Big=F
 Integral buffers will be    131072 words long.
 Raffenetti 2 integral format.
 Two-electron integral symmetry is turned on.
 ------------------------------------------------------------------------------
 Polarizable Continuum Model (PCM)
 =================================
 Model                : PCM (using non-symmetric T matrix).
 Atomic radii         : SMD-Coulomb.
 Polarization charges : Total charges.
 Charge compensation  : None.
 Solution method      : On-the-fly selection.
 Cavity type          : VdW (van der Waals Surface) (Alpha=1.000).
 Cavity algorithm     : GePol (No added spheres)
                        Default sphere list used, NSphG=    4.
                        Lebedev-Laikov grids with approx.  5.0 points / Ang**2.
                        Smoothing algorithm: Karplus/York (Gamma=1.0000).
                        Polarization charges: spherical gaussians, with
                                              point-specific exponents (IZeta= 3).
                        Self-potential: point-specific (ISelfS= 7).
                        Self-field    : sphere-specific E.n sum rule (ISelfD= 2).
 1st derivatives      : Analytical E(r).r(x)/FMM algorithm (CHGder, D1EAlg=3).
                        Cavity 1st derivative terms included.
 Solvent              : Water, Eps=  78.355300 Eps(inf)=   1.777849
 ------------------------------------------------------------------------------
 Spheres list:
 ISph  on   Nord     Re0    Alpha      Xe            Ye            Ze
    1   C      1    1.8500  1.000     -0.000102      0.000000      0.000160
    2   H      2    1.2000  1.000     -1.080569      0.000037     -0.000320
    3   H      3    1.2000  1.000      0.540560     -0.935385     -0.000320
    4   H      4    1.2000  1.000      0.540624      0.935348     -0.000320
 ------------------------------------------------------------------------------
 ------------------------------------------------------------------------------
 Atomic radii for non-electrostatic terms: SMD-CDS.
 ------------------------------------------------------------------------------
 Nuclear repulsion after PCM non-electrostatic terms =        9.6706760183 Hartrees.
 One-electron integrals computed using PRISM.
 NBasis=    36 RedAO= T EigKep=  2.32D-02  NBF=    36
 NBsUse=    36 1.00D-06 EigRej= -1.00D+00 NBFU=    36
 Initial guess from the checkpoint file:  "h3c+-solopt.chk"
 B after Tr=     0.000000    0.000000    0.000000
         Rot=    0.707119    0.000000    0.000000   -0.707095 Ang= -90.00 deg.
 Initial guess <Sx>= 0.0000 <Sy>= 0.0000 <Sz>= 0.5000 <S**2>= 0.7613 S= 0.5056
 Keep R1 and R2 ints in memory in canonical form, NReq=3506807.
 Requested convergence on RMS density matrix=1.00D-08 within 128 cycles.
 Requested convergence on MAX density matrix=1.00D-06.
 Requested convergence on             energy=1.00D-06.
 No special actions if energy rises.
 Inv3:  Mode=1 IEnd=      442368.
 Iteration    1 A*A^-1 deviation from unit magnitude is 2.89D-15 for    116.
 Iteration    1 A*A^-1 deviation from orthogonality  is 2.82D-15 for    365    115.
 Iteration    1 A^-1*A deviation from unit magnitude is 3.00D-15 for    151.
 Iteration    1 A^-1*A deviation from orthogonality  is 1.85D-09 for    199    161.
 Iteration    2 A*A^-1 deviation from unit magnitude is 1.78D-15 for     62.
 Iteration    2 A*A^-1 deviation from orthogonality  is 1.88D-15 for    150    146.
 Iteration    2 A^-1*A deviation from unit magnitude is 8.88D-16 for     92.
 Iteration    2 A^-1*A deviation from orthogonality  is 3.26D-16 for    341    251.
 Error on total polarization charges =  0.02332
 SCF Done:  E(UHF) =  -39.5683939934     A.U. after    9 cycles
            NFock=  9  Conv=0.55D-08     -V/T= 2.0007
 <Sx>= 0.0000 <Sy>= 0.0000 <Sz>= 0.5000 <S**2>= 0.7613 S= 0.5056
 <L.S>= 0.000000000000E+00
 SMD-CDS (non-electrostatic) energy       (kcal/mol) =       3.86
 (included in total energy above)
 Annihilation of the first spin contaminant:
 S**2 before annihilation     0.7613,   after     0.7501
 Range of M.O.s used for correlation:     1    36
 NBasis=    36 NAE=     5 NBE=     4 NFC=     0 NFV=     0
 NROrb=     36 NOA=     5 NOB=     4 NVA=    31 NVB=    32
 Fully direct method using O(ONN) memory.
 JobTyp=2 Pass  1:  I=   1 to   5 NPSUse=  6 ParTrn=T ParDer=T DoDerP=T.
 JobTyp=3 Pass  1:  I=   1 to   4 NPSUse=  6 ParTrn=T ParDer=T DoDerP=T.
 Spin components of T(2) and E(2):
     alpha-alpha T2 =       0.6567883526D-02 E2=     -0.2048389189D-01
     alpha-beta  T2 =       0.3492044829D-01 E2=     -0.1249022476D+00
     beta-beta   T2 =       0.2331892938D-02 E2=     -0.7493825535D-02
 (S**2,0)=  0.76128D+00           (S**2,1)=  0.75313D+00
 E(PUHF)=      -0.39571379601D+02        E(PMP2)=      -0.39723185488D+02
 ANorm=    0.1021675205D+01
 E2 =    -0.1528799650D+00 EUMP2 =    -0.39721273958454D+02
          IDoAtm=1111
 NEqPCM:  Using equilibrium solvation (IEInf=0, Eps=  78.3553, EpsInf=   1.7778)
          Differentiating once with respect to electric field.
                with respect to dipole field.
          Differentiating once with respect to nuclear coordinates.
 Keep R1 and R2 ints in memory in canonical form, NReq=2273031.
          There are     1 degrees of freedom in the 1st order CPHF.  IDoFFX=0 NUNeed=     1.
 LinEq1:  Iter=  0 NonCon=     1 RMS=2.01D-03 Max=1.27D-02 NDo=     1
 AX will form     1 AO Fock derivatives at one time.
 LinEq1:  Iter=  1 NonCon=     1 RMS=6.80D-04 Max=5.62D-03 NDo=     1
 LinEq1:  Iter=  2 NonCon=     1 RMS=2.54D-04 Max=1.77D-03 NDo=     1
 LinEq1:  Iter=  3 NonCon=     1 RMS=3.50D-05 Max=1.75D-04 NDo=     1
 LinEq1:  Iter=  4 NonCon=     1 RMS=4.67D-06 Max=2.93D-05 NDo=     1
 LinEq1:  Iter=  5 NonCon=     1 RMS=4.70D-07 Max=3.50D-06 NDo=     1
 LinEq1:  Iter=  6 NonCon=     1 RMS=3.77D-08 Max=2.10D-07 NDo=     1
 LinEq1:  Iter=  7 NonCon=     1 RMS=3.22D-09 Max=2.44D-08 NDo=     1
 LinEq1:  Iter=  8 NonCon=     1 RMS=3.68D-10 Max=3.36D-09 NDo=     1
 LinEq1:  Iter=  9 NonCon=     0 RMS=6.44D-11 Max=4.12D-10 NDo=     1
 Linear equations converged to 1.000D-10 1.000D-09 after     9 iterations.
 End of Minotr F.D. properties file   721 does not exist.
 End of Minotr F.D. properties file   722 does not exist.
 End of Minotr F.D. properties file   788 does not exist.
 D1PCM: PCM CHGder 1st derivatives, ID1Alg=3 FixD1E=F DoIter=F DoCFld=F I1PDM=2.
 Calling FoFJK, ICntrl=  10002127 FMM=F ISym2X=0 I1Cent= 0 IOpClX= 1 NMat=1 NMatS=1 NMatT=0.
 ***** Axes restored to original set *****
 -------------------------------------------------------------------
 Center     Atomic                   Forces (Hartrees/Bohr)
 Number     Number              X              Y              Z
 -------------------------------------------------------------------
      1        6          -0.000011568    0.000020146    0.000113954
      2        1           0.000012137   -0.000020859   -0.000087325
      3        1          -0.000065925   -0.000037554   -0.000013343
      4        1           0.000065355    0.000038266   -0.000013285
 -------------------------------------------------------------------
 Cartesian Forces:  Max     0.000113954 RMS     0.000052899

 GradGradGradGradGradGradGradGradGradGradGradGradGradGradGradGradGradGrad
 Berny optimization.
 Using GEDIIS/GDIIS optimizer.
 FormGI is forming the generalized inverse of G from B-inverse, IUseBI=4.
 Internal  Forces:  Max     0.000090378 RMS     0.000055935
 Search for a local minimum.
 Step number   2 out of a maximum of   20
 All quantities printed in internal units (Hartrees-Bohrs-Radians)
 Mixed Optimization -- En-DIIS/RFO-DIIS
 Swapping is turned off.
 Update second derivatives using D2CorX and points    1    2
 DE= -4.41D-06 DEPred=-4.70D-06 R= 9.38D-01
 TightC=F SS=  1.41D+00  RLast= 6.54D-03 DXNew= 5.0454D-01 1.9617D-02
 Trust test= 9.38D-01 RLast= 6.54D-03 DXMaxT set to 3.00D-01
 The second derivative matrix:
                          R1        R2        R3        A1        A2
           R1           0.37499
           R2           0.00994   0.36783
           R3           0.00993   0.00654   0.36782
           A1          -0.00365  -0.00363  -0.00363   0.15950
           A2          -0.00366  -0.00364  -0.00364  -0.00050   0.15950
           A3           0.00728   0.00724   0.00724   0.00099   0.00099
           D1           0.00115   0.00104   0.00104  -0.00001  -0.00001
                          A3        D1
           A3           0.15802
           D1           0.00002   0.00385
 ITU=  1  0
     Eigenvalues ---    0.00385   0.15600   0.16000   0.36066   0.36129
     Eigenvalues ---    0.38972
 En-DIIS/RFO-DIIS IScMMF=        0 using points:     2    1
 RFO step:  Lambda=-4.11758702D-08.
 DidBck=F Rises=F RFO-DIIS coefs:    0.94564    0.05436
 Iteration  1 RMS(Cart)=  0.00048486 RMS(Int)=  0.00000053
 Iteration  2 RMS(Cart)=  0.00000031 RMS(Int)=  0.00000042
 Variable       Old X    -DE/DX   Delta X   Delta X   Delta X     New X
                                 (Linear)    (Quad)   (Total)
    R1        2.04179  -0.00009  -0.00016  -0.00005  -0.00022   2.04157
    R2        2.04166  -0.00006  -0.00015   0.00002  -0.00014   2.04152
    R3        2.04166  -0.00006  -0.00015   0.00002  -0.00013   2.04152
    A1        2.09492   0.00003  -0.00003   0.00023   0.00020   2.09512
    A2        2.09492   0.00003  -0.00003   0.00023   0.00020   2.09512
    A3        2.09334  -0.00007   0.00006  -0.00046  -0.00040   2.09294
    D1       -3.14006  -0.00001  -0.00022  -0.00209  -0.00231   3.14082
         Item               Value     Threshold  Converged?
 Maximum Force            0.000090     0.000450     YES
 RMS     Force            0.000056     0.000300     YES
 Maximum Displacement     0.000776     0.001800     YES
 RMS     Displacement     0.000485     0.001200     YES
 Predicted change in Energy=-4.844388D-08
 Optimization completed.
    -- Stationary point found.
                           ----------------------------
                           !   Optimized Parameters   !
                           ! (Angstroms and Degrees)  !
 --------------------------                            --------------------------
 ! Name  Definition              Value          Derivative Info.                !
 --------------------------------------------------------------------------------
 ! R1    R(1,2)                  1.0805         -DE/DX =   -0.0001              !
 ! R2    R(1,3)                  1.0804         -DE/DX =   -0.0001              !
 ! R3    R(1,4)                  1.0804         -DE/DX =   -0.0001              !
 ! A1    A(2,1,3)              120.0303         -DE/DX =    0.0                 !
 ! A2    A(2,1,4)              120.0303         -DE/DX =    0.0                 !
 ! A3    A(3,1,4)              119.9393         -DE/DX =   -0.0001              !
 ! D1    D(2,1,4,3)            180.088          -DE/DX =    0.0                 !
 --------------------------------------------------------------------------------
 GradGradGradGradGradGradGradGradGradGradGradGradGradGradGradGradGradGrad

                          Input orientation:                          
 ---------------------------------------------------------------------
 Center     Atomic      Atomic             Coordinates (Angstroms)
 Number     Number       Type             X           Y           Z
 ---------------------------------------------------------------------
      1          6           0        0.125950   -0.218151    0.089304
      2          1           0       -0.053902    0.093361    1.108138
      3          1           0        1.026342    0.093056   -0.420308
      4          1           0       -0.593760   -0.842311   -0.420308
 ---------------------------------------------------------------------
                    Distance matrix (angstroms):
                    1          2          3          4
     1  C    0.000000
     2  H    1.080467   0.000000
     3  H    1.080398   1.871650   0.000000
     4  H    1.080398   1.871650   1.870733   0.000000
 Stoichiometry    CH3(2)
 Framework group  C1[X(CH3)]
 Deg. of freedom     6
 Full point group                 C1      NOp   1
 Largest Abelian subgroup         C1      NOp   1
 Largest concise Abelian subgroup C1      NOp   1
                         Standard orientation:                         
 ---------------------------------------------------------------------
 Center     Atomic      Atomic             Coordinates (Angstroms)
 Number     Number       Type             X           Y           Z
 ---------------------------------------------------------------------
      1          6           0       -0.000102    0.000000    0.000160
      2          1           0       -1.080569    0.000037   -0.000320
      3          1           0        0.540560   -0.935385   -0.000320
      4          1           0        0.540624    0.935348   -0.000320
 ---------------------------------------------------------------------
 Rotational constants (GHZ):    286.5751505    286.2007206    143.1939516

 **********************************************************************

            Population analysis using the SCF density.

 **********************************************************************

 Orbital symmetries:
 Alpha Orbitals:
       Occupied  (A) (A) (A) (A) (A)
       Virtual   (A) (A) (A) (A) (A) (A) (A) (A) (A) (A) (A) (A)
                 (A) (A) (A) (A) (A) (A) (A) (A) (A) (A) (A) (A)
                 (A) (A) (A) (A) (A) (A) (A)
 Beta  Orbitals:
       Occupied  (A) (A) (A) (A)
       Virtual   (A) (A) (A) (A) (A) (A) (A) (A) (A) (A) (A) (A)
                 (A) (A) (A) (A) (A) (A) (A) (A) (A) (A) (A) (A)
                 (A) (A) (A) (A) (A) (A) (A) (A)
 The electronic state is 2-A.
 Alpha  occ. eigenvalues --  -11.22565  -0.94084  -0.57231  -0.57214  -0.38130
 Alpha virt. eigenvalues --    0.17076   0.23869   0.23874   0.45366   0.45394
 Alpha virt. eigenvalues --    0.51587   0.57683   0.81888   0.81895   0.88572
 Alpha virt. eigenvalues --    1.27882   1.27901   1.64688   1.64718   1.67024
 Alpha virt. eigenvalues --    1.74758   1.91586   2.15865   2.15901   2.24113
 Alpha virt. eigenvalues --    2.24171   2.60614   2.72934   2.72961   2.98636
 Alpha virt. eigenvalues --    2.98648   3.01012   3.04666   4.13047   4.13087
 Alpha virt. eigenvalues --   25.06336
  Beta  occ. eigenvalues --  -11.20223  -0.84883  -0.55746  -0.55728
  Beta virt. eigenvalues --    0.13590   0.18278   0.24373   0.24379   0.45771
  Beta virt. eigenvalues --    0.45799   0.56210   0.71231   0.83565   0.83571
  Beta virt. eigenvalues --    0.92196   1.33991   1.34010   1.65262   1.65291
  Beta virt. eigenvalues --    1.66542   1.83150   1.93042   2.15614   2.15650
  Beta virt. eigenvalues --    2.28035   2.28092   2.60689   2.73190   2.73218
  Beta virt. eigenvalues --    2.99578   2.99593   3.01882   3.13318   4.15111
  Beta virt. eigenvalues --    4.15150  25.07922
          Condensed to atoms (all electrons):
               1          2          3          4
     1  C    5.175324   0.405928   0.405954   0.405954
     2  H    0.405928   0.513858  -0.025431  -0.025431
     3  H    0.405954  -0.025431   0.513921  -0.025484
     4  H    0.405954  -0.025431  -0.025484   0.513920
          Atomic-Atomic Spin Densities.
               1          2          3          4
     1  C    1.299422  -0.008334  -0.008343  -0.008343
     2  H   -0.008334  -0.087533   0.002201   0.002201
     3  H   -0.008343   0.002201  -0.087528   0.002203
     4  H   -0.008343   0.002201   0.002203  -0.087528
 Mulliken charges and spin densities:
               1          2
     1  C   -0.393159   1.274401
     2  H    0.131077  -0.091465
     3  H    0.131041  -0.091468
     4  H    0.131041  -0.091468
 Sum of Mulliken charges =   0.00000   1.00000
 Mulliken charges and spin densities with hydrogens summed into heavy atoms:
               1          2
     1  C    0.000000   1.000000
 Electronic spatial extent (au):  <R**2>=             29.6665
 Charge=              0.0000 electrons
 Dipole moment (field-independent basis, Debye):
    X=              0.0008    Y=              0.0000    Z=             -0.0012  Tot=              0.0014
 Quadrupole moment (field-independent basis, Debye-Ang):
   XX=             -7.0876   YY=             -7.0920   ZZ=             -8.9023
   XY=              0.0000   XZ=              0.0000   YZ=              0.0000
 Traceless Quadrupole moment (field-independent basis, Debye-Ang):
   XX=              0.6064   YY=              0.6020   ZZ=             -1.2084
   XY=              0.0000   XZ=              0.0000   YZ=              0.0000
 Octapole moment (field-independent basis, Debye-Ang**2):
  XXX=             -0.9692  YYY=             -0.0001  ZZZ=             -0.0018  XYY=              0.9710
  XXY=              0.0001  XXZ=             -0.0012  XZZ=              0.0004  YZZ=              0.0000
  YYZ=             -0.0012  XYZ=              0.0000
 Hexadecapole moment (field-independent basis, Debye-Ang**3):
 XXXX=            -14.0670 YYYY=            -14.0682 ZZZZ=            -10.0043 XXXY=              0.0000
 XXXZ=              0.0005 YYYX=              0.0000 YYYZ=              0.0000 ZZZX=              0.0000
 ZZZY=              0.0000 XXYY=             -4.6881 XXZZ=             -4.4282 YYZZ=             -4.4272
 XXYZ=              0.0000 YYXZ=             -0.0005 ZZXY=              0.0000
 N-N= 9.670676018320D+00 E-N=-1.111212941173D+02  KE= 3.953903743908D+01
                          Isotropic Fermi Contact Couplings
        Atom                 a.u.       MegaHertz       Gauss      10(-4) cm-1
     1  C(13)              0.05544      62.33069      22.24114      20.79128
     2  H(1)              -0.01725     -77.10864     -27.51428     -25.72067
     3  H(1)              -0.01725     -77.08431     -27.50560     -25.71256
     4  H(1)              -0.01725     -77.08431     -27.50560     -25.71256
 --------------------------------------------------------
       Center         ----  Spin Dipole Couplings  ----
                      3XX-RR        3YY-RR        3ZZ-RR
 --------------------------------------------------------
     1   Atom       -0.558108     -0.558070      1.116178
     2   Atom        0.076429     -0.075531     -0.000898
     3   Atom       -0.037479      0.038372     -0.000893
     4   Atom       -0.037469      0.038363     -0.000893
 --------------------------------------------------------
                        XY            XZ            YZ
 --------------------------------------------------------
     1   Atom        0.000000      0.000000      0.000000
     2   Atom       -0.000005      0.000046      0.000000
     3   Atom       -0.065848     -0.000023      0.000039
     4   Atom        0.065853     -0.000023     -0.000039
 --------------------------------------------------------


 ---------------------------------------------------------------------------------
              Anisotropic Spin Dipole Couplings in Principal Axis System
 ---------------------------------------------------------------------------------

       Atom             a.u.   MegaHertz   Gauss  10(-4) cm-1        Axes

              Baa    -0.5581   -74.893   -26.724   -24.982  1.0000  0.0000  0.0000
     1 C(13)  Bbb    -0.5581   -74.888   -26.722   -24.980  0.0000  1.0000  0.0000
              Bcc     1.1162   149.780    53.445    49.961  0.0000  0.0000  1.0000
 
              Baa    -0.0755   -40.300   -14.380   -13.443  0.0000  1.0000  0.0000
     2 H(1)   Bbb    -0.0009    -0.479    -0.171    -0.160 -0.0006  0.0000  1.0000
              Bcc     0.0764    40.779    14.551    13.602  1.0000  0.0000  0.0006
 
              Baa    -0.0755   -40.305   -14.382   -13.444  0.8658  0.5005  0.0000
     3 H(1)   Bbb    -0.0009    -0.477    -0.170    -0.159  0.0003 -0.0005  1.0000
              Bcc     0.0764    40.782    14.552    13.603 -0.5005  0.8658  0.0006
 
              Baa    -0.0755   -40.305   -14.382   -13.444  0.8657 -0.5005  0.0000
     4 H(1)   Bbb    -0.0009    -0.477    -0.170    -0.159  0.0003  0.0005  1.0000
              Bcc     0.0764    40.782    14.552    13.603  0.5005  0.8657 -0.0006
 

 ---------------------------------------------------------------------------------

 1\1\GINC-TC-NODE158\FOpt\UMP2-Full\6-311G(d,p)\C1H3(2)\EPKTB\21-Oct-20
 16\0\\# opt freq=raman scrf=(smd,solvent=water) mp2(full)/6-311G** geo
 m=check\\Title Card Required\\0,2\C,0.1259495086,-0.2181509866,0.08930
 42959\H,-0.053902181,0.0933613937,1.1081379367\H,1.0263421629,0.093055
 7053,-0.420307532\H,-0.593759707,-0.8423105436,-0.4203075608\\Version=
 ES64L-G09RevD.01\State=2-A\HF=-39.568394\MP2=-39.721274\PUHF=-39.57137
 96\PMP2-0=-39.7231855\S2=0.761278\S2-1=0.753133\S2A=0.75007\RMSD=5.536
 e-09\RMSF=5.290e-05\Dipole=0.0002865,-0.0004965,-0.000131\PG=C01 [X(C1
 H3)]\\@


 KEEP CLOSE TO NATURES HEART, YOURSELF;
 AND BREAK CLEAR AWAY, ONCE IN A WHILE, AND
 CLIMB A MOUNTAIN OR SPEND A WEEK IN THE
 WOODS.  WASH YOUR SPIRIT CLEAN...
                                         -- JOHN MUIR
 Job cpu time:       0 days  0 hours  0 minutes 39.8 seconds.
 File lengths (MBytes):  RWF=      6 Int=      0 D2E=      0 Chk=      2 Scr=      1
 Normal termination of Gaussian 09 at Fri Oct 21 11:25:29 2016.
 Link1:  Proceeding to internal job step number  2.
 ----------------------------------------------------------------------
 #N Geom=AllCheck Guess=TCheck SCRF=Check GenChk UMP2-Full/6-311G(d,p) 
 Freq
 ----------------------------------------------------------------------
 1/10=4,29=7,30=1,38=1121,40=1/1,6,3;
 2/12=2,40=1/2;
 3/5=4,6=6,7=101,11=2,14=-4,16=1,25=1,30=1,70=2,71=2,72=1,116=2,140=1/1,2,3;
 4/5=101,69=2/1;
 5/5=2,53=1,98=1/2;
 8/6=3,8=1,10=90,19=11/1;
 9/15=3,16=-3/6;
 11/6=1,8=1,15=11,17=11,24=-1,27=1,28=-2,29=300,32=6,42=3/1,2,10;
 10/6=2,21=1/2;
 8/6=4,8=1,10=90,19=11/11,4;
 10/5=1,20=4/2;
 11/12=2,14=11,16=1,28=-2,42=3/2,10,12;
 6/7=2,8=2,9=2,10=2,22=-1/1;
 7/10=1,12=2,25=1,44=2/1,2,3,16;
 1/38=1120/6(3);
 7/8=1,25=1,44=-1/16;
 1/10=4,30=1,38=1120/3;
 99//99;
 3/5=4,6=6,7=101,11=2,14=-3,16=1,25=1,30=1,70=5,71=1,72=1,116=2,140=1/1,2,3;
 4/5=5,16=3,69=2/1;
 5/5=2,38=5,53=1,98=1/2;
 8/6=3,8=1,10=90,19=11/1;
 9/15=3,16=-3/6;
 11/6=1,8=1,15=11,17=11,24=-1,27=1,28=-2,29=300,32=6,42=3/1,2,10;
 10/6=2,21=1/2;
 8/6=4,8=1,10=90,19=11/11,4;
 10/5=1,20=4/2;
 11/12=2,14=11,16=1,28=-2,42=3/2,10,12;
 6/7=2,8=2,9=2,10=2,22=-1/1;
 7/7=1,10=1,12=2,44=2/16;
 1/38=1120/6(-12);
 7/8=1,25=1,44=-1/16;
 1/10=4,30=1,38=1120/3;
 99//99;
 Structure from the checkpoint file:  "h3c+-solopt.chk"
 -------------------
 Title Card Required
 -------------------
 Charge =  0 Multiplicity = 2
 Redundant internal coordinates found in file.
 C,0,0.1259495086,-0.2181509866,0.0893042959
 H,0,-0.053902181,0.0933613937,1.1081379367
 H,0,1.0263421629,0.0930557053,-0.420307532
 H,0,-0.593759707,-0.8423105436,-0.4203075608
 Recover connectivity data from disk.
 Differentiate once with respect to electric field.
 Nuclear step= 0.001000 Angstroms, electric field step= 0.000333 atomic units, NStep=1.

 GradGradGradGradGradGradGradGradGradGradGradGradGradGradGradGradGradGrad
 Berny optimization.
 Initialization pass.
                           ----------------------------
                           !    Initial Parameters    !
                           ! (Angstroms and Degrees)  !
 --------------------------                            --------------------------
 ! Name  Definition              Value          Derivative Info.                !
 --------------------------------------------------------------------------------
 ! R1    R(1,2)                  1.0805         calculate D2E/DX2 analytically  !
 ! R2    R(1,3)                  1.0804         calculate D2E/DX2 analytically  !
 ! R3    R(1,4)                  1.0804         calculate D2E/DX2 analytically  !
 ! A1    A(2,1,3)              120.0303         calculate D2E/DX2 analytically  !
 ! A2    A(2,1,4)              120.0303         calculate D2E/DX2 analytically  !
 ! A3    A(3,1,4)              119.9393         calculate D2E/DX2 analytically  !
 ! D1    D(2,1,4,3)           -179.912          calculate D2E/DX2 analytically  !
 --------------------------------------------------------------------------------
 Trust Radius=3.00D-01 FncErr=1.00D-07 GrdErr=1.00D-07
 Number of steps in this run=      2 maximum allowed number of steps=      2.
 GradGradGradGradGradGradGradGradGradGradGradGradGradGradGradGradGradGrad

                          Input orientation:                          
 ---------------------------------------------------------------------
 Center     Atomic      Atomic             Coordinates (Angstroms)
 Number     Number       Type             X           Y           Z
 ---------------------------------------------------------------------
      1          6           0        0.125950   -0.218151    0.089304
      2          1           0       -0.053902    0.093361    1.108138
      3          1           0        1.026342    0.093056   -0.420308
      4          1           0       -0.593760   -0.842311   -0.420308
 ---------------------------------------------------------------------
                    Distance matrix (angstroms):
                    1          2          3          4
     1  C    0.000000
     2  H    1.080467   0.000000
     3  H    1.080398   1.871650   0.000000
     4  H    1.080398   1.871650   1.870733   0.000000
 Stoichiometry    CH3(2)
 Framework group  C1[X(CH3)]
 Deg. of freedom     6
 Full point group                 C1      NOp   1
 Largest Abelian subgroup         C1      NOp   1
 Largest concise Abelian subgroup C1      NOp   1
                         Standard orientation:                         
 ---------------------------------------------------------------------
 Center     Atomic      Atomic             Coordinates (Angstroms)
 Number     Number       Type             X           Y           Z
 ---------------------------------------------------------------------
      1          6           0       -0.000102    0.000000    0.000160
      2          1           0       -1.080569    0.000037   -0.000320
      3          1           0        0.540560   -0.935385   -0.000320
      4          1           0        0.540624    0.935348   -0.000320
 ---------------------------------------------------------------------
 Rotational constants (GHZ):    286.5751505    286.2007206    143.1939516
 Standard basis: 6-311G(d,p) (5D, 7F)
 There are    37 symmetry adapted cartesian basis functions of A   symmetry.
 There are    36 symmetry adapted basis functions of A   symmetry.
    36 basis functions,    56 primitive gaussians,    37 cartesian basis functions
     5 alpha electrons        4 beta electrons
       nuclear repulsion energy         9.6645192781 Hartrees.
 NAtoms=    4 NActive=    4 NUniq=    4 SFac= 1.00D+00 NAtFMM=   60 NAOKFM=F Big=F
 Integral buffers will be    131072 words long.
 Raffenetti 2 integral format.
 Two-electron integral symmetry is turned on.
 Force inversion solution in PCM.
 ------------------------------------------------------------------------------
 Polarizable Continuum Model (PCM)
 =================================
 Model                : PCM (using non-symmetric T matrix).
 Atomic radii         : SMD-Coulomb.
 Polarization charges : Total charges.
 Charge compensation  : None.
 Solution method      : Matrix inversion.
 Cavity type          : VdW (van der Waals Surface) (Alpha=1.000).
 Cavity algorithm     : GePol (No added spheres)
                        Default sphere list used, NSphG=    4.
                        Lebedev-Laikov grids with approx.  5.0 points / Ang**2.
                        Smoothing algorithm: Karplus/York (Gamma=1.0000).
                        Polarization charges: spherical gaussians, with
                                              point-specific exponents (IZeta= 3).
                        Self-potential: point-specific (ISelfS= 7).
                        Self-field    : sphere-specific E.n sum rule (ISelfD= 2).
 1st derivatives      : Analytical E(r).r(x)/FMM algorithm (CHGder, D1EAlg=3).
                        Cavity 1st derivative terms included.
 2nd derivatives      : Analytical E(r).r(xy)/FMM algorithm (CHGder, D2EAlg=3).
                        Cavity 2nd derivative terms included.
 Solvent              : Water, Eps=  78.355300 Eps(inf)=   1.777849
 ------------------------------------------------------------------------------
 Spheres list:
 ISph  on   Nord     Re0    Alpha      Xe            Ye            Ze
    1   C      1    1.8500  1.000     -0.000102      0.000000      0.000160
    2   H      2    1.2000  1.000     -1.080569      0.000037     -0.000320
    3   H      3    1.2000  1.000      0.540560     -0.935385     -0.000320
    4   H      4    1.2000  1.000      0.540624      0.935348     -0.000320
 ------------------------------------------------------------------------------
 ------------------------------------------------------------------------------
 Atomic radii for non-electrostatic terms: SMD-CDS.
 ------------------------------------------------------------------------------
 Nuclear repulsion after PCM non-electrostatic terms =        9.6706760183 Hartrees.
 One-electron integrals computed using PRISM.
 NBasis=    36 RedAO= T EigKep=  2.32D-02  NBF=    36
 NBsUse=    36 1.00D-06 EigRej= -1.00D+00 NBFU=    36
 Initial guess from the checkpoint file:  "h3c+-solopt.chk"
 B after Tr=     0.000000    0.000000    0.000000
         Rot=    1.000000    0.000000    0.000000    0.000000 Ang=   0.00 deg.
 Initial guess <Sx>= 0.0000 <Sy>= 0.0000 <Sz>= 0.5000 <S**2>= 0.7613 S= 0.5056
 Keep R1 and R2 ints in memory in canonical form, NReq=3506807.
 Requested convergence on RMS density matrix=1.00D-08 within 128 cycles.
 Requested convergence on MAX density matrix=1.00D-06.
 Requested convergence on             energy=1.00D-06.
 No special actions if energy rises.
 Inv3:  Mode=1 IEnd=      442368.
 Iteration    1 A*A^-1 deviation from unit magnitude is 2.44D-15 for     35.
 Iteration    1 A*A^-1 deviation from orthogonality  is 2.78D-15 for    335     40.
 Iteration    1 A^-1*A deviation from unit magnitude is 1.78D-15 for    356.
 Iteration    1 A^-1*A deviation from orthogonality  is 1.67D-09 for    267    161.
 Iteration    2 A*A^-1 deviation from unit magnitude is 1.55D-15 for    275.
 Iteration    2 A*A^-1 deviation from orthogonality  is 1.63D-15 for    348     91.
 Iteration    2 A^-1*A deviation from unit magnitude is 7.77D-16 for      2.
 Iteration    2 A^-1*A deviation from orthogonality  is 2.99D-16 for      8      1.
 Error on total polarization charges =  0.02332
 SCF Done:  E(UHF) =  -39.5683939934     A.U. after    1 cycles
            NFock=  1  Conv=0.60D-09     -V/T= 2.0007
 <Sx>= 0.0000 <Sy>= 0.0000 <Sz>= 0.5000 <S**2>= 0.7613 S= 0.5056
 <L.S>= 0.000000000000E+00
 SMD-CDS (non-electrostatic) energy       (kcal/mol) =       3.86
 (included in total energy above)
 Annihilation of the first spin contaminant:
 S**2 before annihilation     0.7613,   after     0.7501
 Range of M.O.s used for correlation:     1    36
 NBasis=    36 NAE=     5 NBE=     4 NFC=     0 NFV=     0
 NROrb=     36 NOA=     5 NOB=     4 NVA=    31 NVB=    32
 Disk-based method using ON**2 memory for  5 occupieds at a time.
 Permanent disk used for amplitudes=       27466 words.
 Estimated scratch disk usage=     1034750 words.
 Actual    scratch disk usage=     1034750 words.
 JobTyp=2 Pass  1:  I=   1 to   5 NPSUse=  6 ParTrn=T ParDer=T DoDerP=T.
 (rs|ai) integrals will be sorted in core.
 Actual    scratch disk usage=     1034750 words.
 JobTyp=3 Pass  1:  I=   1 to   4 NPSUse=  6 ParTrn=T ParDer=T DoDerP=T.
 (rs|ai) integrals will be sorted in core.
 Spin components of T(2) and E(2):
     alpha-alpha T2 =       0.6567883503D-02 E2=     -0.2048389189D-01
     alpha-beta  T2 =       0.3492044824D-01 E2=     -0.1249022475D+00
     beta-beta   T2 =       0.2331892929D-02 E2=     -0.7493825477D-02
 (S**2,0)=  0.76128D+00           (S**2,1)=  0.75313D+00
 E(PUHF)=      -0.39571379601D+02        E(PMP2)=      -0.39723185488D+02
 ANorm=    0.1021675205D+01
 E2 =    -0.1528799648D+00 EUMP2 =    -0.39721273958248D+02
 G2DrvN: will do     5 centers at a time, making    1 passes.
 Calling FoFCou, ICntrl=  3107 FMM=F I1Cent=   0 AccDes= 0.00D+00.
 NEqPCM:  Using equilibrium solvation (IEInf=0, Eps=  78.3553, EpsInf=   1.7778)
 G2PCM: DoFxE=T DoFxN=T DoGrad=T DoDP/DQ/DG/TGxP=FFFF NFrqRd=   0 IEInf=0 SqF1=F DoCFld=F IF1Alg=4.
 End of G2Drv F.D. properties file   721 does not exist.
 End of G2Drv F.D. properties file   722 does not exist.
 End of G2Drv F.D. properties file   788 does not exist.
          IDoAtm=1111
 NEqPCM:  Using equilibrium solvation (IEInf=0, Eps=  78.3553, EpsInf=   1.7778)
          Differentiating once with respect to electric field.
                with respect to dipole field.
          Differentiating once with respect to nuclear coordinates.
 Keep R1 and R2 ints in memory in canonical form, NReq=2273031.
          There are    15 degrees of freedom in the 1st order CPHF.  IDoFFX=6 NUNeed=    15.
     12 vectors produced by pass  0 Test12= 1.89D-15 6.67D-09 XBig12= 5.08D+00 1.10D+00.
 AX will form    12 AO Fock derivatives at one time.
     12 vectors produced by pass  1 Test12= 1.89D-15 6.67D-09 XBig12= 1.28D-01 2.36D-01.
     12 vectors produced by pass  2 Test12= 1.89D-15 6.67D-09 XBig12= 1.36D-03 1.86D-02.
     12 vectors produced by pass  3 Test12= 1.89D-15 6.67D-09 XBig12= 9.43D-06 1.46D-03.
     12 vectors produced by pass  4 Test12= 1.89D-15 6.67D-09 XBig12= 5.90D-08 1.27D-04.
     12 vectors produced by pass  5 Test12= 1.89D-15 6.67D-09 XBig12= 3.92D-10 8.23D-06.
     10 vectors produced by pass  6 Test12= 1.89D-15 6.67D-09 XBig12= 3.22D-12 6.94D-07.
      8 vectors produced by pass  7 Test12= 1.89D-15 6.67D-09 XBig12= 8.82D-14 1.11D-07.
      1 vectors produced by pass  8 Test12= 1.89D-15 6.67D-09 XBig12= 1.18D-15 1.01D-08.
 InvSVY:  IOpt=1 It=  1 EMax= 1.11D-15
 Solved reduced A of dimension    91 with    12 vectors.
 End of Minotr F.D. properties file   721 does not exist.
 End of Minotr F.D. properties file   722 does not exist.
 End of Minotr F.D. properties file   788 does not exist.
 MDV=   805306368.
 Form MO integral derivatives with frozen-active canonical formalism.
 Discarding MO integrals.
 Reordered first order wavefunction length =       114675
 In DefCFB: NBatch=  1 ICI=  5 ICA= 32 LFMax= 32
            Large arrays: LIAPS=     1507824 LIARS=     1574720 words.
 In DefCFB: NBatch=  1 ICI=  5 ICA= 32 LFMax= 32
            Large arrays: LIAPS=     1507824 LIARS=     1574720 words.
 Semi-Direct transformation.
 ModeAB=           2 MOrb=             5 LenV=     805117327
 LASXX=       102355 LTotXX=      102355 LenRXX=      102355
 LTotAB=      113220 MaxLAS=      126540 LenRXY=      126540
 NonZer=      204710 LenScr=      785920 LnRSAI=           0
 LnScr1=           0 LExtra=           0 Total=      1014815
 MaxDsk=          -1 SrtSym=           F ITran=            4
 JobTyp=1 Pass  1:  I=   1 to   5.
 (rs|ai) integrals will be sorted in core.
 ModeAB=           2 MOrb=             4 LenV=     805117327
 LASXX=        83637 LTotXX=       83637 LenRXX=      101232
 LTotAB=       68448 MaxLAS=      101232 LenRXY=       68448
 NonZer=      167274 LenScr=      785920 LnRSAI=           0
 LnScr1=           0 LExtra=           0 Total=       955600
 MaxDsk=          -1 SrtSym=           F ITran=            4
 JobTyp=2 Pass  1:  I=   1 to   4.
 (rs|ai) integrals will be sorted in core.
 SymMOI:  orbitals are not symmetric.
 Spin components of T(2) and E(2):
     alpha-alpha T2 =       0.6567883503D-02 E2=     -0.2048389189D-01
     alpha-beta  T2 =       0.3492044824D-01 E2=     -0.1249022475D+00
     beta-beta   T2 =       0.2331892929D-02 E2=     -0.7493825477D-02
 ANorm=    0.1444866931D+01
 E2 =    -0.1528799648D+00 EUMP2 =    -0.39721273958248D+02
 (S**2,0)=  0.76128D+00           (S**2,1)=  0.75313D+00
 E(PUHF)=      -0.39571379601D+02        E(PMP2)=      -0.39723185488D+02
          IDoAtm=1111
 NEqPCM:  Using equilibrium solvation (IEInf=0, Eps=  78.3553, EpsInf=   1.7778)
          Differentiating once with respect to electric field.
                with respect to dipole field.
          Differentiating once with respect to nuclear coordinates.
          There are     1 degrees of freedom in the 1st order CPHF.  IDoFFX=0 NUNeed=     1.
 LinEq1:  Iter=  0 NonCon=     1 RMS=2.01D-03 Max=1.27D-02 NDo=     1
 AX will form     1 AO Fock derivatives at one time.
 LinEq1:  Iter=  1 NonCon=     1 RMS=6.80D-04 Max=5.62D-03 NDo=     1
 LinEq1:  Iter=  2 NonCon=     1 RMS=2.54D-04 Max=1.77D-03 NDo=     1
 LinEq1:  Iter=  3 NonCon=     1 RMS=3.50D-05 Max=1.75D-04 NDo=     1
 LinEq1:  Iter=  4 NonCon=     1 RMS=4.67D-06 Max=2.93D-05 NDo=     1
 LinEq1:  Iter=  5 NonCon=     1 RMS=4.70D-07 Max=3.50D-06 NDo=     1
 LinEq1:  Iter=  6 NonCon=     1 RMS=3.77D-08 Max=2.10D-07 NDo=     1
 LinEq1:  Iter=  7 NonCon=     1 RMS=3.22D-09 Max=2.44D-08 NDo=     1
 LinEq1:  Iter=  8 NonCon=     1 RMS=3.68D-10 Max=3.36D-09 NDo=     1
 LinEq1:  Iter=  9 NonCon=     0 RMS=6.44D-11 Max=4.12D-10 NDo=     1
 Linear equations converged to 1.000D-10 1.000D-09 after     9 iterations.
 End of Minotr F.D. properties file   721 does not exist.
 End of Minotr F.D. properties file   722 does not exist.
 End of Minotr F.D. properties file   788 does not exist.
 Symmetrizing basis deriv contribution to polar:
 IMax=3 JMax=2 DiffMx= 0.00D+00
 G2DrvN: will do     5 centers at a time, making    1 passes.
 Calling FoFCou, ICntrl=  3107 FMM=F I1Cent=   0 AccDes= 0.00D+00.
 NEqPCM:  Using equilibrium solvation (IEInf=0, Eps=  78.3553, EpsInf=   1.7778)
 G2PCM: DoFxE=T DoFxN=F DoGrad=F DoDP/DQ/DG/TGxP=FFFF NFrqRd=   0 IEInf=0 SqF1=F DoCFld=F IF1Alg=4.
 End of G2Drv F.D. properties file   721 does not exist.
 End of G2Drv F.D. properties file   722 does not exist.
 End of G2Drv F.D. properties file   788 does not exist.
 R2 and R3 integrals will be kept in memory, NReq=     1314912.
 DD1Dir will call FoFMem   1 times, MxPair=        56
 NAB=    20 NAA=    10 NBB=     6.
 G2PCM: DoFxE=F DoFxN=F DoGrad=T DoDP/DQ/DG/TGxP=FFFF NFrqRd=   0 IEInf=0 SqF1=F DoCFld=F IF1Alg=4.
 Discarding MO integrals.

 **********************************************************************

            Population analysis using the MP2 density.

 **********************************************************************

 Orbital symmetries:
 Alpha Orbitals:
       Occupied  (A) (A) (A) (A) (A)
       Virtual   (A) (A) (A) (A) (A) (A) (A) (A) (A) (A) (A) (A)
                 (A) (A) (A) (A) (A) (A) (A) (A) (A) (A) (A) (A)
                 (A) (A) (A) (A) (A) (A) (A)
 Beta  Orbitals:
       Occupied  (A) (A) (A) (A)
       Virtual   (A) (A) (A) (A) (A) (A) (A) (A) (A) (A) (A) (A)
                 (A) (A) (A) (A) (A) (A) (A) (A) (A) (A) (A) (A)
                 (A) (A) (A) (A) (A) (A) (A) (A)
 The electronic state is 2-A.
 Alpha  occ. eigenvalues --  -11.22565  -0.94084  -0.57231  -0.57214  -0.38130
 Alpha virt. eigenvalues --    0.17076   0.23869   0.23874   0.45366   0.45394
 Alpha virt. eigenvalues --    0.51587   0.57683   0.81888   0.81895   0.88572
 Alpha virt. eigenvalues --    1.27882   1.27901   1.64688   1.64718   1.67024
 Alpha virt. eigenvalues --    1.74758   1.91586   2.15865   2.15901   2.24113
 Alpha virt. eigenvalues --    2.24171   2.60614   2.72934   2.72961   2.98636
 Alpha virt. eigenvalues --    2.98648   3.01012   3.04666   4.13047   4.13087
 Alpha virt. eigenvalues --   25.06336
  Beta  occ. eigenvalues --  -11.20223  -0.84883  -0.55746  -0.55728
  Beta virt. eigenvalues --    0.13590   0.18278   0.24373   0.24379   0.45771
  Beta virt. eigenvalues --    0.45799   0.56210   0.71231   0.83565   0.83571
  Beta virt. eigenvalues --    0.92196   1.33991   1.34010   1.65262   1.65291
  Beta virt. eigenvalues --    1.66542   1.83150   1.93042   2.15614   2.15650
  Beta virt. eigenvalues --    2.28035   2.28092   2.60689   2.73190   2.73218
  Beta virt. eigenvalues --    2.99578   2.99593   3.01882   3.13318   4.15111
  Beta virt. eigenvalues --    4.15150  25.07922
          Condensed to atoms (all electrons):
               1          2          3          4
     1  C    5.249083   0.390311   0.390330   0.390330
     2  H    0.390311   0.521475  -0.025910  -0.025910
     3  H    0.390330  -0.025910   0.521530  -0.025962
     4  H    0.390330  -0.025910  -0.025962   0.521530
          Atomic-Atomic Spin Densities.
               1          2          3          4
     1  C    1.197462  -0.005568  -0.005579  -0.005579
     2  H   -0.005568  -0.057768   0.001548   0.001548
     3  H   -0.005579   0.001548  -0.057763   0.001547
     4  H   -0.005579   0.001548   0.001547  -0.057763
 Mulliken charges and spin densities:
               1          2
     1  C   -0.420055   1.180736
     2  H    0.140033  -0.060241
     3  H    0.140011  -0.060248
     4  H    0.140011  -0.060248
 Sum of Mulliken charges =   0.00000   1.00000
 Mulliken charges and spin densities with hydrogens summed into heavy atoms:
               1          2
     1  C    0.000000   1.000000
 APT charges:
               1
     1  C   -0.193350
     2  H    0.064840
     3  H    0.064255
     4  H    0.064255
 Sum of APT charges =   0.00000
 APT charges with hydrogens summed into heavy atoms:
               1
     1  C    0.000000
 Electronic spatial extent (au):  <R**2>=             29.7740
 Charge=              0.0000 electrons
 Dipole moment (field-independent basis, Debye):
    X=              0.0008    Y=              0.0000    Z=             -0.0013  Tot=              0.0015
 Quadrupole moment (field-independent basis, Debye-Ang):
   XX=             -7.1291   YY=             -7.1333   ZZ=             -8.9642
   XY=              0.0000   XZ=              0.0000   YZ=              0.0000
 Traceless Quadrupole moment (field-independent basis, Debye-Ang):
   XX=              0.6131   YY=              0.6088   ZZ=             -1.2220
   XY=              0.0000   XZ=              0.0000   YZ=              0.0000
 Octapole moment (field-independent basis, Debye-Ang**2):
  XXX=             -0.9543  YYY=             -0.0001  ZZZ=             -0.0018  XYY=              0.9561
  XXY=              0.0001  XXZ=             -0.0012  XZZ=              0.0004  YZZ=              0.0000
  YYZ=             -0.0012  XYZ=              0.0000
 Hexadecapole moment (field-independent basis, Debye-Ang**3):
 XXXX=            -14.3530 YYYY=            -14.3538 ZZZZ=            -10.2202 XXXY=              0.0000
 XXXZ=              0.0005 YYYX=              0.0000 YYYZ=              0.0000 ZZZX=              0.0000
 ZZZY=              0.0000 XXYY=             -4.7834 XXZZ=             -4.4993 YYZZ=             -4.4983
 XXYZ=              0.0000 YYXZ=             -0.0005 ZZXY=              0.0000
 N-N= 9.670676018320D+00 E-N=-1.111849702978D+02  KE= 3.967727496422D+01
  Exact polarizability:  15.229   0.000  15.224   0.000   0.000   9.388
 Approx polarizability:   9.752   0.000   9.748   0.000   0.000   6.360
                          Isotropic Fermi Contact Couplings
        Atom                 a.u.       MegaHertz       Gauss      10(-4) cm-1
     1  C(13)              0.05544      62.33074      22.24116      20.79130
     2  H(1)              -0.01725     -77.10864     -27.51428     -25.72067
     3  H(1)              -0.01725     -77.08431     -27.50560     -25.71256
     4  H(1)              -0.01725     -77.08431     -27.50560     -25.71256
 --------------------------------------------------------
       Center         ----  Spin Dipole Couplings  ----
                      3XX-RR        3YY-RR        3ZZ-RR
 --------------------------------------------------------
     1   Atom       -0.558108     -0.558070      1.116178
     2   Atom        0.076429     -0.075531     -0.000898
     3   Atom       -0.037479      0.038372     -0.000893
     4   Atom       -0.037469      0.038363     -0.000893
 --------------------------------------------------------
                        XY            XZ            YZ
 --------------------------------------------------------
     1   Atom        0.000000      0.000000      0.000000
     2   Atom       -0.000005      0.000046      0.000000
     3   Atom       -0.065848     -0.000023      0.000039
     4   Atom        0.065853     -0.000023     -0.000039
 --------------------------------------------------------


 ---------------------------------------------------------------------------------
              Anisotropic Spin Dipole Couplings in Principal Axis System
 ---------------------------------------------------------------------------------

       Atom             a.u.   MegaHertz   Gauss  10(-4) cm-1        Axes

              Baa    -0.5581   -74.893   -26.724   -24.982  1.0000  0.0000  0.0000
     1 C(13)  Bbb    -0.5581   -74.888   -26.722   -24.980  0.0000  1.0000  0.0000
              Bcc     1.1162   149.780    53.445    49.961  0.0000  0.0000  1.0000
 
              Baa    -0.0755   -40.300   -14.380   -13.443  0.0000  1.0000  0.0000
     2 H(1)   Bbb    -0.0009    -0.479    -0.171    -0.160 -0.0006  0.0000  1.0000
              Bcc     0.0764    40.779    14.551    13.602  1.0000  0.0000  0.0006
 
              Baa    -0.0755   -40.305   -14.382   -13.444  0.8658  0.5005  0.0000
     3 H(1)   Bbb    -0.0009    -0.477    -0.170    -0.159  0.0003 -0.0005  1.0000
              Bcc     0.0764    40.782    14.552    13.603 -0.5005  0.8658  0.0006
 
              Baa    -0.0755   -40.305   -14.382   -13.444  0.8657 -0.5005  0.0000
     4 H(1)   Bbb    -0.0009    -0.477    -0.170    -0.159  0.0003  0.0005  1.0000
              Bcc     0.0764    40.782    14.552    13.603  0.5005  0.8657 -0.0006
 

 ---------------------------------------------------------------------------------

 D2PCM: PCM CHGder 2nd derivatives, FixD1E=F FixD2E=F DoIter=F DoCFld=F I1PDM=2
 Calling FoFJK, ICntrl=  10100127 FMM=F ISym2X=0 I1Cent= 0 IOpClX= 1 NMat=1 NMatS=1 NMatT=0.
 ***** Axes restored to original set *****
 -------------------------------------------------------------------
 Center     Atomic                   Forces (Hartrees/Bohr)
 Number     Number              X              Y              Z
 -------------------------------------------------------------------
      1        6          -0.000011567    0.000020145    0.000113955
      2        1           0.000012137   -0.000020858   -0.000087325
      3        1          -0.000065924   -0.000037553   -0.000013344
      4        1           0.000065355    0.000038266   -0.000013286
 -------------------------------------------------------------------
 Cartesian Forces:  Max     0.000113955 RMS     0.000052899
 FormGI is forming the generalized inverse of G from B-inverse, IUseBI=4.
 NDeriv=   3 NFrqRd=  0 NDerD0=   0 MskFDP=       0 MskDFD=       0 MskDF0=       0
 At 1st pt F.D. properties file   721 does not exist.
 At 1st pt F.D. properties file   722 does not exist.
 D2Numr ... symmetry will be used.
 Standard basis: 6-311G(d,p) (5D, 7F)
 The following finite field(s) will be applied:
 An electric field of              0.0003  0.0000  0.0000
    36 basis functions,    56 primitive gaussians,    37 cartesian basis functions
     5 alpha electrons        4 beta electrons
       nuclear repulsion energy         9.6645192781 Hartrees.
 NAtoms=    4 NActive=    4 NUniq=    4 SFac= 1.00D+00 NAtFMM=   60 NAOKFM=F Big=F
 Integral buffers will be    131072 words long.
 Raffenetti 2 integral format.
 Two-electron integral symmetry is turned off.
 Force inversion solution in PCM.
 ------------------------------------------------------------------------------
 Polarizable Continuum Model (PCM)
 =================================
 Model                : PCM (using non-symmetric T matrix).
 Atomic radii         : SMD-Coulomb.
 Polarization charges : Total charges.
 Charge compensation  : None.
 Solution method      : Matrix inversion.
 Cavity type          : VdW (van der Waals Surface) (Alpha=1.000).
 Cavity algorithm     : GePol (No added spheres)
                        Default sphere list used, NSphG=    4.
                        Lebedev-Laikov grids with approx.  5.0 points / Ang**2.
                        Smoothing algorithm: Karplus/York (Gamma=1.0000).
                        Polarization charges: spherical gaussians, with
                                              point-specific exponents (IZeta= 3).
                        Self-potential: point-specific (ISelfS= 7).
                        Self-field    : sphere-specific E.n sum rule (ISelfD= 2).
 1st derivatives      : Analytical E(r).r(x)/FMM algorithm (CHGder, D1EAlg=3).
                        Cavity 1st derivative terms included.
 Solvent              : Water, Eps=  78.355300 Eps(inf)=   1.777849
 ------------------------------------------------------------------------------
 Spheres list:
 ISph  on   Nord     Re0    Alpha      Xe            Ye            Ze
    1   C      1    1.8500  1.000     -0.000102      0.000000      0.000160
    2   H      2    1.2000  1.000     -1.080569      0.000037     -0.000320
    3   H      3    1.2000  1.000      0.540560     -0.935385     -0.000320
    4   H      4    1.2000  1.000      0.540624      0.935348     -0.000320
 ------------------------------------------------------------------------------
 ------------------------------------------------------------------------------
 Atomic radii for non-electrostatic terms: SMD-CDS.
 ------------------------------------------------------------------------------
 Nuclear repulsion after PCM non-electrostatic terms =        9.6706760183 Hartrees.
 One-electron integrals computed using PRISM.
 NBasis=    36 RedAO= T EigKep=  2.32D-02  NBF=    36
 NBsUse=    36 1.00D-06 EigRej= -1.00D+00 NBFU=    36
 The nuclear repulsion energy is now         9.6706760183 hartrees.
 Initial guess from the checkpoint file:  "h3c+-solopt.chk"
 B after Tr=     0.000000    0.000000    0.000000
[...]
 APT charges:
               1
     1  C   -0.193350
     2  H    0.064840
     3  H    0.064255
     4  H    0.064255
 Sum of APT charges =   0.00000
 APT charges with hydrogens summed into heavy atoms:
               1
     1  C    0.000000
 Electronic spatial extent (au):  <R**2>=             29.7740
 Charge=              0.0000 electrons
 Dipole moment (field-independent basis, Debye):
    X=              0.0008    Y=              0.0000    Z=              0.0067  Tot=              0.0067
 Quadrupole moment (field-independent basis, Debye-Ang):
   XX=             -7.1291   YY=             -7.1334   ZZ=             -8.9642
   XY=              0.0000   XZ=              0.0000   YZ=              0.0000
 Traceless Quadrupole moment (field-independent basis, Debye-Ang):
   XX=              0.6131   YY=              0.6089   ZZ=             -1.2220
   XY=              0.0000   XZ=              0.0000   YZ=              0.0000
 Octapole moment (field-independent basis, Debye-Ang**2):
  XXX=             -0.9543  YYY=             -0.0001  ZZZ=              0.0098  XYY=              0.9561
  XXY=              0.0001  XXZ=              0.0031  XZZ=              0.0004  YZZ=              0.0000
  YYZ=              0.0031  XYZ=              0.0000
 Hexadecapole moment (field-independent basis, Debye-Ang**3):
 XXXX=            -14.3530 YYYY=            -14.3538 ZZZZ=            -10.2202 XXXY=              0.0000
 XXXZ=              0.0003 YYYX=              0.0000 YYYZ=              0.0000 ZZZX=              0.0000
 ZZZY=              0.0000 XXYY=             -4.7834 XXZZ=             -4.4993 YYZZ=             -4.4983
 XXYZ=              0.0000 YYXZ=             -0.0003 ZZXY=              0.0000
 N-N= 9.670676018320D+00 E-N=-1.111849683411D+02  KE= 3.967727464012D+01
  Exact polarizability:  15.229   0.000  15.224   0.000   0.000   9.388
 Approx polarizability:   9.752   0.000   9.748   0.000   0.000   6.360
                          Isotropic Fermi Contact Couplings
        Atom                 a.u.       MegaHertz       Gauss      10(-4) cm-1
     1  C(13)              0.05545      62.33440      22.24246      20.79252
     2  H(1)              -0.01725     -77.10868     -27.51429     -25.72069
     3  H(1)              -0.01725     -77.08435     -27.50561     -25.71257
     4  H(1)              -0.01725     -77.08435     -27.50561     -25.71257
 --------------------------------------------------------
       Center         ----  Spin Dipole Couplings  ----
                      3XX-RR        3YY-RR        3ZZ-RR
 --------------------------------------------------------
     1   Atom       -0.558107     -0.558069      1.116176
     2   Atom        0.076429     -0.075531     -0.000898
     3   Atom       -0.037479      0.038372     -0.000893
     4   Atom       -0.037469      0.038363     -0.000893
 --------------------------------------------------------
                        XY            XZ            YZ
 --------------------------------------------------------
     1   Atom        0.000000      0.000000      0.000000
     2   Atom       -0.000005      0.000164      0.000000
     3   Atom       -0.065848     -0.000082      0.000142
     4   Atom        0.065853     -0.000082     -0.000142
 --------------------------------------------------------


 ---------------------------------------------------------------------------------
              Anisotropic Spin Dipole Couplings in Principal Axis System
 ---------------------------------------------------------------------------------

       Atom             a.u.   MegaHertz   Gauss  10(-4) cm-1        Axes

              Baa    -0.5581   -74.893   -26.724   -24.981  1.0000  0.0000  0.0000
     1 C(13)  Bbb    -0.5581   -74.887   -26.722   -24.980  0.0000  1.0000  0.0000
              Bcc     1.1162   149.780    53.445    49.961  0.0000  0.0000  1.0000
 
              Baa    -0.0755   -40.300   -14.380   -13.443  0.0000  1.0000  0.0000
     2 H(1)   Bbb    -0.0009    -0.479    -0.171    -0.160 -0.0021  0.0000  1.0000
              Bcc     0.0764    40.779    14.551    13.602  1.0000  0.0000  0.0021
 
              Baa    -0.0755   -40.305   -14.382   -13.444  0.8658  0.5005  0.0000
     3 H(1)   Bbb    -0.0009    -0.477    -0.170    -0.159  0.0011 -0.0018  1.0000
              Bcc     0.0764    40.782    14.552    13.603 -0.5005  0.8658  0.0021
 
              Baa    -0.0755   -40.305   -14.382   -13.444  0.8657 -0.5005  0.0000
     4 H(1)   Bbb    -0.0009    -0.477    -0.170    -0.159  0.0011  0.0018  1.0000
              Bcc     0.0764    40.782    14.552    13.603  0.5005  0.8657 -0.0021
 

 ---------------------------------------------------------------------------------

 -------------------------------------------------------------------
 Center     Atomic                   Forces (Hartrees/Bohr)
 Number     Number              X              Y              Z
 -------------------------------------------------------------------
      1        6          -0.000115181   -0.000000051   -0.000198879
      2        1           0.000090353   -0.000000085    0.000067305
      3        1           0.000012448    0.000075850    0.000065787
      4        1           0.000012380   -0.000075714    0.000065788
 -------------------------------------------------------------------
 Cartesian Forces:  Max     0.000198879 RMS     0.000084638
 NDeriv=   3 NFrqRd=  0 NDerD0=   0 MskFDP=       0 MskDFD=       0 MskDF0=       0
 Re-enter D2Numr: IAtom=  0 IXYZ=3 IStep= 2.
 Max difference between analytic and numerical Dipole moment IMax=       1 EMax= 8.82D-07
 Max difference between analytic and numerical Dipole derivatives IMax=       9 EMax= 4.38D-06
 Max difference between off-diagonal Polarizability IMax=       1 JMax=       3 EMax= 1.05D-06
 Max difference between analytic and numerical Polarizability IMax=       6 EMax= 1.64D-04
 Max difference between off-diagonal HyperPolarizability IMax=       1 JMax=       1 KMax=       3 EMax= 1.20D-04
 Final packed hyperpolarizability:
 K=  1 block:
                1 
      1 -0.409907D+02
 K=  2 block:
                1             2 
      1  0.424064D-02
      2  0.410106D+02 -0.435630D-02
 K=  3 block:
                1             2             3 
      1 -0.210625D-01
      2  0.000000D+00 -0.209195D-01
      3 -0.780640D-02 -0.212918D-04 -0.665501D-02
 Max difference between off-diagonal Polar Derivs IMax=       1 JMax=       3 KMax=       6 EMax= 9.89D-05
 Full mass-weighted force constant matrix:
 Low frequencies --- -103.7748    0.0000    0.0005    0.0005  131.3107  161.3698
 Low frequencies ---  444.0533 1432.6626 1434.5242
 Diagonal vibrational polarizability:
        0.0748270       0.0737305      16.8158789
 Diagonal vibrational hyperpolarizability:
        2.0917236       0.0002024      -0.0478095
 Harmonic frequencies (cm**-1), IR intensities (KM/Mole), Raman scattering
 activities (A**4/AMU), depolarization ratios for plane and unpolarized
 incident light, reduced masses (AMU), force constants (mDyne/A),
 and normal coordinates:
                      1                      2                      3
                      A                      A                      A
 Frequencies --    440.7589              1432.6626              1434.5188
 Red. masses --      1.2356                 1.1016                 1.1012
 Frc consts  --      0.1414                 1.3321                 1.3351
 IR Inten    --    121.3916                 5.2191                 5.1147
 Raman Activ --      0.0006                 3.3949                 3.4913
 Depolar (P) --      0.7271                 0.7498                 0.7500
 Depolar (U) --      0.8420                 0.8570                 0.8571
  Atom  AN      X      Y      Z        X      Y      Z        X      Y      Z
     1   6     0.00   0.00   0.14     0.09   0.00   0.00     0.00  -0.09   0.00
     2   1     0.00   0.00  -0.57     0.08   0.00   0.00     0.00   0.81   0.00
     3   1     0.00   0.00  -0.57    -0.59  -0.38   0.00     0.38   0.14   0.00
     4   1     0.00   0.00  -0.57    -0.59   0.38   0.00    -0.39   0.15   0.00
                      4                      5                      6
                      A                      A                      A
 Frequencies --   3167.8321              3361.9749              3362.6918
 Red. masses --      1.0078                 1.1189                 1.1193
 Frc consts  --      5.9588                 7.4512                 7.4570
 IR Inten    --      0.0003                 2.6869                 2.8757
 Raman Activ --    238.2883                61.8898                61.8155
 Depolar (P) --      0.1242                 0.7500                 0.7500
 Depolar (U) --      0.2210                 0.8571                 0.8571
  Atom  AN      X      Y      Z        X      Y      Z        X      Y      Z
     1   6     0.00   0.00   0.00     0.10   0.00   0.00     0.00   0.10   0.00
     2   1     0.58   0.00   0.00    -0.81   0.00   0.00     0.00   0.01   0.00
     3   1    -0.29   0.50   0.00    -0.19   0.36   0.00     0.36  -0.61   0.00
     4   1    -0.29  -0.50   0.00    -0.19  -0.36   0.00    -0.36  -0.61   0.00

 -------------------
 - Thermochemistry -
 -------------------
 Temperature   298.150 Kelvin.  Pressure   1.00000 Atm.
 Atom     1 has atomic number  6 and mass  12.00000
 Atom     2 has atomic number  1 and mass   1.00783
 Atom     3 has atomic number  1 and mass   1.00783
 Atom     4 has atomic number  1 and mass   1.00783
 Molecular mass:    15.02348 amu.
 Principal axes and moments of inertia in atomic units:
                           1         2         3
     Eigenvalues --     6.29762   6.30586  12.60347
           X            1.00000   0.00000   0.00000
           Y            0.00000   1.00000   0.00000
           Z            0.00000   0.00000   1.00000
 This molecule is an asymmetric top.
 Rotational symmetry number  1.
 Rotational temperatures (Kelvin)     13.75342    13.73545     6.87222
 Rotational constants (GHZ):         286.57515   286.20072   143.19395
 Zero-point vibrational energy      78956.2 (Joules/Mol)
                                   18.87098 (Kcal/Mol)
 Warning -- explicit consideration of   1 degrees of freedom as
           vibrations may cause significant error
 Vibrational temperatures:    634.15  2061.28  2063.95  4557.80  4837.13
          (Kelvin)           4838.16
 
 Zero-point correction=                           0.030073 (Hartree/Particle)
 Thermal correction to Energy=                    0.033190
 Thermal correction to Enthalpy=                  0.034134
 Thermal correction to Gibbs Free Energy=         0.010245
 Sum of electronic and zero-point Energies=            -39.691201
 Sum of electronic and thermal Energies=               -39.688084
 Sum of electronic and thermal Enthalpies=             -39.687140
 Sum of electronic and thermal Free Energies=          -39.711029
 
                     E (Thermal)             CV                S
                      KCal/Mol        Cal/Mol-Kelvin    Cal/Mol-Kelvin
 Total                   20.827              7.532             50.279
 Electronic               0.000              0.000              1.377
 Translational            0.889              2.981             34.068
 Rotational               0.889              2.981             13.979
 Vibrational             19.050              1.570              0.855
 Vibration     1          0.801              1.381              0.824
                       Q            Log10(Q)             Ln(Q)
 Total Bot       0.193942D-04         -4.712329        -10.850539
 Total V=0       0.131879D+10          9.120175         20.999980
 Vib (Bot)       0.167293D-13        -13.776522        -31.721614
 Vib (Bot)    1  0.391975D+00         -0.406741         -0.936556
 Vib (V=0)       0.113758D+01          0.055983          0.128905
 Vib (V=0)    1  0.113533D+01          0.055122          0.126924
 Electronic      0.200000D+01          0.301030          0.693147
 Translational   0.228882D+07          6.359611         14.643545
 Rotational      0.253251D+03          2.403552          5.534383
 ***** Axes restored to original set *****
 -------------------------------------------------------------------
 Center     Atomic                   Forces (Hartrees/Bohr)
 Number     Number              X              Y              Z
 -------------------------------------------------------------------
      1        6          -0.000011567    0.000020145    0.000113955
      2        1           0.000012137   -0.000020858   -0.000087325
      3        1          -0.000065924   -0.000037553   -0.000013344
      4        1           0.000065355    0.000038266   -0.000013286
 -------------------------------------------------------------------
 Cartesian Forces:  Max     0.000113955 RMS     0.000052899

 GradGradGradGradGradGradGradGradGradGradGradGradGradGradGradGradGradGrad
 Berny optimization.
 Internal  Forces:  Max     0.000090378 RMS     0.000055935
 Search for a local minimum.
 Step number   1 out of a maximum of    2
 All quantities printed in internal units (Hartrees-Bohrs-Radians)
 Second derivative matrix not updated -- analytic derivatives used.
 The second derivative matrix:
                          R1        R2        R3        A1        A2
           R1           0.38406
           R2          -0.00074   0.38425
           R3          -0.00074  -0.00070   0.38425
           A1           0.00516   0.00472  -0.01036   0.06539
           A2           0.00516  -0.01036   0.00472  -0.03274   0.06539
           A3          -0.01032   0.00564   0.00564  -0.03264  -0.03264
           D1          -0.00001  -0.00002  -0.00002   0.00001   0.00000
                          A3        D1
           A3           0.06529
           D1          -0.00001   0.00614
 ITU=  0
     Eigenvalues ---    0.00614   0.09705   0.09734   0.38273   0.38574
     Eigenvalues ---    0.38576
 Angle between quadratic step and forces=  62.17 degrees.
 Linear search not attempted -- first point.
 Iteration  1 RMS(Cart)=  0.00042506 RMS(Int)=  0.00000030
 Iteration  2 RMS(Cart)=  0.00000019 RMS(Int)=  0.00000022
 Variable       Old X    -DE/DX   Delta X   Delta X   Delta X     New X
                                 (Linear)    (Quad)   (Total)
    R1        2.04179  -0.00009   0.00000  -0.00026  -0.00026   2.04152
    R2        2.04166  -0.00006   0.00000  -0.00014  -0.00014   2.04152
    R3        2.04166  -0.00006   0.00000  -0.00014  -0.00014   2.04152
    A1        2.09492   0.00003   0.00000   0.00034   0.00034   2.09527
    A2        2.09492   0.00003   0.00000   0.00034   0.00034   2.09527
    A3        2.09334  -0.00007   0.00000  -0.00069  -0.00069   2.09265
    D1       -3.14006  -0.00001   0.00000  -0.00154  -0.00154   3.14159
         Item               Value     Threshold  Converged?
 Maximum Force            0.000090     0.000450     YES
 RMS     Force            0.000056     0.000300     YES
 Maximum Displacement     0.000543     0.001800     YES
 RMS     Displacement     0.000425     0.001200     YES
 Predicted change in Energy=-6.170269D-08
 Optimization completed.
    -- Stationary point found.
                           ----------------------------
                           !   Optimized Parameters   !
                           ! (Angstroms and Degrees)  !
 --------------------------                            --------------------------
 ! Name  Definition              Value          Derivative Info.                !
 --------------------------------------------------------------------------------
 ! R1    R(1,2)                  1.0805         -DE/DX =   -0.0001              !
 ! R2    R(1,3)                  1.0804         -DE/DX =   -0.0001              !
 ! R3    R(1,4)                  1.0804         -DE/DX =   -0.0001              !
 ! A1    A(2,1,3)              120.0303         -DE/DX =    0.0                 !
 ! A2    A(2,1,4)              120.0303         -DE/DX =    0.0                 !
 ! A3    A(3,1,4)              119.9393         -DE/DX =   -0.0001              !
 ! D1    D(2,1,4,3)            180.088          -DE/DX =    0.0                 !
 --------------------------------------------------------------------------------
 GradGradGradGradGradGradGradGradGradGradGradGradGradGradGradGradGradGrad

 1\1\GINC-TC-NODE158\Freq\UMP2-Full\6-311G(d,p)\C1H3(2)\EPKTB\21-Oct-20
 16\0\\#N Geom=AllCheck Guess=TCheck SCRF=Check GenChk UMP2-Full/6-311G
 (d,p) Freq\\Title Card Required\\0,2\C,0.1259495086,-0.2181509866,0.08
 93042959\H,-0.053902181,0.0933613937,1.1081379367\H,1.0263421629,0.093
 0557053,-0.420307532\H,-0.593759707,-0.8423105436,-0.4203075608\\Versi
 on=ES64L-G09RevD.01\State=2-A\HF=-39.568394\MP2=-39.721274\PUHF=-39.57
 13796\PMP2-0=-39.7231855\S2=0.761278\S2-1=0.753133\S2A=0.75007\RMSD=5.
 952e-10\RMSF=5.290e-05\ZeroPoint=0.0300728\Thermal=0.0331901\Dipole=0.
 0002865,-0.0004965,-0.000131\DipoleDeriv=-0.1330621,0.2057149,-0.08344
 22,0.2057146,-0.3706014,0.1445261,-0.0834387,0.1445184,-0.0763877,0.08
 24132,-0.0433595,0.0358453,-0.0433593,0.1324803,-0.0620864,0.0358959,-
 0.0621732,-0.0203727,0.0122642,-0.0736379,0.0606174,-0.0736365,0.13212
 12,-0.0199625,0.0603517,-0.020053,0.0483802,0.0383848,-0.0887175,-0.01
 30205,-0.0887188,0.1059999,-0.0624772,-0.0128089,-0.0622922,0.0483801\
 Polar=13.9274318,2.246313,11.333612,-0.9178993,1.5898461,14.5801537\Po
 larDeriv=-2.0273961,0.3483528,1.2247752,3.7136301,2.486096,0.8030484,0
 .346699,1.2238244,1.0434454,2.4860855,0.8429355,-1.3908958,3.706052,2.
 4719119,0.8517172,0.808026,-1.3995631,-4.6251638,-0.6585646,0.4168326,
 -0.3334808,1.4978009,-0.6135009,-1.0633724,0.4422964,-0.3187776,1.2759
 681,-0.6134956,2.2062116,1.8418105,1.1136659,0.1995825,0.8832182,-1.38
 1204,2.3923405,9.6524544,7.3159725,2.0321552,0.711496,-3.1054741,-0.37
 6807,2.215002,1.2981101,1.9554,1.2642699,-0.9187141,-1.0248146,0.97822
 5,-2.6746044,-1.1829006,-0.6027265,2.4596462,0.7582258,-2.5136456,-4.6
 300119,-2.7973406,-1.6027905,-2.1059568,-1.4957881,-1.954678,-2.087105
 6,-2.8604467,-3.5836833,-0.9538758,-2.0243326,-1.4291397,-2.1451135,-1
 .4885938,-1.1322089,-1.8864682,-1.7510033,-2.513645\HyperPolar=15.2121
 29,-2.6363789,-9.1235237,-7.9091648,-27.9213426,-18.5967772,-6.4476335
 ,-6.0635386,10.5023999,34.3737572\DQPolar=3.222497,-1.9370446,-1.28545
 24,-0.5587901,-5.9174172,-3.938989,-0.5544401,-1.6720298,2.2264698,-1.
 9345264,-3.9389919,-1.3690605,-5.9126868,-1.3662017,7.2788886,-3.93737
 25,-1.2836083,2.2232732\Quadrupole=0.1502724,-0.454512,0.3042395,0.523
 7587,-0.2143833,0.3713231\PG=C01 [X(C1H3)]\NImag=0\\0.50534947,0.24141
 483,0.22658633,-0.09821898,0.17011811,0.57334369,-0.05511882,-0.004439
 27,0.05722357,0.04708359,-0.00443928,-0.04999208,-0.09911338,0.0009523
 8,0.04598317,0.05724939,-0.09915814,-0.33126153,-0.05978228,0.10354522
 ,0.34184634,-0.26447619,-0.09579512,0.13145844,0.00121756,-0.00134844,
 -0.00235229,0.27145790,-0.09573031,-0.04893544,0.02856094,0.00806856,0
 .00480451,-0.00428282,0.09881717,0.04492334,0.13148814,0.02860792,-0.1
 2104033,0.02076598,0.00903469,-0.00529241,-0.13931028,-0.03333303,0.11
 666148,-0.18575445,-0.14118044,-0.09046302,0.00681767,0.00483534,0.004
 88518,-0.00819926,-0.01115543,-0.01294384,0.18713604,-0.14124524,-0.12
 765882,-0.09956567,-0.00458166,-0.00079560,-0.00010426,-0.00167361,-0.
 00079241,-0.00430958,0.14750052,0.12924683,-0.09051855,-0.09956789,-0.
 12104183,-0.01820727,-0.01346652,-0.00529240,0.01020413,0.00905490,0.0
 0967126,0.09852169,0.10397951,0.11666298\\0.00001157,-0.00002015,-0.00
 011395,-0.00001214,0.00002086,0.00008733,0.00006592,0.00003755,0.00001
 334,-0.00006535,-0.00003827,0.00001329\\\@


 A warm smile is the universal language of kindness.
                             -- William Arthur Ward
 Job cpu time:       0 days  0 hours  5 minutes 39.9 seconds.
 File lengths (MBytes):  RWF=     74 Int=      0 D2E=      0 Chk=     40 Scr=      1
 Normal termination of Gaussian 09 at Fri Oct 21 11:26:33 2016.
