 Entering Gaussian System, Link 0=g09
 Initial command:
 /cluster/software/gaussian/gaussian-09-D.01/g09/l1.exe "/local/scratch/epktb/Gau-16151.inp" -scrdir="/local/scratch/epktb/"
 Entering Link 1 = /cluster/software/gaussian/gaussian-09-D.01/g09/l1.exe PID=     16152.
  
 Copyright (c) 1988,1990,1992,1993,1995,1998,2003,2009,2013,
            Gaussian, Inc.  All Rights Reserved.
  
 This is part of the Gaussian(R) 09 program.  It is based on
 the Gaussian(R) 03 system (copyright 2003, Gaussian, Inc.),
 the Gaussian(R) 98 system (copyright 1998, Gaussian, Inc.),
 the Gaussian(R) 94 system (copyright 1995, Gaussian, Inc.),
 the Gaussian 92(TM) system (copyright 1992, Gaussian, Inc.),
 the Gaussian 90(TM) system (copyright 1990, Gaussian, Inc.),
 the Gaussian 88(TM) system (copyright 1988, Gaussian, Inc.),
 the Gaussian 86(TM) system (copyright 1986, Carnegie Mellon
 University), and the Gaussian 82(TM) system (copyright 1983,
 Carnegie Mellon University). Gaussian is a federally registered
 trademark of Gaussian, Inc.
  
 This software contains proprietary and confidential information,
 including trade secrets, belonging to Gaussian, Inc.
  
 This software is provided under written license and may be
 used, copied, transmitted, or stored only in accord with that
 written license.
  
 The following legend is applicable only to US Government
 contracts under FAR:
  
                    RESTRICTED RIGHTS LEGEND
  
 Use, reproduction and disclosure by the US Government is
 subject to restrictions as set forth in subparagraphs (a)
 and (c) of the Commercial Computer Software - Restricted
 Rights clause in FAR 52.227-19.
  
 Gaussian, Inc.
 340 Quinnipiac St., Bldg. 40, Wallingford CT 06492
  
  
 ---------------------------------------------------------------
 Warning -- This program may not be used in any manner that
 competes with the business of Gaussian, Inc. or will provide
 assistance to any competitor of Gaussian, Inc.  The licensee
 of this program is prohibited from giving any competitor of
 Gaussian, Inc. access to this program.  By using this program,
 the user acknowledges that Gaussian, Inc. is engaged in the
 business of creating and licensing software in the field of
 computational chemistry and represents and warrants to the
 licensee that it is not a competitor of Gaussian, Inc. and that
 it will not use this program in any manner prohibited above.
 ---------------------------------------------------------------
  

 Cite this work as:
 Gaussian 09, Revision D.01,
 M. J. Frisch, G. W. Trucks, H. B. Schlegel, G. E. Scuseria, 
 M. A. Robb, J. R. Cheeseman, G. Scalmani, V. Barone, B. Mennucci, 
 G. A. Petersson, H. Nakatsuji, M. Caricato, X. Li, H. P. Hratchian, 
 A. F. Izmaylov, J. Bloino, G. Zheng, J. L. Sonnenberg, M. Hada, 
 M. Ehara, K. Toyota, R. Fukuda, J. Hasegawa, M. Ishida, T. Nakajima, 
 Y. Honda, O. Kitao, H. Nakai, T. Vreven, J. A. Montgomery, Jr., 
 J. E. Peralta, F. Ogliaro, M. Bearpark, J. J. Heyd, E. Brothers, 
 K. N. Kudin, V. N. Staroverov, T. Keith, R. Kobayashi, J. Normand, 
 K. Raghavachari, A. Rendell, J. C. Burant, S. S. Iyengar, J. Tomasi, 
 M. Cossi, N. Rega, J. M. Millam, M. Klene, J. E. Knox, J. B. Cross, 
 V. Bakken, C. Adamo, J. Jaramillo, R. Gomperts, R. E. Stratmann, 
 O. Yazyev, A. J. Austin, R. Cammi, C. Pomelli, J. W. Ochterski, 
 R. L. Martin, K. Morokuma, V. G. Zakrzewski, G. A. Voth, 
 P. Salvador, J. J. Dannenberg, S. Dapprich, A. D. Daniels, 
 O. Farkas, J. B. Foresman, J. V. Ortiz, J. Cioslowski, 
 and D. J. Fox, Gaussian, Inc., Wallingford CT, 2013.
 
 ******************************************
 Gaussian 09:  ES64L-G09RevD.01 24-Apr-2013
                21-Oct-2016 
 ******************************************
 %mem=8GB
 %nprocshared=6
 Will use up to    6 processors via shared memory.
 %chk=n2-gasopt
 -----------------------------------
 # opt freq=raman MP2(full)/6-311G**
 -----------------------------------
 1/18=20,19=15,38=1/1,3;
 2/9=110,12=2,17=6,18=5,40=1/2;
 3/5=4,6=6,7=101,11=9,16=1,25=1,30=1,71=1/1,2,3;
 4//1;
 5/5=2,38=5/2;
 8/6=4,10=90/1;
 9/15=2,16=-3/6;
 10/5=1/2;
 6/7=2,8=2,9=2,10=2/1;
 7/12=2/1,2,3,16;
 1/18=20,19=15/3(2);
 2/9=110/2;
 99//99;
 2/9=110/2;
 3/5=4,6=6,7=101,11=9,16=1,25=1,30=1,71=1/1,2,3;
 4/5=5,16=3,69=1/1;
 5/5=2,38=5/2;
 8/6=4,10=90/1;
 9/15=2,16=-3/6;
 10/5=1/2;
 7/12=2/1,2,3,16;
 1/18=20,19=15/3(-8);
 2/9=110/2;
 6/7=2,8=2,9=2,10=2/1;
 99//99;
 -------------------
 Title Card Required
 -------------------
 Symbolic Z-matrix:
 Charge =  0 Multiplicity = 1
 N
 N                    1    B1
       Variables:
  B1                    1.092                    
 

 GradGradGradGradGradGradGradGradGradGradGradGradGradGradGradGradGradGrad
 Berny optimization.
 Initialization pass.
                           ----------------------------
                           !    Initial Parameters    !
                           ! (Angstroms and Degrees)  !
 --------------------------                            --------------------------
 ! Name  Definition              Value          Derivative Info.                !
 --------------------------------------------------------------------------------
 ! R1    R(1,2)                  1.092          estimate D2E/DX2                !
 --------------------------------------------------------------------------------
 Trust Radius=3.00D-01 FncErr=1.00D-07 GrdErr=1.00D-07
 Number of steps in this run=     20 maximum allowed number of steps=    100.
 GradGradGradGradGradGradGradGradGradGradGradGradGradGradGradGradGradGrad

                          Input orientation:                          
 ---------------------------------------------------------------------
 Center     Atomic      Atomic             Coordinates (Angstroms)
 Number     Number       Type             X           Y           Z
 ---------------------------------------------------------------------
      1          7           0        0.000000    0.000000    0.000000
      2          7           0        0.000000    0.000000    1.092000
 ---------------------------------------------------------------------
 Stoichiometry    N2
 Framework group  D*H[C*(N.N)]
 Deg. of freedom     1
 Full point group                 D*H     NOp   8
 Largest Abelian subgroup         D2H     NOp   8
 Largest concise Abelian subgroup C2      NOp   2
                         Standard orientation:                         
 ---------------------------------------------------------------------
 Center     Atomic      Atomic             Coordinates (Angstroms)
 Number     Number       Type             X           Y           Z
 ---------------------------------------------------------------------
      1          7           0        0.000000    0.000000    0.546000
      2          7           0        0.000000    0.000000   -0.546000
 ---------------------------------------------------------------------
 Rotational constants (GHZ):      0.0000000     60.5310951     60.5310951
 Standard basis: 6-311G(d,p) (5D, 7F)
 There are    10 symmetry adapted cartesian basis functions of AG  symmetry.
 There are     1 symmetry adapted cartesian basis functions of B1G symmetry.
 There are     4 symmetry adapted cartesian basis functions of B2G symmetry.
 There are     4 symmetry adapted cartesian basis functions of B3G symmetry.
 There are     1 symmetry adapted cartesian basis functions of AU  symmetry.
 There are    10 symmetry adapted cartesian basis functions of B1U symmetry.
 There are     4 symmetry adapted cartesian basis functions of B2U symmetry.
 There are     4 symmetry adapted cartesian basis functions of B3U symmetry.
 There are     9 symmetry adapted basis functions of AG  symmetry.
 There are     1 symmetry adapted basis functions of B1G symmetry.
 There are     4 symmetry adapted basis functions of B2G symmetry.
 There are     4 symmetry adapted basis functions of B3G symmetry.
 There are     1 symmetry adapted basis functions of AU  symmetry.
 There are     9 symmetry adapted basis functions of B1U symmetry.
 There are     4 symmetry adapted basis functions of B2U symmetry.
 There are     4 symmetry adapted basis functions of B3U symmetry.
    36 basis functions,    64 primitive gaussians,    38 cartesian basis functions
     7 alpha electrons        7 beta electrons
       nuclear repulsion energy        23.7451311547 Hartrees.
 NAtoms=    2 NActive=    2 NUniq=    1 SFac= 4.00D+00 NAtFMM=   60 NAOKFM=F Big=F
 Integral buffers will be    131072 words long.
 Raffenetti 1 integral format.
 Two-electron integral symmetry is turned on.
 One-electron integrals computed using PRISM.
 NBasis=    36 RedAO= T EigKep=  6.86D-03  NBF=     9     1     4     4     1     9     4     4
 NBsUse=    36 1.00D-06 EigRej= -1.00D+00 NBFU=     9     1     4     4     1     9     4     4
 ExpMin= 2.01D-01 ExpMax= 6.29D+03 ExpMxC= 9.49D+02 IAcc=1 IRadAn=         1 AccDes= 0.00D+00
 Harris functional with IExCor=  205 and IRadAn=       1 diagonalized for initial guess.
 HarFok:  IExCor=  205 AccDes= 0.00D+00 IRadAn=         1 IDoV= 1 UseB2=F ITyADJ=14
 ICtDFT=  3500011 ScaDFX=  1.000000  1.000000  1.000000  1.000000
 FoFCou: FMM=F IPFlag=           0 FMFlag=      100000 FMFlg1=           0
         NFxFlg=           0 DoJE=T BraDBF=F KetDBF=T FulRan=T
         wScrn=  0.000000 ICntrl=     500 IOpCl=  0 I1Cent=   200000004 NGrid=           0
         NMat0=    1 NMatS0=      1 NMatT0=    0 NMatD0=    1 NMtDS0=    0 NMtDT0=    0
 Petite list used in FoFCou.
 Initial guess orbital symmetries:
       Occupied  (SGG) (SGU) (SGG) (SGU) (PIU) (PIU) (SGG)
       Virtual   (PIG) (PIG) (SGU) (PIU) (PIU) (SGG) (SGG) (PIG)
                 (PIG) (SGU) (SGU) (DLTG) (DLTG) (PIU) (PIU) (DLTU)
                 (DLTU) (SGG) (PIG) (PIG) (SGU) (PIU) (PIU) (PIG)
                 (PIG) (SGG) (SGU) (SGG) (SGU)
 The electronic state of the initial guess is 1-SGG.
 Keep R1 ints in memory in symmetry-blocked form, NReq=1077023.
 Requested convergence on RMS density matrix=1.00D-08 within 128 cycles.
 Requested convergence on MAX density matrix=1.00D-06.
 Requested convergence on             energy=1.00D-06.
 No special actions if energy rises.
 SCF Done:  E(RHF) =  -108.970345627     A.U. after    9 cycles
            NFock=  9  Conv=0.82D-09     -V/T= 2.0013
 Range of M.O.s used for correlation:     1    36
 NBasis=    36 NAE=     7 NBE=     7 NFC=     0 NFV=     0
 NROrb=     36 NOA=     7 NOB=     7 NVA=    29 NVB=    29
 Fully direct method using O(ONN) memory.
 JobTyp=1 Pass  1:  I=   1 to   7 NPSUse=  6 ParTrn=T ParDer=T DoDerP=T.
 Spin components of T(2) and E(2):
     alpha-alpha T2 =       0.1458530221D-01 E2=     -0.4522465550D-01
     alpha-beta  T2 =       0.8060834747D-01 E2=     -0.2714897782D+00
     beta-beta   T2 =       0.1458530221D-01 E2=     -0.4522465550D-01
 ANorm=    0.1053460465D+01
 E2 =    -0.3619390892D+00 EUMP2 =    -0.10933228471659D+03
          IDoAtm=11
          Differentiating once with respect to electric field.
                with respect to dipole field.
          Differentiating once with respect to nuclear coordinates.
 Keep R1 ints in memory in symmetry-blocked form, NReq=1058581.
          There are     1 degrees of freedom in the 1st order CPHF.  IDoFFX=0 NUNeed=     1.
 LinEq1:  Iter=  0 NonCon=     1 RMS=9.90D-03 Max=7.31D-02 NDo=     1
 AX will form     1 AO Fock derivatives at one time.
 LinEq1:  Iter=  1 NonCon=     1 RMS=2.24D-03 Max=1.95D-02 NDo=     1
 LinEq1:  Iter=  2 NonCon=     1 RMS=3.01D-04 Max=1.90D-03 NDo=     1
 LinEq1:  Iter=  3 NonCon=     1 RMS=4.15D-05 Max=3.22D-04 NDo=     1
 LinEq1:  Iter=  4 NonCon=     1 RMS=2.75D-06 Max=1.66D-05 NDo=     1
 LinEq1:  Iter=  5 NonCon=     1 RMS=2.94D-07 Max=1.76D-06 NDo=     1
 LinEq1:  Iter=  6 NonCon=     1 RMS=1.34D-08 Max=7.27D-08 NDo=     1
 LinEq1:  Iter=  7 NonCon=     1 RMS=7.77D-10 Max=5.37D-09 NDo=     1
 LinEq1:  Iter=  8 NonCon=     0 RMS=4.55D-11 Max=3.02D-10 NDo=     1
 Linear equations converged to 1.000D-10 1.000D-09 after     8 iterations.
 End of Minotr F.D. properties file   721 does not exist.
 End of Minotr F.D. properties file   722 does not exist.
 End of Minotr F.D. properties file   788 does not exist.

 **********************************************************************

            Population analysis using the SCF density.

 **********************************************************************

 Orbital symmetries:
       Occupied  (SGG) (SGU) (SGG) (SGU) (SGG) (PIU) (PIU)
       Virtual   (PIG) (PIG) (SGU) (SGG) (PIU) (PIU) (SGG) (PIG)
                 (PIG) (SGU) (SGU) (DLTG) (DLTG) (PIU) (PIU) (DLTU)
                 (DLTU) (SGG) (PIG) (PIG) (SGU) (PIU) (PIU) (PIG)
                 (PIG) (SGG) (SGU) (SGG) (SGU)
 The electronic state is 1-SGG.
 Alpha  occ. eigenvalues --  -15.68017 -15.67651  -1.47810  -0.77479  -0.63244
 Alpha  occ. eigenvalues --   -0.61492  -0.61492
 Alpha virt. eigenvalues --    0.16909   0.16909   0.55702   0.68383   0.70529
 Alpha virt. eigenvalues --    0.70529   0.81379   0.89862   0.89862   1.02098
 Alpha virt. eigenvalues --    1.39142   1.96044   1.96044   2.01665   2.01665
 Alpha virt. eigenvalues --    2.50234   2.50234   2.74497   3.20302   3.20302
 Alpha virt. eigenvalues --    3.52400   3.99449   3.99449   4.34144   4.34144
 Alpha virt. eigenvalues --    4.63507   4.71030  36.32461  37.74095
          Condensed to atoms (all electrons):
               1          2
     1  N    6.363021   0.636979
     2  N    0.636979   6.363021
 Mulliken charges:
               1
     1  N    0.000000
     2  N    0.000000
 Sum of Mulliken charges =   0.00000
 Mulliken charges with hydrogens summed into heavy atoms:
               1
     1  N    0.000000
     2  N    0.000000
 Electronic spatial extent (au):  <R**2>=             38.8856
 Charge=              0.0000 electrons
 Dipole moment (field-independent basis, Debye):
    X=              0.0000    Y=              0.0000    Z=              0.0000  Tot=              0.0000
 Quadrupole moment (field-independent basis, Debye-Ang):
   XX=            -10.2186   YY=            -10.2186   ZZ=            -11.8184
   XY=              0.0000   XZ=              0.0000   YZ=              0.0000
 Traceless Quadrupole moment (field-independent basis, Debye-Ang):
   XX=              0.5332   YY=              0.5332   ZZ=             -1.0665
   XY=              0.0000   XZ=              0.0000   YZ=              0.0000
 Octapole moment (field-independent basis, Debye-Ang**2):
  XXX=              0.0000  YYY=              0.0000  ZZZ=              0.0000  XYY=              0.0000
  XXY=              0.0000  XXZ=              0.0000  XZZ=              0.0000  YZZ=              0.0000
  YYZ=              0.0000  XYZ=              0.0000
 Hexadecapole moment (field-independent basis, Debye-Ang**3):
 XXXX=             -8.3811 YYYY=             -8.3811 ZZZZ=            -30.9637 XXXY=              0.0000
 XXXZ=              0.0000 YYYX=              0.0000 YYYZ=              0.0000 ZZZX=              0.0000
 ZZZY=              0.0000 XXYY=             -2.7937 XXZZ=             -6.1507 YYZZ=             -6.1507
 XXYZ=              0.0000 YYXZ=              0.0000 ZZXY=              0.0000
 N-N= 2.374513115468D+01 E-N=-3.033189427578D+02  KE= 1.088316945581D+02
 Symmetry AG   KE= 5.344141188867D+01
 Symmetry B1G  KE= 1.282302568729D-34
 Symmetry B2G  KE= 2.172773402116D-32
 Symmetry B3G  KE= 3.765202624096D-32
 Symmetry AU   KE= 4.748430752897D-34
 Symmetry B1U  KE= 4.888431550934D+01
 Symmetry B2U  KE= 3.252983580059D+00
 Symmetry B3U  KE= 3.252983580059D+00
 Calling FoFJK, ICntrl=  10002127 FMM=F ISym2X=1 I1Cent= 0 IOpClX= 0 NMat=1 NMatS=1 NMatT=0.
 ***** Axes restored to original set *****
 -------------------------------------------------------------------
 Center     Atomic                   Forces (Hartrees/Bohr)
 Number     Number              X              Y              Z
 -------------------------------------------------------------------
      1        7           0.000000000    0.000000000   -0.072101604
      2        7           0.000000000    0.000000000    0.072101604
 -------------------------------------------------------------------
 Cartesian Forces:  Max     0.072101604 RMS     0.041627880

 GradGradGradGradGradGradGradGradGradGradGradGradGradGradGradGradGradGrad
 Berny optimization.
 FormGI is forming the generalized inverse of G from B-inverse, IUseBI=4.
 Internal  Forces:  Max     0.072101604 RMS     0.072101604
 Search for a local minimum.
 Step number   1 out of a maximum of   20
 All quantities printed in internal units (Hartrees-Bohrs-Radians)
 Mixed Optimization -- RFO/linear search
 Second derivative matrix not updated -- first step.
 The second derivative matrix:
                          R1
           R1           1.85037
 ITU=  0
     Eigenvalues ---    1.85037
 RFO step:  Lambda=-2.80525985D-03 EMin= 1.85037111D+00
 Linear search not attempted -- first point.
 Iteration  1 RMS(Cart)=  0.02751143 RMS(Int)=  0.00000000
 Iteration  2 RMS(Cart)=  0.00000000 RMS(Int)=  0.00000000
 ClnCor:  largest displacement from symmetrization is 1.19D-18 for atom     1.
 Variable       Old X    -DE/DX   Delta X   Delta X   Delta X     New X
                                 (Linear)    (Quad)   (Total)
    R1        2.06358   0.07210   0.00000   0.03891   0.03891   2.10249
         Item               Value     Threshold  Converged?
 Maximum Force            0.072102     0.000450     NO 
 RMS     Force            0.072102     0.000300     NO 
 Maximum Displacement     0.019454     0.001800     NO 
 RMS     Displacement     0.027511     0.001200     NO 
 Predicted change in Energy=-1.404753D-03
 GradGradGradGradGradGradGradGradGradGradGradGradGradGradGradGradGradGrad

                          Input orientation:                          
 ---------------------------------------------------------------------
 Center     Atomic      Atomic             Coordinates (Angstroms)
 Number     Number       Type             X           Y           Z
 ---------------------------------------------------------------------
      1          7           0        0.000000    0.000000   -0.010294
      2          7           0        0.000000    0.000000    1.102294
 ---------------------------------------------------------------------
 Stoichiometry    N2
 Framework group  D*H[C*(N.N)]
 Deg. of freedom     1
 Full point group                 D*H     NOp   8
 Largest Abelian subgroup         D2H     NOp   8
 Largest concise Abelian subgroup C2      NOp   2
                         Standard orientation:                         
 ---------------------------------------------------------------------
 Center     Atomic      Atomic             Coordinates (Angstroms)
 Number     Number       Type             X           Y           Z
 ---------------------------------------------------------------------
      1          7           0        0.000000    0.000000    0.556294
      2          7           0        0.000000    0.000000   -0.556294
 ---------------------------------------------------------------------
 Rotational constants (GHZ):      0.0000000     58.3115391     58.3115391
 Standard basis: 6-311G(d,p) (5D, 7F)
 There are    10 symmetry adapted cartesian basis functions of AG  symmetry.
 There are     1 symmetry adapted cartesian basis functions of B1G symmetry.
 There are     4 symmetry adapted cartesian basis functions of B2G symmetry.
 There are     4 symmetry adapted cartesian basis functions of B3G symmetry.
 There are     1 symmetry adapted cartesian basis functions of AU  symmetry.
 There are    10 symmetry adapted cartesian basis functions of B1U symmetry.
 There are     4 symmetry adapted cartesian basis functions of B2U symmetry.
 There are     4 symmetry adapted cartesian basis functions of B3U symmetry.
 There are     9 symmetry adapted basis functions of AG  symmetry.
 There are     1 symmetry adapted basis functions of B1G symmetry.
 There are     4 symmetry adapted basis functions of B2G symmetry.
 There are     4 symmetry adapted basis functions of B3G symmetry.
 There are     1 symmetry adapted basis functions of AU  symmetry.
 There are     9 symmetry adapted basis functions of B1U symmetry.
 There are     4 symmetry adapted basis functions of B2U symmetry.
 There are     4 symmetry adapted basis functions of B3U symmetry.
    36 basis functions,    64 primitive gaussians,    38 cartesian basis functions
     7 alpha electrons        7 beta electrons
       nuclear repulsion energy        23.3057218758 Hartrees.
 NAtoms=    2 NActive=    2 NUniq=    1 SFac= 4.00D+00 NAtFMM=   60 NAOKFM=F Big=F
 Integral buffers will be    131072 words long.
 Raffenetti 1 integral format.
 Two-electron integral symmetry is turned on.
 One-electron integrals computed using PRISM.
 NBasis=    36 RedAO= T EigKep=  7.57D-03  NBF=     9     1     4     4     1     9     4     4
 NBsUse=    36 1.00D-06 EigRej= -1.00D+00 NBFU=     9     1     4     4     1     9     4     4
 Initial guess from the checkpoint file:  "n2-gasopt.chk"
 B after Tr=     0.000000    0.000000    0.000000
         Rot=    1.000000    0.000000    0.000000    0.000000 Ang=   0.00 deg.
 Initial guess orbital symmetries:
       Occupied  (SGG) (SGU) (SGG) (SGU) (SGG) (PIU) (PIU)
       Virtual   (SGG) (SGG) (SGG) (SGG) (DLTG) (SGG) (DLTG) (PIG)
                 (PIG) (PIG) (PIG) (PIG) (PIG) (PIG) (PIG) (DLTU)
                 (SGU) (SGU) (SGU) (DLTU) (SGU) (SGU) (SGU) (PIU)
                 (PIU) (PIU) (PIU) (PIU) (PIU)
 Keep R1 ints in memory in symmetry-blocked form, NReq=1077023.
 Requested convergence on RMS density matrix=1.00D-08 within 128 cycles.
 Requested convergence on MAX density matrix=1.00D-06.
 Requested convergence on             energy=1.00D-06.
 No special actions if energy rises.
 SCF Done:  E(RHF) =  -108.966141402     A.U. after    7 cycles
            NFock=  7  Conv=0.98D-08     -V/T= 2.0025
 Range of M.O.s used for correlation:     1    36
 NBasis=    36 NAE=     7 NBE=     7 NFC=     0 NFV=     0
 NROrb=     36 NOA=     7 NOB=     7 NVA=    29 NVB=    29
 Fully direct method using O(ONN) memory.
 JobTyp=1 Pass  1:  I=   1 to   7 NPSUse=  6 ParTrn=T ParDer=T DoDerP=T.
 Spin components of T(2) and E(2):
     alpha-alpha T2 =       0.1529704925D-01 E2=     -0.4610764527D-01
     alpha-beta  T2 =       0.8408235864D-01 E2=     -0.2756095453D+00
     beta-beta   T2 =       0.1529704925D-01 E2=     -0.4610764527D-01
 ANorm=    0.1055782391D+01
 E2 =    -0.3678248358D+00 EUMP2 =    -0.10933396623744D+03
          IDoAtm=11
          Differentiating once with respect to electric field.
                with respect to dipole field.
          Differentiating once with respect to nuclear coordinates.
 Keep R1 ints in memory in symmetry-blocked form, NReq=1058581.
          There are     1 degrees of freedom in the 1st order CPHF.  IDoFFX=0 NUNeed=     1.
 LinEq1:  Iter=  0 NonCon=     1 RMS=1.05D-02 Max=7.82D-02 NDo=     1
 AX will form     1 AO Fock derivatives at one time.
 LinEq1:  Iter=  1 NonCon=     1 RMS=2.38D-03 Max=2.05D-02 NDo=     1
 LinEq1:  Iter=  2 NonCon=     1 RMS=3.11D-04 Max=1.99D-03 NDo=     1
 LinEq1:  Iter=  3 NonCon=     1 RMS=4.30D-05 Max=3.40D-04 NDo=     1
 LinEq1:  Iter=  4 NonCon=     1 RMS=2.79D-06 Max=1.76D-05 NDo=     1
 LinEq1:  Iter=  5 NonCon=     1 RMS=3.05D-07 Max=1.81D-06 NDo=     1
 LinEq1:  Iter=  6 NonCon=     1 RMS=1.39D-08 Max=7.95D-08 NDo=     1
 LinEq1:  Iter=  7 NonCon=     1 RMS=7.53D-10 Max=4.71D-09 NDo=     1
 LinEq1:  Iter=  8 NonCon=     0 RMS=2.89D-11 Max=1.68D-10 NDo=     1
 Linear equations converged to 1.000D-10 1.000D-09 after     8 iterations.
 End of Minotr F.D. properties file   721 does not exist.
 End of Minotr F.D. properties file   722 does not exist.
 End of Minotr F.D. properties file   788 does not exist.
 Calling FoFJK, ICntrl=  10002127 FMM=F ISym2X=1 I1Cent= 0 IOpClX= 0 NMat=1 NMatS=1 NMatT=0.
 ***** Axes restored to original set *****
 -------------------------------------------------------------------
 Center     Atomic                   Forces (Hartrees/Bohr)
 Number     Number              X              Y              Z
 -------------------------------------------------------------------
      1        7           0.000000000    0.000000000   -0.015835798
      2        7           0.000000000    0.000000000    0.015835798
 -------------------------------------------------------------------
 Cartesian Forces:  Max     0.015835798 RMS     0.009142802

 GradGradGradGradGradGradGradGradGradGradGradGradGradGradGradGradGradGrad
 Berny optimization.
 Using GEDIIS/GDIIS optimizer.
 Internal  Forces:  Max     0.015835798 RMS     0.015835798
 Search for a local minimum.
 Step number   2 out of a maximum of   20
 All quantities printed in internal units (Hartrees-Bohrs-Radians)
 Mixed Optimization -- RFO/linear search
 Update second derivatives using D2CorX and points    1    2
 DE= -1.68D-03 DEPred=-1.40D-03 R= 1.20D+00
 TightC=F SS=  1.41D+00  RLast= 3.89D-02 DXNew= 5.0454D-01 1.1672D-01
 Trust test= 1.20D+00 RLast= 3.89D-02 DXMaxT set to 3.00D-01
 The second derivative matrix:
                          R1
           R1           1.44616
 ITU=  1  0
 Use linear search instead of GDIIS.
     Eigenvalues ---    1.44616
 RFO step:  Lambda= 0.00000000D+00 EMin= 1.44616008D+00
 Quartic linear search produced a step of  0.31368.
 Iteration  1 RMS(Cart)=  0.00862971 RMS(Int)=  0.00000000
 Iteration  2 RMS(Cart)=  0.00000000 RMS(Int)=  0.00000000
 ClnCor:  largest displacement from symmetrization is 4.44D-16 for atom     2.
 Variable       Old X    -DE/DX   Delta X   Delta X   Delta X     New X
                                 (Linear)    (Quad)   (Total)
    R1        2.10249   0.01584   0.01220   0.00000   0.01220   2.11469
         Item               Value     Threshold  Converged?
 Maximum Force            0.015836     0.000450     NO 
 RMS     Force            0.015836     0.000300     NO 
 Maximum Displacement     0.006102     0.001800     NO 
 RMS     Displacement     0.008630     0.001200     NO 
 Predicted change in Energy=-8.556579D-05
 GradGradGradGradGradGradGradGradGradGradGradGradGradGradGradGradGradGrad

                          Input orientation:                          
 ---------------------------------------------------------------------
 Center     Atomic      Atomic             Coordinates (Angstroms)
 Number     Number       Type             X           Y           Z
 ---------------------------------------------------------------------
      1          7           0        0.000000    0.000000   -0.013523
      2          7           0        0.000000    0.000000    1.105523
 ---------------------------------------------------------------------
 Stoichiometry    N2
 Framework group  D*H[C*(N.N)]
 Deg. of freedom     1
 Full point group                 D*H     NOp   8
 Largest Abelian subgroup         D2H     NOp   8
 Largest concise Abelian subgroup C2      NOp   2
                         Standard orientation:                         
 ---------------------------------------------------------------------
 Center     Atomic      Atomic             Coordinates (Angstroms)
 Number     Number       Type             X           Y           Z
 ---------------------------------------------------------------------
      1          7           0        0.000000    0.000000    0.559523
      2          7           0        0.000000    0.000000   -0.559523
 ---------------------------------------------------------------------
 Rotational constants (GHZ):      0.0000000     57.6404290     57.6404290
 Standard basis: 6-311G(d,p) (5D, 7F)
 There are    10 symmetry adapted cartesian basis functions of AG  symmetry.
 There are     1 symmetry adapted cartesian basis functions of B1G symmetry.
 There are     4 symmetry adapted cartesian basis functions of B2G symmetry.
 There are     4 symmetry adapted cartesian basis functions of B3G symmetry.
 There are     1 symmetry adapted cartesian basis functions of AU  symmetry.
 There are    10 symmetry adapted cartesian basis functions of B1U symmetry.
 There are     4 symmetry adapted cartesian basis functions of B2U symmetry.
 There are     4 symmetry adapted cartesian basis functions of B3U symmetry.
 There are     9 symmetry adapted basis functions of AG  symmetry.
 There are     1 symmetry adapted basis functions of B1G symmetry.
 There are     4 symmetry adapted basis functions of B2G symmetry.
 There are     4 symmetry adapted basis functions of B3G symmetry.
 There are     1 symmetry adapted basis functions of AU  symmetry.
 There are     9 symmetry adapted basis functions of B1U symmetry.
 There are     4 symmetry adapted basis functions of B2U symmetry.
 There are     4 symmetry adapted basis functions of B3U symmetry.
    36 basis functions,    64 primitive gaussians,    38 cartesian basis functions
     7 alpha electrons        7 beta electrons
       nuclear repulsion energy        23.1712204685 Hartrees.
 NAtoms=    2 NActive=    2 NUniq=    1 SFac= 4.00D+00 NAtFMM=   60 NAOKFM=F Big=F
 Integral buffers will be    131072 words long.
 Raffenetti 1 integral format.
 Two-electron integral symmetry is turned on.
 One-electron integrals computed using PRISM.
 NBasis=    36 RedAO= T EigKep=  7.81D-03  NBF=     9     1     4     4     1     9     4     4
 NBsUse=    36 1.00D-06 EigRej= -1.00D+00 NBFU=     9     1     4     4     1     9     4     4
 Initial guess from the checkpoint file:  "n2-gasopt.chk"
 B after Tr=     0.000000    0.000000    0.000000
         Rot=    1.000000    0.000000    0.000000    0.000000 Ang=   0.00 deg.
 Initial guess orbital symmetries:
       Occupied  (SGG) (SGU) (SGG) (SGU) (SGG) (PIU) (PIU)
       Virtual   (SGG) (SGG) (SGG) (SGG) (DLTG) (SGG) (DLTG) (PIG)
                 (PIG) (PIG) (PIG) (PIG) (PIG) (PIG) (PIG) (DLTU)
                 (SGU) (SGU) (SGU) (DLTU) (SGU) (SGU) (SGU) (PIU)
                 (PIU) (PIU) (PIU) (PIU) (PIU)
 Keep R1 ints in memory in symmetry-blocked form, NReq=1077023.
 Requested convergence on RMS density matrix=1.00D-08 within 128 cycles.
 Requested convergence on MAX density matrix=1.00D-06.
 Requested convergence on             energy=1.00D-06.
 No special actions if energy rises.
 SCF Done:  E(RHF) =  -108.964340996     A.U. after    7 cycles
            NFock=  7  Conv=0.29D-08     -V/T= 2.0028
 Range of M.O.s used for correlation:     1    36
 NBasis=    36 NAE=     7 NBE=     7 NFC=     0 NFV=     0
 NROrb=     36 NOA=     7 NOB=     7 NVA=    29 NVB=    29
 Fully direct method using O(ONN) memory.
 JobTyp=1 Pass  1:  I=   1 to   7 NPSUse=  6 ParTrn=T ParDer=T DoDerP=T.
 Spin components of T(2) and E(2):
     alpha-alpha T2 =       0.1553026263D-01 E2=     -0.4639343059D-01
     alpha-beta  T2 =       0.8521531922D-01 E2=     -0.2769340812D+00
     beta-beta   T2 =       0.1553026263D-01 E2=     -0.4639343059D-01
 ANorm=    0.1056539561D+01
 E2 =    -0.3697209424D+00 EUMP2 =    -0.10933406193795D+03
          IDoAtm=11
          Differentiating once with respect to electric field.
                with respect to dipole field.
          Differentiating once with respect to nuclear coordinates.
 Keep R1 ints in memory in symmetry-blocked form, NReq=1058581.
          There are     1 degrees of freedom in the 1st order CPHF.  IDoFFX=0 NUNeed=     1.
 LinEq1:  Iter=  0 NonCon=     1 RMS=1.06D-02 Max=7.98D-02 NDo=     1
 AX will form     1 AO Fock derivatives at one time.
 LinEq1:  Iter=  1 NonCon=     1 RMS=2.42D-03 Max=2.08D-02 NDo=     1
 LinEq1:  Iter=  2 NonCon=     1 RMS=3.15D-04 Max=2.02D-03 NDo=     1
 LinEq1:  Iter=  3 NonCon=     1 RMS=4.35D-05 Max=3.46D-04 NDo=     1
 LinEq1:  Iter=  4 NonCon=     1 RMS=2.80D-06 Max=1.79D-05 NDo=     1
 LinEq1:  Iter=  5 NonCon=     1 RMS=3.08D-07 Max=1.82D-06 NDo=     1
 LinEq1:  Iter=  6 NonCon=     1 RMS=1.41D-08 Max=8.17D-08 NDo=     1
 LinEq1:  Iter=  7 NonCon=     1 RMS=7.58D-10 Max=4.39D-09 NDo=     1
 LinEq1:  Iter=  8 NonCon=     0 RMS=3.04D-11 Max=1.79D-10 NDo=     1
 Linear equations converged to 1.000D-10 1.000D-09 after     8 iterations.
 End of Minotr F.D. properties file   721 does not exist.
 End of Minotr F.D. properties file   722 does not exist.
 End of Minotr F.D. properties file   788 does not exist.
 Calling FoFJK, ICntrl=  10002127 FMM=F ISym2X=1 I1Cent= 0 IOpClX= 0 NMat=1 NMatS=1 NMatT=0.
 ***** Axes restored to original set *****
 -------------------------------------------------------------------
 Center     Atomic                   Forces (Hartrees/Bohr)
 Number     Number              X              Y              Z
 -------------------------------------------------------------------
      1        7           0.000000000    0.000000000    0.000015852
      2        7           0.000000000    0.000000000   -0.000015852
 -------------------------------------------------------------------
 Cartesian Forces:  Max     0.000015852 RMS     0.000009152

 GradGradGradGradGradGradGradGradGradGradGradGradGradGradGradGradGradGrad
 Berny optimization.
 Using GEDIIS/GDIIS optimizer.
 Internal  Forces:  Max     0.000015852 RMS     0.000015852
 Search for a local minimum.
 Step number   3 out of a maximum of   20
 All quantities printed in internal units (Hartrees-Bohrs-Radians)
 Mixed Optimization -- En-DIIS/RFO-DIIS
 Update second derivatives using D2CorX and points    2    3
 DE= -9.57D-05 DEPred=-8.56D-05 R= 1.12D+00
 TightC=F SS=  1.41D+00  RLast= 1.22D-02 DXNew= 5.0454D-01 3.6613D-02
 Trust test= 1.12D+00 RLast= 1.22D-02 DXMaxT set to 3.00D-01
 The second derivative matrix:
                          R1
           R1           1.29886
 ITU=  1  1
 Use linear search instead of GDIIS.
     Eigenvalues ---    1.29886
 RFO step:  Lambda= 0.00000000D+00 EMin= 1.29886209D+00
 Quartic linear search produced a step of -0.00103.
 Iteration  1 RMS(Cart)=  0.00000886 RMS(Int)=  0.00000000
 Iteration  2 RMS(Cart)=  0.00000000 RMS(Int)=  0.00000000
 ClnCor:  largest displacement from symmetrization is 3.84D-22 for atom     1.
 Variable       Old X    -DE/DX   Delta X   Delta X   Delta X     New X
                                 (Linear)    (Quad)   (Total)
    R1        2.11469  -0.00002  -0.00001   0.00000  -0.00001   2.11468
         Item               Value     Threshold  Converged?
 Maximum Force            0.000016     0.000450     YES
 RMS     Force            0.000016     0.000300     YES
 Maximum Displacement     0.000006     0.001800     YES
 RMS     Displacement     0.000009     0.001200     YES
 Predicted change in Energy=-9.666558D-11
 Optimization completed.
    -- Stationary point found.
                           ----------------------------
                           !   Optimized Parameters   !
                           ! (Angstroms and Degrees)  !
 --------------------------                            --------------------------
 ! Name  Definition              Value          Derivative Info.                !
 --------------------------------------------------------------------------------
 ! R1    R(1,2)                  1.119          -DE/DX =    0.0                 !
 --------------------------------------------------------------------------------
 GradGradGradGradGradGradGradGradGradGradGradGradGradGradGradGradGradGrad

                          Input orientation:                          
 ---------------------------------------------------------------------
 Center     Atomic      Atomic             Coordinates (Angstroms)
 Number     Number       Type             X           Y           Z
 ---------------------------------------------------------------------
      1          7           0        0.000000    0.000000   -0.013523
      2          7           0        0.000000    0.000000    1.105523
 ---------------------------------------------------------------------
 Stoichiometry    N2
 Framework group  D*H[C*(N.N)]
 Deg. of freedom     1
 Full point group                 D*H     NOp   8
 Largest Abelian subgroup         D2H     NOp   8
 Largest concise Abelian subgroup C2      NOp   2
                         Standard orientation:                         
 ---------------------------------------------------------------------
 Center     Atomic      Atomic             Coordinates (Angstroms)
 Number     Number       Type             X           Y           Z
 ---------------------------------------------------------------------
      1          7           0        0.000000    0.000000    0.559523
      2          7           0        0.000000    0.000000   -0.559523
 ---------------------------------------------------------------------
 Rotational constants (GHZ):      0.0000000     57.6404290     57.6404290

 **********************************************************************

            Population analysis using the SCF density.

 **********************************************************************

 Orbital symmetries:
       Occupied  (SGG) (SGU) (SGG) (SGU) (SGG) (PIU) (PIU)
       Virtual   (PIG) (PIG) (SGU) (SGG) (PIU) (PIU) (SGG) (PIG)
                 (PIG) (SGU) (SGU) (DLTG) (DLTG) (PIU) (PIU) (DLTU)
                 (DLTU) (SGG) (PIG) (PIG) (SGU) (PIU) (PIU) (PIG)
                 (PIG) (SGG) (SGU) (SGG) (SGU)
 The electronic state is 1-SGG.
 Alpha  occ. eigenvalues --  -15.68937 -15.68625  -1.45831  -0.78356  -0.62988
 Alpha  occ. eigenvalues --   -0.60349  -0.60349
 Alpha virt. eigenvalues --    0.15516   0.15516   0.54891   0.68837   0.71114
 Alpha virt. eigenvalues --    0.71114   0.81170   0.89151   0.89151   0.99815
 Alpha virt. eigenvalues --    1.35199   1.97167   1.97167   1.99202   1.99202
 Alpha virt. eigenvalues --    2.48258   2.48258   2.73236   3.16598   3.16598
 Alpha virt. eigenvalues --    3.46328   3.98509   3.98509   4.32459   4.32459
 Alpha virt. eigenvalues --    4.56839   4.78349  36.32964  37.56336
          Condensed to atoms (all electrons):
               1          2
     1  N    6.374064   0.625936
     2  N    0.625936   6.374064
 Mulliken charges:
               1
     1  N    0.000000
     2  N    0.000000
 Sum of Mulliken charges =   0.00000
 Mulliken charges with hydrogens summed into heavy atoms:
               1
     1  N    0.000000
     2  N    0.000000
 Electronic spatial extent (au):  <R**2>=             39.7915
 Charge=              0.0000 electrons
 Dipole moment (field-independent basis, Debye):
    X=              0.0000    Y=              0.0000    Z=              0.0000  Tot=              0.0000
 Quadrupole moment (field-independent basis, Debye-Ang):
   XX=            -10.3129   YY=            -10.3129   ZZ=            -11.8431
   XY=              0.0000   XZ=              0.0000   YZ=              0.0000
 Traceless Quadrupole moment (field-independent basis, Debye-Ang):
   XX=              0.5101   YY=              0.5101   ZZ=             -1.0201
   XY=              0.0000   XZ=              0.0000   YZ=              0.0000
 Octapole moment (field-independent basis, Debye-Ang**2):
  XXX=              0.0000  YYY=              0.0000  ZZZ=              0.0000  XYY=              0.0000
  XXY=              0.0000  XXZ=              0.0000  XZZ=              0.0000  YZZ=              0.0000
  YYZ=              0.0000  XYZ=              0.0000
 Hexadecapole moment (field-independent basis, Debye-Ang**3):
 XXXX=             -8.5332 YYYY=             -8.5332 ZZZZ=            -32.0059 XXXY=              0.0000
 XXXZ=              0.0000 YYYX=              0.0000 YYYZ=              0.0000 ZZZX=              0.0000
 ZZZY=              0.0000 XXYY=             -2.8444 XXZZ=             -6.3433 YYZZ=             -6.3433
 XXYZ=              0.0000 YYXZ=              0.0000 ZZXY=              0.0000
 N-N= 2.317122046855D+01 E-N=-3.020220504711D+02  KE= 1.086596230111D+02
 Symmetry AG   KE= 5.331020454077D+01
 Symmetry B1G  KE= 1.176231004503D-34
 Symmetry B2G  KE=-7.143587060423D-33
 Symmetry B3G  KE= 3.283749145978D-32
 Symmetry AU   KE= 4.331519928015D-34
 Symmetry B1U  KE= 4.891393374339D+01
 Symmetry B2U  KE= 3.217742363473D+00
 Symmetry B3U  KE= 3.217742363473D+00
 B after Tr=     0.000000    0.000000    0.000000
         Rot=    1.000000    0.000000    0.000000    0.000000 Ang=   0.00 deg.
 Final structure in terms of initial Z-matrix:
 N
 N,1,B1
      Variables:
 B1=1.11904693
 1\1\GINC-TC-NODE162\FOpt\RMP2-Full\6-311G(d,p)\N2\EPKTB\21-Oct-2016\0\
 \# opt freq=raman MP2(full)/6-311G**\\Title Card Required\\0,1\N,0.,0.
 ,-0.013523467\N,0.,0.,1.105523467\\Version=ES64L-G09RevD.01\State=1-SG
 G\HF=-108.964341\MP2=-109.3340619\RMSD=2.908e-09\RMSF=9.152e-06\Dipole
 =0.,0.,0.\PG=D*H [C*(N1.N1)]\\@


 ALL THINGS ARE POSSIBLE EXCEPT SKIING THROUGH A REVOLVING DOOR.
 Job cpu time:       0 days  0 hours  0 minutes 30.4 seconds.
 File lengths (MBytes):  RWF=      5 Int=      0 D2E=      0 Chk=      2 Scr=      1
 Normal termination of Gaussian 09 at Fri Oct 21 11:17:17 2016.
 Link1:  Proceeding to internal job step number  2.
 ----------------------------------------------------------------------
 #N Geom=AllCheck Guess=TCheck SCRF=Check GenChk RMP2-Full/6-311G(d,p) 
 Freq
 ----------------------------------------------------------------------
 1/10=4,29=7,30=1,38=1121,40=1/1,6,3;
 2/12=2,40=1/2;
 3/5=4,6=6,7=101,11=1,14=-4,16=1,25=1,30=1,70=2,71=2,116=1,140=1/1,2,3;
 4/5=101,69=2/1;
 5/5=2,98=1/2;
 8/6=3,8=1,10=90,19=11/1;
 9/15=3,16=-3/6;
 11/6=1,8=1,15=11,17=11,24=-1,27=1,28=-2,29=300,32=6,42=3/1,2,10;
 10/6=2,21=1/2;
 8/6=4,8=1,10=90,19=11/11,4;
 10/5=1,20=4/2;
 11/12=2,14=11,16=1,28=-2,42=3/2,10,12;
 6/7=2,8=2,9=2,10=2,22=-1/1;
 7/10=1,12=2,25=1,44=2/1,2,3,16;
 1/38=1120/6(3);
 7/8=1,25=1,44=-1/16;
 1/10=4,30=1,38=1120/3;
 99//99;
 3/5=4,6=6,7=101,11=1,14=-3,16=1,25=1,30=1,70=5,71=1,116=1,140=1/1,2,3;
 4/5=5,16=3,69=2/1;
 5/5=2,38=5,98=1/2;
 8/6=3,8=1,10=90,19=11/1;
 9/15=3,16=-3/6;
 11/6=1,8=1,15=11,17=11,24=-1,27=1,28=-2,29=300,32=6,42=3/1,2,10;
 10/6=2,21=1/2;
 8/6=4,8=1,10=90,19=11/11,4;
 10/5=1,20=4/2;
 11/12=2,14=11,16=1,28=-2,42=3/2,10,12;
 6/7=2,8=2,9=2,10=2,22=-1/1;
 7/7=1,10=1,12=2,44=2/16;
 1/38=1120/6(-12);
 7/8=1,25=1,44=-1/16;
 1/10=4,30=1,38=1120/3;
 99//99;
 Structure from the checkpoint file:  "n2-gasopt.chk"
 -------------------
 Title Card Required
 -------------------
 Charge =  0 Multiplicity = 1
 Redundant internal coordinates found in file.
 N,0,0.,0.,-0.013523467
 N,0,0.,0.,1.105523467
 Recover connectivity data from disk.
 Differentiate once with respect to electric field.
 Nuclear step= 0.001000 Angstroms, electric field step= 0.000333 atomic units, NStep=1.

 GradGradGradGradGradGradGradGradGradGradGradGradGradGradGradGradGradGrad
 Berny optimization.
 Initialization pass.
                           ----------------------------
                           !    Initial Parameters    !
                           ! (Angstroms and Degrees)  !
 --------------------------                            --------------------------
 ! Name  Definition              Value          Derivative Info.                !
 --------------------------------------------------------------------------------
 ! R1    R(1,2)                  1.119          calculate D2E/DX2 analytically  !
 --------------------------------------------------------------------------------
 Trust Radius=3.00D-01 FncErr=1.00D-07 GrdErr=1.00D-07
 Number of steps in this run=      2 maximum allowed number of steps=      2.
 GradGradGradGradGradGradGradGradGradGradGradGradGradGradGradGradGradGrad

                          Input orientation:                          
 ---------------------------------------------------------------------
 Center     Atomic      Atomic             Coordinates (Angstroms)
 Number     Number       Type             X           Y           Z
 ---------------------------------------------------------------------
      1          7           0        0.000000    0.000000   -0.013523
      2          7           0        0.000000    0.000000    1.105523
 ---------------------------------------------------------------------
 Stoichiometry    N2
 Framework group  D*H[C*(N.N)]
 Deg. of freedom     1
 Full point group                 D*H     NOp   8
 Largest Abelian subgroup         D2H     NOp   8
 Largest concise Abelian subgroup C2      NOp   2
                         Standard orientation:                         
 ---------------------------------------------------------------------
 Center     Atomic      Atomic             Coordinates (Angstroms)
 Number     Number       Type             X           Y           Z
 ---------------------------------------------------------------------
      1          7           0        0.000000    0.000000    0.559523
      2          7           0        0.000000    0.000000   -0.559523
 ---------------------------------------------------------------------
 Rotational constants (GHZ):      0.0000000     57.6404290     57.6404290
 Standard basis: 6-311G(d,p) (5D, 7F)
 There are    10 symmetry adapted cartesian basis functions of AG  symmetry.
 There are     1 symmetry adapted cartesian basis functions of B1G symmetry.
 There are     4 symmetry adapted cartesian basis functions of B2G symmetry.
 There are     4 symmetry adapted cartesian basis functions of B3G symmetry.
 There are     1 symmetry adapted cartesian basis functions of AU  symmetry.
 There are    10 symmetry adapted cartesian basis functions of B1U symmetry.
 There are     4 symmetry adapted cartesian basis functions of B2U symmetry.
 There are     4 symmetry adapted cartesian basis functions of B3U symmetry.
 There are     9 symmetry adapted basis functions of AG  symmetry.
 There are     1 symmetry adapted basis functions of B1G symmetry.
 There are     4 symmetry adapted basis functions of B2G symmetry.
 There are     4 symmetry adapted basis functions of B3G symmetry.
 There are     1 symmetry adapted basis functions of AU  symmetry.
 There are     9 symmetry adapted basis functions of B1U symmetry.
 There are     4 symmetry adapted basis functions of B2U symmetry.
 There are     4 symmetry adapted basis functions of B3U symmetry.
    36 basis functions,    64 primitive gaussians,    38 cartesian basis functions
     7 alpha electrons        7 beta electrons
       nuclear repulsion energy        23.1712204685 Hartrees.
 NAtoms=    2 NActive=    2 NUniq=    1 SFac= 4.00D+00 NAtFMM=   60 NAOKFM=F Big=F
 Integral buffers will be    131072 words long.
 Raffenetti 1 integral format.
 Two-electron integral symmetry is turned on.
 One-electron integrals computed using PRISM.
 NBasis=    36 RedAO= T EigKep=  7.81D-03  NBF=     9     1     4     4     1     9     4     4
 NBsUse=    36 1.00D-06 EigRej= -1.00D+00 NBFU=     9     1     4     4     1     9     4     4
 Initial guess from the checkpoint file:  "n2-gasopt.chk"
 B after Tr=     0.000000    0.000000    0.000000
         Rot=    1.000000    0.000000    0.000000    0.000000 Ang=   0.00 deg.
 Initial guess orbital symmetries:
       Occupied  (SGG) (SGU) (SGG) (SGU) (SGG) (PIU) (PIU)
       Virtual   (PIG) (PIG) (SGU) (SGG) (PIU) (PIU) (SGG) (PIG)
                 (PIG) (SGU) (SGU) (DLTG) (DLTG) (PIU) (PIU) (DLTU)
                 (DLTU) (SGG) (PIG) (PIG) (SGU) (PIU) (PIU) (PIG)
                 (PIG) (SGG) (SGU) (SGG) (SGU)
 Keep R1 ints in memory in symmetry-blocked form, NReq=1077023.
 Requested convergence on RMS density matrix=1.00D-08 within 128 cycles.
 Requested convergence on MAX density matrix=1.00D-06.
 Requested convergence on             energy=1.00D-06.
 No special actions if energy rises.
 SCF Done:  E(RHF) =  -108.964340996     A.U. after    1 cycles
            NFock=  1  Conv=0.12D-09     -V/T= 2.0028
 Range of M.O.s used for correlation:     1    36
 NBasis=    36 NAE=     7 NBE=     7 NFC=     0 NFV=     0
 NROrb=     36 NOA=     7 NOB=     7 NVA=    29 NVB=    29
 Disk-based method using ON**2 memory for  7 occupieds at a time.
 Permanent disk used for amplitudes=       49735 words.
 Estimated scratch disk usage=     1007136 words.
 Actual    scratch disk usage=     1007136 words.
 JobTyp=1 Pass  1:  I=   1 to   7 NPSUse=  6 ParTrn=T ParDer=T DoDerP=T.
 (rs|ai) integrals will be sorted in core.
 Spin components of T(2) and E(2):
     alpha-alpha T2 =       0.1553026263D-01 E2=     -0.4639343061D-01
     alpha-beta  T2 =       0.8521531922D-01 E2=     -0.2769340812D+00
     beta-beta   T2 =       0.1553026263D-01 E2=     -0.4639343061D-01
 ANorm=    0.1056539561D+01
 E2 =    -0.3697209425D+00 EUMP2 =    -0.10933406193805D+03
 G2DrvN: will do     3 centers at a time, making    1 passes.
 Calling FoFCou, ICntrl=  3107 FMM=F I1Cent=   0 AccDes= 0.00D+00.
 End of G2Drv F.D. properties file   721 does not exist.
 End of G2Drv F.D. properties file   722 does not exist.
 End of G2Drv F.D. properties file   788 does not exist.
          IDoAtm=11
          Differentiating once with respect to electric field.
                with respect to dipole field.
          Differentiating once with respect to nuclear coordinates.
 Keep R1 ints in memory in symmetry-blocked form, NReq=1058539.
          There are     9 degrees of freedom in the 1st order CPHF.  IDoFFX=6 NUNeed=     9.
      6 vectors produced by pass  0 Test12= 2.26D-15 1.11D-08 XBig12= 5.04D+00 1.46D+00.
 AX will form     6 AO Fock derivatives at one time.
      6 vectors produced by pass  1 Test12= 2.26D-15 1.11D-08 XBig12= 1.03D+00 4.74D-01.
      6 vectors produced by pass  2 Test12= 2.26D-15 1.11D-08 XBig12= 1.83D-02 6.55D-02.
      6 vectors produced by pass  3 Test12= 2.26D-15 1.11D-08 XBig12= 2.72D-04 6.52D-03.
      6 vectors produced by pass  4 Test12= 2.26D-15 1.11D-08 XBig12= 5.12D-06 8.70D-04.
      6 vectors produced by pass  5 Test12= 2.26D-15 1.11D-08 XBig12= 8.22D-09 4.03D-05.
      6 vectors produced by pass  6 Test12= 2.26D-15 1.11D-08 XBig12= 2.88D-11 2.31D-06.
      3 vectors produced by pass  7 Test12= 2.26D-15 1.11D-08 XBig12= 8.14D-14 1.42D-07.
      1 vectors produced by pass  8 Test12= 2.26D-15 1.11D-08 XBig12= 6.57D-16 1.37D-08.
 InvSVY:  IOpt=1 It=  1 EMax= 3.33D-16
 Solved reduced A of dimension    46 with     6 vectors.
 End of Minotr F.D. properties file   721 does not exist.
 End of Minotr F.D. properties file   722 does not exist.
 End of Minotr F.D. properties file   788 does not exist.
 MDV=  1073741824.
 Form MO integral derivatives with frozen-active canonical formalism.
 Discarding MO integrals.
 Reordered first order wavefunction length =        82418
 In DefCFB: NBatch=  1 ICI=  7 ICA= 29 LFMax= 29
            Large arrays: LIAPS=     1110816 LIARS=     1025962 words.
 Semi-Direct transformation.
 ModeAB=           4 MOrb=             7 LenV=    1073562472
 LASXX=       136647 LTotXX=      136647 LenRXX=      284809
 LTotAB=      148162 MaxLAS=      112392 LenRXY=           0
 NonZer=      421456 LenScr=     1263616 LnRSAI=      112392
 LnScr1=      785920 LExtra=           0 Total=      2446737
 MaxDsk=          -1 SrtSym=           T ITran=            4
 JobTyp=0 Pass  1:  I=   1 to   7.
 (rs|ai) integrals will be sorted in core.
 Spin components of T(2) and E(2):
     alpha-alpha T2 =       0.1553026263D-01 E2=     -0.4639343061D-01
     alpha-beta  T2 =       0.8521531922D-01 E2=     -0.2769340812D+00
     beta-beta   T2 =       0.1553026263D-01 E2=     -0.4639343061D-01
 ANorm=    0.1494172577D+01
 E2 =    -0.3697209425D+00 EUMP2 =    -0.10933406193805D+03
          IDoAtm=11
          Differentiating once with respect to electric field.
                with respect to dipole field.
          Differentiating once with respect to nuclear coordinates.
          There are     1 degrees of freedom in the 1st order CPHF.  IDoFFX=0 NUNeed=     1.
 LinEq1:  Iter=  0 NonCon=     1 RMS=1.06D-02 Max=7.98D-02 NDo=     1
 LinEq1:  Iter=  1 NonCon=     1 RMS=2.42D-03 Max=2.08D-02 NDo=     1
 LinEq1:  Iter=  2 NonCon=     1 RMS=3.15D-04 Max=2.02D-03 NDo=     1
 LinEq1:  Iter=  3 NonCon=     1 RMS=4.35D-05 Max=3.46D-04 NDo=     1
 LinEq1:  Iter=  4 NonCon=     1 RMS=2.80D-06 Max=1.79D-05 NDo=     1
 LinEq1:  Iter=  5 NonCon=     1 RMS=3.08D-07 Max=1.82D-06 NDo=     1
 LinEq1:  Iter=  6 NonCon=     1 RMS=1.41D-08 Max=8.17D-08 NDo=     1
 LinEq1:  Iter=  7 NonCon=     1 RMS=7.58D-10 Max=4.39D-09 NDo=     1
 LinEq1:  Iter=  8 NonCon=     0 RMS=3.04D-11 Max=1.79D-10 NDo=     1
 Linear equations converged to 1.000D-10 1.000D-09 after     8 iterations.
 End of Minotr F.D. properties file   721 does not exist.
 End of Minotr F.D. properties file   722 does not exist.
 End of Minotr F.D. properties file   788 does not exist.
 Symmetrizing basis deriv contribution to polar:
 IMax=3 JMax=2 DiffMx= 0.00D+00
 G2DrvN: will do     3 centers at a time, making    1 passes.
 Calling FoFCou, ICntrl=  3107 FMM=F I1Cent=   0 AccDes= 0.00D+00.
 End of G2Drv F.D. properties file   721 does not exist.
 End of G2Drv F.D. properties file   722 does not exist.
 End of G2Drv F.D. properties file   788 does not exist.
 R2 and R3 integrals will be kept in memory, NReq=     1369822.
 DD1Dir will call FoFMem   1 times, MxPair=        56
 NAB=    28 NAA=     0 NBB=     0.
 Discarding MO integrals.

 **********************************************************************

            Population analysis using the MP2 density.

 **********************************************************************

 Orbital symmetries:
       Occupied  (SGG) (SGU) (SGG) (SGU) (SGG) (PIU) (PIU)
       Virtual   (PIG) (PIG) (SGU) (SGG) (PIU) (PIU) (SGG) (PIG)
                 (PIG) (SGU) (SGU) (DLTG) (DLTG) (PIU) (PIU) (DLTU)
                 (DLTU) (SGG) (PIG) (PIG) (SGU) (PIU) (PIU) (PIG)
                 (PIG) (SGG) (SGU) (SGG) (SGU)
 The electronic state is 1-SGG.
 Alpha  occ. eigenvalues --  -15.68937 -15.68625  -1.45831  -0.78356  -0.62988
 Alpha  occ. eigenvalues --   -0.60349  -0.60349
 Alpha virt. eigenvalues --    0.15516   0.15516   0.54891   0.68837   0.71114
 Alpha virt. eigenvalues --    0.71114   0.81170   0.89151   0.89151   0.99815
 Alpha virt. eigenvalues --    1.35199   1.97167   1.97167   1.99202   1.99202
 Alpha virt. eigenvalues --    2.48258   2.48258   2.73236   3.16598   3.16598
 Alpha virt. eigenvalues --    3.46328   3.98509   3.98509   4.32459   4.32459
 Alpha virt. eigenvalues --    4.56839   4.78349  36.32964  37.56336
          Condensed to atoms (all electrons):
               1          2
     1  N    6.548182   0.451818
     2  N    0.451818   6.548182
 Mulliken charges:
               1
     1  N    0.000000
     2  N    0.000000
 Sum of Mulliken charges =   0.00000
 Mulliken charges with hydrogens summed into heavy atoms:
               1
     1  N    0.000000
     2  N    0.000000
 APT charges:
               1
     1  N    0.000000
     2  N    0.000000
 Sum of APT charges =   0.00000
 APT charges with hydrogens summed into heavy atoms:
               1
     1  N    0.000000
     2  N    0.000000
 Electronic spatial extent (au):  <R**2>=             39.5768
 Charge=              0.0000 electrons
 Dipole moment (field-independent basis, Debye):
    X=              0.0000    Y=              0.0000    Z=              0.0000  Tot=              0.0000
 Quadrupole moment (field-independent basis, Debye-Ang):
   XX=            -10.0994   YY=            -10.0994   ZZ=            -11.9813
   XY=              0.0000   XZ=              0.0000   YZ=              0.0000
 Traceless Quadrupole moment (field-independent basis, Debye-Ang):
   XX=              0.6273   YY=              0.6273   ZZ=             -1.2546
   XY=              0.0000   XZ=              0.0000   YZ=              0.0000
 Octapole moment (field-independent basis, Debye-Ang**2):
  XXX=              0.0000  YYY=              0.0000  ZZZ=              0.0000  XYY=              0.0000
  XXY=              0.0000  XXZ=              0.0000  XZZ=              0.0000  YZZ=              0.0000
  YYZ=              0.0000  XYZ=              0.0000
 Hexadecapole moment (field-independent basis, Debye-Ang**3):
 XXXX=             -8.1601 YYYY=             -8.1601 ZZZZ=            -32.2919 XXXY=              0.0000
 XXXZ=              0.0000 YYYX=              0.0000 YYYZ=              0.0000 ZZZX=              0.0000
 ZZZY=              0.0000 XXYY=             -2.7200 XXZZ=             -6.3337 YYZZ=             -6.3337
 XXYZ=              0.0000 YYXZ=              0.0000 ZZXY=              0.0000
 N-N= 2.317122046855D+01 E-N=-3.027272402146D+02  KE= 1.092763331598D+02
 Symmetry AG   KE= 5.319709451249D+01
 Symmetry B1G  KE= 1.300983602025D-02
 Symmetry B2G  KE= 2.189886505604D-01
 Symmetry B3G  KE= 2.189886505604D-01
 Symmetry AU   KE= 5.258192669158D-03
 Symmetry B1U  KE= 4.900522998455D+01
 Symmetry B2U  KE= 3.308881666500D+00
 Symmetry B3U  KE= 3.308881666500D+00
  Exact polarizability:   6.107   0.000   6.107   0.000   0.000  13.218
 Approx polarizability:   5.511   0.000   5.511   0.000   0.000  17.005
 Calling FoFJK, ICntrl=  10100127 FMM=F ISym2X=1 I1Cent= 0 IOpClX= 0 NMat=1 NMatS=1 NMatT=0.
 ***** Axes restored to original set *****
 -------------------------------------------------------------------
 Center     Atomic                   Forces (Hartrees/Bohr)
 Number     Number              X              Y              Z
 -------------------------------------------------------------------
      1        7           0.000000000    0.000000000    0.000015850
      2        7           0.000000000    0.000000000   -0.000015850
 -------------------------------------------------------------------
 Cartesian Forces:  Max     0.000015850 RMS     0.000009151
 FormGI is forming the generalized inverse of G from B-inverse, IUseBI=4.
 NDeriv=   3 NFrqRd=  0 NDerD0=   0 MskFDP=       0 MskDFD=       0 MskDF0=       0
 At 1st pt F.D. properties file   721 does not exist.
 At 1st pt F.D. properties file   722 does not exist.
 D2Numr ... symmetry will be used.
 Standard basis: 6-311G(d,p) (5D, 7F)
 The following finite field(s) will be applied:
 An electric field of              0.0003  0.0000  0.0000
    36 basis functions,    64 primitive gaussians,    38 cartesian basis functions
     7 alpha electrons        7 beta electrons
       nuclear repulsion energy        23.1712204685 Hartrees.
 NAtoms=    2 NActive=    2 NUniq=    2 SFac= 1.00D+00 NAtFMM=   60 NAOKFM=F Big=F
 Integral buffers will be    131072 words long.
 Raffenetti 1 integral format.
 Two-electron integral symmetry is turned off.
 One-electron integrals computed using PRISM.
 NBasis=    36 RedAO= T EigKep=  5.52D-03  NBF=    36
 NBsUse=    36 1.00D-06 EigRej= -1.00D+00 NBFU=    36
 The nuclear repulsion energy is now        23.1712204685 hartrees.
 Initial guess from the checkpoint file:  "n2-gasopt.chk"
 B after Tr=     0.000000    0.000000    0.000000
         Rot=    1.000000    0.000000    0.000000    0.000000 Ang=   0.00 deg.
 Keep R1 ints in memory in canonical form, NReq=1073531.
 Requested convergence on RMS density matrix=1.00D-08 within 128 cycles.
 Requested convergence on MAX density matrix=1.00D-06.
 Requested convergence on             energy=1.00D-06.
 No special actions if energy rises.
 SCF Done:  E(RHF) =  -108.964341316     A.U. after    6 cycles
            NFock=  6  Conv=0.16D-08     -V/T= 2.0028
 Range of M.O.s used for correlation:     1    36
 NBasis=    36 NAE=     7 NBE=     7 NFC=     0 NFV=     0
 NROrb=     36 NOA=     7 NOB=     7 NVA=    29 NVB=    29
 Disk-based method using ON**2 memory for  7 occupieds at a time.
 Permanent disk used for amplitudes=       49735 words.
 Estimated scratch disk usage=     1186192 words.
 Actual    scratch disk usage=     1186192 words.
 JobTyp=1 Pass  1:  I=   1 to   7 NPSUse=  6 ParTrn=T ParDer=T DoDerP=T.
 (rs|ai) integrals will be sorted in core.
 Spin components of T(2) and E(2):
     alpha-alpha T2 =       0.1553026426D-01 E2=     -0.4639343278D-01
     alpha-beta  T2 =       0.8521533147D-01 E2=     -0.2769340954D+00
     beta-beta   T2 =       0.1553026426D-01 E2=     -0.4639343278D-01
 ANorm=    0.1056539569D+01
 E2 =    -0.3697209609D+00 EUMP2 =    -0.10933406227736D+03
 G2DrvN: will do     3 centers at a time, making    1 passes.
 Calling FoFCou, ICntrl=  3107 FMM=F I1Cent=   0 AccDes= 0.00D+00.
 End of G2Drv F.D. properties file   721 does not exist.
 End of G2Drv F.D. properties file   722 does not exist.
 End of G2Drv F.D. properties file   788 does not exist.
          IDoAtm=11
          Differentiating once with respect to electric field.
                with respect to dipole field.
          Differentiating once with respect to nuclear coordinates.
 Keep R1 ints in memory in canonical form, NReq=1054891.
          There are     9 degrees of freedom in the 1st order CPHF.  IDoFFX=6 NUNeed=     9.
      6 vectors produced by pass  0 Test12= 2.26D-15 1.11D-08 XBig12= 5.04D+00 1.46D+00.
 AX will form     6 AO Fock derivatives at one time.
      6 vectors produced by pass  1 Test12= 2.26D-15 1.11D-08 XBig12= 1.03D+00 4.74D-01.
      6 vectors produced by pass  2 Test12= 2.26D-15 1.11D-08 XBig12= 1.83D-02 6.55D-02.
      6 vectors produced by pass  3 Test12= 2.26D-15 1.11D-08 XBig12= 2.72D-04 6.52D-03.
      6 vectors produced by pass  4 Test12= 2.26D-15 1.11D-08 XBig12= 5.12D-06 8.70D-04.
      6 vectors produced by pass  5 Test12= 2.26D-15 1.11D-08 XBig12= 8.22D-09 4.03D-05.
      6 vectors produced by pass  6 Test12= 2.26D-15 1.11D-08 XBig12= 2.88D-11 2.31D-06.
      5 vectors produced by pass  7 Test12= 2.26D-15 1.11D-08 XBig12= 8.14D-14 1.42D-07.
      1 vectors produced by pass  8 Test12= 2.26D-15 1.11D-08 XBig12= 6.57D-16 1.37D-08.
 InvSVY:  IOpt=1 It=  1 EMax= 2.22D-16
 Solved reduced A of dimension    48 with     6 vectors.
 End of Minotr F.D. properties file   721 does not exist.
 End of Minotr F.D. properties file   722 does not exist.
 End of Minotr F.D. properties file   788 does not exist.
 MDV=  1073741824.
 Form MO integral derivatives with frozen-active canonical formalism.
 Discarding MO integrals.
 Reordered first order wavefunction length =        82418
 In DefCFB: NBatch=  1 ICI=  7 ICA= 29 LFMax= 29
            Large arrays: LIAPS=     1110816 LIARS=     1025962 words.
 Semi-Direct transformation.
 ModeAB=           2 MOrb=             7 LenV=    1073563437
 LASXX=       136647 LTotXX=      136647 LenRXX=      136647
 LTotAB=      148162 MaxLAS=      186732 LenRXY=      186732
 NonZer=      273294 LenScr=      819200 LnRSAI=           0
 LnScr1=           0 LExtra=           0 Total=      1142579
 MaxDsk=          -1 SrtSym=           F ITran=            4
 JobTyp=0 Pass  1:  I=   1 to   7.
 (rs|ai) integrals will be sorted in core.
 Spin components of T(2) and E(2):
     alpha-alpha T2 =       0.1553026426D-01 E2=     -0.4639343278D-01
     alpha-beta  T2 =       0.8521533147D-01 E2=     -0.2769340953D+00
     beta-beta   T2 =       0.1553026426D-01 E2=     -0.4639343278D-01
 ANorm=    0.1494172587D+01
 E2 =    -0.3697209609D+00 EUMP2 =    -0.10933406227736D+03
          IDoAtm=11
          Differentiating once with respect to electric field.
                with respect to dipole field.
          Differentiating once with respect to nuclear coordinates.
          There are     1 degrees of freedom in the 1st order CPHF.  IDoFFX=0 NUNeed=     1.
 LinEq1:  Iter=  0 NonCon=     1 RMS=1.06D-02 Max=7.98D-02 NDo=     1
 LinEq1:  Iter=  1 NonCon=     1 RMS=2.42D-03 Max=2.08D-02 NDo=     1
 LinEq1:  Iter=  2 NonCon=     1 RMS=3.15D-04 Max=2.02D-03 NDo=     1
 LinEq1:  Iter=  3 NonCon=     1 RMS=4.35D-05 Max=3.46D-04 NDo=     1
 LinEq1:  Iter=  4 NonCon=     1 RMS=2.80D-06 Max=1.79D-05 NDo=     1
 LinEq1:  Iter=  5 NonCon=     1 RMS=3.08D-07 Max=1.82D-06 NDo=     1
 LinEq1:  Iter=  6 NonCon=     1 RMS=1.42D-08 Max=8.18D-08 NDo=     1
 LinEq1:  Iter=  7 NonCon=     1 RMS=1.01D-09 Max=7.82D-09 NDo=     1
 LinEq1:  Iter=  8 NonCon=     1 RMS=1.64D-10 Max=1.52D-09 NDo=     1
 LinEq1:  Iter=  9 NonCon=     0 RMS=1.03D-11 Max=6.09D-11 NDo=     1
 Linear equations converged to 1.000D-10 1.000D-09 after     9 iterations.
 End of Minotr F.D. properties file   721 does not exist.
 End of Minotr F.D. properties file   722 does not exist.
 End of Minotr F.D. properties file   788 does not exist.
 Symmetrizing basis deriv contribution to polar:
 IMax=3 JMax=2 DiffMx= 0.00D+00
 G2DrvN: will do     3 centers at a time, making    1 passes.
 Calling FoFCou, ICntrl=  3107 FMM=F I1Cent=   0 AccDes= 0.00D+00.
 End of G2Drv F.D. properties file   721 does not exist.
 End of G2Drv F.D. properties file   722 does not exist.
 End of G2Drv F.D. properties file   788 does not exist.
 R2 and R3 integrals will be kept in memory, NReq=     1369822.
 DD1Dir will call FoFMem   1 times, MxPair=        56
 NAB=    28 NAA=     0 NBB=     0.
 Discarding MO integrals.

 **********************************************************************

            Population analysis using the MP2 density.

 **********************************************************************

 Alpha  occ. eigenvalues --  -15.68937 -15.68625  -1.45831  -0.78356  -0.62989
 Alpha  occ. eigenvalues --   -0.60349  -0.60349
 Alpha virt. eigenvalues --    0.15516   0.15516   0.54891   0.68837   0.71114
 Alpha virt. eigenvalues --    0.71114   0.81170   0.89151   0.89151   0.99815
 Alpha virt. eigenvalues --    1.35199   1.97167   1.97167   1.99202   1.99202
 Alpha virt. eigenvalues --    2.48258   2.48258   2.73236   3.16598   3.16598
 Alpha virt. eigenvalues --    3.46328   3.98509   3.98509   4.32459   4.32459
 Alpha virt. eigenvalues --    4.56839   4.78349  36.32964  37.56336
          Condensed to atoms (all electrons):
               1          2
     1  N    6.548182   0.451818
     2  N    0.451818   6.548182
 Mulliken charges:
               1
     1  N    0.000000
     2  N    0.000000
 Sum of Mulliken charges =   0.00000
 Mulliken charges with hydrogens summed into heavy atoms:
               1
     1  N    0.000000
     2  N    0.000000
 APT charges:
               1
     1  N    0.000000
     2  N    0.000000
 Sum of APT charges =   0.00000
 APT charges with hydrogens summed into heavy atoms:
               1
     1  N    0.000000
     2  N    0.000000
 Electronic spatial extent (au):  <R**2>=             39.5768
 Charge=              0.0000 electrons
 Dipole moment (field-independent basis, Debye):
    X=             -0.0052    Y=              0.0000    Z=              0.0000  Tot=              0.0052
 Quadrupole moment (field-independent basis, Debye-Ang):
   XX=            -10.0994   YY=            -10.0994   ZZ=            -11.9813
   XY=              0.0000   XZ=              0.0000   YZ=              0.0000
 Traceless Quadrupole moment (field-independent basis, Debye-Ang):
   XX=              0.6273   YY=              0.6273   ZZ=             -1.2546
   XY=              0.0000   XZ=              0.0000   YZ=              0.0000
 Octapole moment (field-independent basis, Debye-Ang**2):
  XXX=             -0.0046  YYY=              0.0000  ZZZ=              0.0000  XYY=             -0.0015
  XXY=              0.0000  XXZ=              0.0000  XZZ=             -0.0041  YZZ=              0.0000
  YYZ=              0.0000  XYZ=              0.0000
 Hexadecapole moment (field-independent basis, Debye-Ang**3):
 XXXX=             -8.1601 YYYY=             -8.1601 ZZZZ=            -32.2919 XXXY=              0.0000
 XXXZ=              0.0000 YYYX=              0.0000 YYYZ=              0.0000 ZZZX=              0.0000
 ZZZY=              0.0000 XXYY=             -2.7200 XXZZ=             -6.3337 YYZZ=             -6.3337
 XXYZ=              0.0000 YYXZ=              0.0000 ZZXY=              0.0000
 N-N= 2.317122046855D+01 E-N=-3.027272395165D+02  KE= 1.092763326682D+02
  Exact polarizability:   6.107   0.000   6.107   0.000   0.000  13.218
 Approx polarizability:   5.511   0.000   5.511   0.000   0.000  17.005
 -------------------------------------------------------------------
 Center     Atomic                   Forces (Hartrees/Bohr)
 Number     Number              X              Y              Z
 -------------------------------------------------------------------
      1        7           0.000000000    0.000000000   -0.000015811
      2        7           0.000000000    0.000000000    0.000015811
 -------------------------------------------------------------------
 Cartesian Forces:  Max     0.000015811 RMS     0.000009128
 NDeriv=   3 NFrqRd=  0 NDerD0=   0 MskFDP=       0 MskDFD=       0 MskDF0=       0
 Re-enter D2Numr: IAtom=  0 IXYZ=1 IStep= 1.
 Skip step-back as it is equivalent to step-up.
 Standard basis: 6-311G(d,p) (5D, 7F)
 The following finite field(s) will be applied:
 An electric field of              0.0000  0.0003  0.0000
    36 basis functions,    64 primitive gaussians,    38 cartesian basis functions
     7 alpha electrons        7 beta electrons
       nuclear repulsion energy        23.1712204685 Hartrees.
 NAtoms=    2 NActive=    2 NUniq=    2 SFac= 1.00D+00 NAtFMM=   60 NAOKFM=F Big=F
 Integral buffers will be    131072 words long.
 Raffenetti 1 integral format.
 Two-electron integral symmetry is turned off.
 One-electron integrals computed using PRISM.
 NBasis=    36 RedAO= T EigKep=  5.52D-03  NBF=    36
 NBsUse=    36 1.00D-06 EigRej= -1.00D+00 NBFU=    36
 The nuclear repulsion energy is now        23.1712204685 hartrees.
 Initial guess from the checkpoint file:  "n2-gasopt.chk"
 B after Tr=     0.000000    0.000000    0.000000
         Rot=    1.000000    0.000000    0.000000    0.000000 Ang=   0.00 deg.
 Keep R1 ints in memory in canonical form, NReq=1073531.
 Requested convergence on RMS density matrix=1.00D-08 within 128 cycles.
 Requested convergence on MAX density matrix=1.00D-06.
 Requested convergence on             energy=1.00D-06.
 No special actions if energy rises.
 SCF Done:  E(RHF) =  -108.964341316     A.U. after    6 cycles
            NFock=  6  Conv=0.16D-08     -V/T= 2.0028
 Range of M.O.s used for correlation:     1    36
 NBasis=    36 NAE=     7 NBE=     7 NFC=     0 NFV=     0
 NROrb=     36 NOA=     7 NOB=     7 NVA=    29 NVB=    29
 Disk-based method using ON**2 memory for  7 occupieds at a time.
 Permanent disk used for amplitudes=       49735 words.
 Estimated scratch disk usage=     1186192 words.
 Actual    scratch disk usage=     1186192 words.
 JobTyp=1 Pass  1:  I=   1 to   7 NPSUse=  6 ParTrn=T ParDer=T DoDerP=T.
 (rs|ai) integrals will be sorted in core.
 Spin components of T(2) and E(2):
     alpha-alpha T2 =       0.1553026426D-01 E2=     -0.4639343278D-01
     alpha-beta  T2 =       0.8521533147D-01 E2=     -0.2769340954D+00
     beta-beta   T2 =       0.1553026426D-01 E2=     -0.4639343278D-01
 ANorm=    0.1056539569D+01
 E2 =    -0.3697209609D+00 EUMP2 =    -0.10933406227736D+03
 G2DrvN: will do     3 centers at a time, making    1 passes.
 Calling FoFCou, ICntrl=  3107 FMM=F I1Cent=   0 AccDes= 0.00D+00.
 End of G2Drv F.D. properties file   721 does not exist.
 End of G2Drv F.D. properties file   722 does not exist.
 End of G2Drv F.D. properties file   788 does not exist.
          IDoAtm=11
          Differentiating once with respect to electric field.
                with respect to dipole field.
          Differentiating once with respect to nuclear coordinates.
 Keep R1 ints in memory in canonical form, NReq=1054891.
          There are     9 degrees of freedom in the 1st order CPHF.  IDoFFX=6 NUNeed=     9.
      6 vectors produced by pass  0 Test12= 2.26D-15 1.11D-08 XBig12= 5.04D+00 1.46D+00.
 AX will form     6 AO Fock derivatives at one time.
      6 vectors produced by pass  1 Test12= 2.26D-15 1.11D-08 XBig12= 1.03D+00 4.74D-01.
      6 vectors produced by pass  2 Test12= 2.26D-15 1.11D-08 XBig12= 1.83D-02 6.55D-02.
      6 vectors produced by pass  3 Test12= 2.26D-15 1.11D-08 XBig12= 2.72D-04 6.52D-03.
      6 vectors produced by pass  4 Test12= 2.26D-15 1.11D-08 XBig12= 5.12D-06 8.70D-04.
      6 vectors produced by pass  5 Test12= 2.26D-15 1.11D-08 XBig12= 8.22D-09 4.03D-05.
      6 vectors produced by pass  6 Test12= 2.26D-15 1.11D-08 XBig12= 2.88D-11 2.31D-06.
      5 vectors produced by pass  7 Test12= 2.26D-15 1.11D-08 XBig12= 8.14D-14 1.42D-07.
      1 vectors produced by pass  8 Test12= 2.26D-15 1.11D-08 XBig12= 6.57D-16 1.37D-08.
 InvSVY:  IOpt=1 It=  1 EMax= 1.11D-16
 Solved reduced A of dimension    48 with     6 vectors.
 End of Minotr F.D. properties file   721 does not exist.
 End of Minotr F.D. properties file   722 does not exist.
 End of Minotr F.D. properties file   788 does not exist.
 MDV=  1073741824.
 Form MO integral derivatives with frozen-active canonical formalism.
 Discarding MO integrals.
 Reordered first order wavefunction length =        82418
 In DefCFB: NBatch=  1 ICI=  7 ICA= 29 LFMax= 29
            Large arrays: LIAPS=     1110816 LIARS=     1025962 words.
 Semi-Direct transformation.
 ModeAB=           2 MOrb=             7 LenV=    1073563437
 LASXX=       136647 LTotXX=      136647 LenRXX=      136647
 LTotAB=      148162 MaxLAS=      186732 LenRXY=      186732
 NonZer=      273294 LenScr=      819200 LnRSAI=           0
 LnScr1=           0 LExtra=           0 Total=      1142579
 MaxDsk=          -1 SrtSym=           F ITran=            4
 JobTyp=0 Pass  1:  I=   1 to   7.
 (rs|ai) integrals will be sorted in core.
 Spin components of T(2) and E(2):
     alpha-alpha T2 =       0.1553026426D-01 E2=     -0.4639343278D-01
     alpha-beta  T2 =       0.8521533147D-01 E2=     -0.2769340953D+00
     beta-beta   T2 =       0.1553026426D-01 E2=     -0.4639343278D-01
 ANorm=    0.1494172587D+01
 E2 =    -0.3697209609D+00 EUMP2 =    -0.10933406227736D+03
          IDoAtm=11
          Differentiating once with respect to electric field.
                with respect to dipole field.
          Differentiating once with respect to nuclear coordinates.
          There are     1 degrees of freedom in the 1st order CPHF.  IDoFFX=0 NUNeed=     1.
 LinEq1:  Iter=  0 NonCon=     1 RMS=1.06D-02 Max=7.98D-02 NDo=     1
 LinEq1:  Iter=  1 NonCon=     1 RMS=2.42D-03 Max=2.08D-02 NDo=     1
 LinEq1:  Iter=  2 NonCon=     1 RMS=3.15D-04 Max=2.02D-03 NDo=     1
 LinEq1:  Iter=  3 NonCon=     1 RMS=4.35D-05 Max=3.46D-04 NDo=     1
 LinEq1:  Iter=  4 NonCon=     1 RMS=2.80D-06 Max=1.79D-05 NDo=     1
 LinEq1:  Iter=  5 NonCon=     1 RMS=3.08D-07 Max=1.82D-06 NDo=     1
 LinEq1:  Iter=  6 NonCon=     1 RMS=1.42D-08 Max=8.18D-08 NDo=     1
 LinEq1:  Iter=  7 NonCon=     1 RMS=1.01D-09 Max=7.82D-09 NDo=     1
 LinEq1:  Iter=  8 NonCon=     1 RMS=1.64D-10 Max=1.52D-09 NDo=     1
 LinEq1:  Iter=  9 NonCon=     0 RMS=1.03D-11 Max=6.09D-11 NDo=     1
 Linear equations converged to 1.000D-10 1.000D-09 after     9 iterations.
 End of Minotr F.D. properties file   721 does not exist.
 End of Minotr F.D. properties file   722 does not exist.
 End of Minotr F.D. properties file   788 does not exist.
 Symmetrizing basis deriv contribution to polar:
 IMax=3 JMax=2 DiffMx= 0.00D+00
 G2DrvN: will do     3 centers at a time, making    1 passes.
 Calling FoFCou, ICntrl=  3107 FMM=F I1Cent=   0 AccDes= 0.00D+00.
 End of G2Drv F.D. properties file   721 does not exist.
 End of G2Drv F.D. properties file   722 does not exist.
 End of G2Drv F.D. properties file   788 does not exist.
 R2 and R3 integrals will be kept in memory, NReq=     1369822.
 DD1Dir will call FoFMem   1 times, MxPair=        56
 NAB=    28 NAA=     0 NBB=     0.
 Discarding MO integrals.

 **********************************************************************

            Population analysis using the MP2 density.

 **********************************************************************

 Alpha  occ. eigenvalues --  -15.68937 -15.68625  -1.45831  -0.78356  -0.62989
 Alpha  occ. eigenvalues --   -0.60349  -0.60349
 Alpha virt. eigenvalues --    0.15516   0.15516   0.54891   0.68837   0.71114
 Alpha virt. eigenvalues --    0.71114   0.81170   0.89151   0.89151   0.99815
 Alpha virt. eigenvalues --    1.35199   1.97167   1.97167   1.99202   1.99202
 Alpha virt. eigenvalues --    2.48258   2.48258   2.73236   3.16598   3.16598
 Alpha virt. eigenvalues --    3.46328   3.98509   3.98509   4.32459   4.32459
 Alpha virt. eigenvalues --    4.56839   4.78349  36.32964  37.56336
          Condensed to atoms (all electrons):
               1          2
     1  N    6.548182   0.451818
     2  N    0.451818   6.548182
 Mulliken charges:
               1
     1  N    0.000000
     2  N    0.000000
 Sum of Mulliken charges =   0.00000
 Mulliken charges with hydrogens summed into heavy atoms:
               1
     1  N    0.000000
     2  N    0.000000
 APT charges:
               1
     1  N    0.000000
     2  N    0.000000
 Sum of APT charges =   0.00000
 APT charges with hydrogens summed into heavy atoms:
               1
     1  N    0.000000
     2  N    0.000000
 Electronic spatial extent (au):  <R**2>=             39.5768
 Charge=              0.0000 electrons
 Dipole moment (field-independent basis, Debye):
    X=              0.0000    Y=             -0.0052    Z=              0.0000  Tot=              0.0052
 Quadrupole moment (field-independent basis, Debye-Ang):
   XX=            -10.0994   YY=            -10.0994   ZZ=            -11.9813
   XY=              0.0000   XZ=              0.0000   YZ=              0.0000
 Traceless Quadrupole moment (field-independent basis, Debye-Ang):
   XX=              0.6273   YY=              0.6273   ZZ=             -1.2546
   XY=              0.0000   XZ=              0.0000   YZ=              0.0000
 Octapole moment (field-independent basis, Debye-Ang**2):
  XXX=              0.0000  YYY=             -0.0046  ZZZ=              0.0000  XYY=              0.0000
  XXY=             -0.0015  XXZ=              0.0000  XZZ=              0.0000  YZZ=             -0.0041
  YYZ=              0.0000  XYZ=              0.0000
 Hexadecapole moment (field-independent basis, Debye-Ang**3):
 XXXX=             -8.1601 YYYY=             -8.1601 ZZZZ=            -32.2919 XXXY=              0.0000
 XXXZ=              0.0000 YYYX=              0.0000 YYYZ=              0.0000 ZZZX=              0.0000
 ZZZY=              0.0000 XXYY=             -2.7200 XXZZ=             -6.3337 YYZZ=             -6.3337
 XXYZ=              0.0000 YYXZ=              0.0000 ZZXY=              0.0000
 N-N= 2.317122046855D+01 E-N=-3.027272395165D+02  KE= 1.092763326682D+02
  Exact polarizability:   6.107   0.000   6.107   0.000   0.000  13.218
 Approx polarizability:   5.511   0.000   5.511   0.000   0.000  17.005
 -------------------------------------------------------------------
 Center     Atomic                   Forces (Hartrees/Bohr)
 Number     Number              X              Y              Z
 -------------------------------------------------------------------
      1        7           0.000000000    0.000000000   -0.000015811
      2        7           0.000000000    0.000000000    0.000015811
 -------------------------------------------------------------------
 Cartesian Forces:  Max     0.000015811 RMS     0.000009128
 NDeriv=   3 NFrqRd=  0 NDerD0=   0 MskFDP=       0 MskDFD=       0 MskDF0=       0
 Re-enter D2Numr: IAtom=  0 IXYZ=2 IStep= 1.
 Skip step-back as it is equivalent to step-up.
 Standard basis: 6-311G(d,p) (5D, 7F)
 The following finite field(s) will be applied:
 An electric field of              0.0000  0.0000  0.0003
    36 basis functions,    64 primitive gaussians,    38 cartesian basis functions
     7 alpha electrons        7 beta electrons
       nuclear repulsion energy        23.1712204685 Hartrees.
 NAtoms=    2 NActive=    2 NUniq=    2 SFac= 1.00D+00 NAtFMM=   60 NAOKFM=F Big=F
 Integral buffers will be    131072 words long.
 Raffenetti 1 integral format.
 Two-electron integral symmetry is turned off.
 One-electron integrals computed using PRISM.
 NBasis=    36 RedAO= T EigKep=  5.52D-03  NBF=    36
 NBsUse=    36 1.00D-06 EigRej= -1.00D+00 NBFU=    36
 The nuclear repulsion energy is now        23.1712204685 hartrees.
 Initial guess from the checkpoint file:  "n2-gasopt.chk"
 B after Tr=     0.000000    0.000000    0.000000
         Rot=    1.000000    0.000000    0.000000    0.000000 Ang=   0.00 deg.
 Keep R1 ints in memory in canonical form, NReq=1073531.
 Requested convergence on RMS density matrix=1.00D-08 within 128 cycles.
 Requested convergence on MAX density matrix=1.00D-06.
 Requested convergence on             energy=1.00D-06.
 No special actions if energy rises.
 SCF Done:  E(RHF) =  -108.964341816     A.U. after    7 cycles
            NFock=  7  Conv=0.50D-08     -V/T= 2.0028
 Range of M.O.s used for correlation:     1    36
 NBasis=    36 NAE=     7 NBE=     7 NFC=     0 NFV=     0
 NROrb=     36 NOA=     7 NOB=     7 NVA=    29 NVB=    29
 Disk-based method using ON**2 memory for  7 occupieds at a time.
 Permanent disk used for amplitudes=       49735 words.
 Estimated scratch disk usage=     1186192 words.
 Actual    scratch disk usage=     1186192 words.
 JobTyp=1 Pass  1:  I=   1 to   7 NPSUse=  6 ParTrn=T ParDer=T DoDerP=T.
 (rs|ai) integrals will be sorted in core.
 Spin components of T(2) and E(2):
     alpha-alpha T2 =       0.1553025473D-01 E2=     -0.4639341587D-01
     alpha-beta  T2 =       0.8521528539D-01 E2=     -0.2769340248D+00
     beta-beta   T2 =       0.1553025473D-01 E2=     -0.4639341587D-01
 ANorm=    0.1056539538D+01
 E2 =    -0.3697208566D+00 EUMP2 =    -0.10933406267249D+03
 G2DrvN: will do     3 centers at a time, making    1 passes.
 Calling FoFCou, ICntrl=  3107 FMM=F I1Cent=   0 AccDes= 0.00D+00.
 End of G2Drv F.D. properties file   721 does not exist.
 End of G2Drv F.D. properties file   722 does not exist.
 End of G2Drv F.D. properties file   788 does not exist.
          IDoAtm=11
          Differentiating once with respect to electric field.
                with respect to dipole field.
          Differentiating once with respect to nuclear coordinates.
 Keep R1 ints in memory in canonical form, NReq=1054891.
          There are     9 degrees of freedom in the 1st order CPHF.  IDoFFX=6 NUNeed=     9.
      6 vectors produced by pass  0 Test12= 2.26D-15 1.11D-08 XBig12= 5.04D+00 1.38D+00.
 AX will form     6 AO Fock derivatives at one time.
      6 vectors produced by pass  1 Test12= 2.26D-15 1.11D-08 XBig12= 1.03D+00 4.74D-01.
      6 vectors produced by pass  2 Test12= 2.26D-15 1.11D-08 XBig12= 1.83D-02 6.55D-02.
      6 vectors produced by pass  3 Test12= 2.26D-15 1.11D-08 XBig12= 2.72D-04 6.52D-03.
      6 vectors produced by pass  4 Test12= 2.26D-15 1.11D-08 XBig12= 5.12D-06 8.70D-04.
      6 vectors produced by pass  5 Test12= 2.26D-15 1.11D-08 XBig12= 8.22D-09 4.03D-05.
      6 vectors produced by pass  6 Test12= 2.26D-15 1.11D-08 XBig12= 2.88D-11 2.31D-06.
      3 vectors produced by pass  7 Test12= 2.26D-15 1.11D-08 XBig12= 8.13D-14 1.42D-07.
      1 vectors produced by pass  8 Test12= 2.26D-15 1.11D-08 XBig12= 6.56D-16 1.37D-08.
 InvSVY:  IOpt=1 It=  1 EMax= 4.44D-16
 Solved reduced A of dimension    46 with     6 vectors.
 End of Minotr F.D. properties file   721 does not exist.
 End of Minotr F.D. properties file   722 does not exist.
 End of Minotr F.D. properties file   788 does not exist.
 MDV=  1073741824.
 Form MO integral derivatives with frozen-active canonical formalism.
 Discarding MO integrals.
 Reordered first order wavefunction length =        82418
 In DefCFB: NBatch=  1 ICI=  7 ICA= 29 LFMax= 29
            Large arrays: LIAPS=     1110816 LIARS=     1025962 words.
 Semi-Direct transformation.
 ModeAB=           2 MOrb=             7 LenV=    1073563437
 LASXX=       136647 LTotXX=      136647 LenRXX=      136647
 LTotAB=      148162 MaxLAS=      186732 LenRXY=      186732
 NonZer=      273294 LenScr=      819200 LnRSAI=           0
 LnScr1=           0 LExtra=           0 Total=      1142579
 MaxDsk=          -1 SrtSym=           F ITran=            4
 JobTyp=0 Pass  1:  I=   1 to   7.
 (rs|ai) integrals will be sorted in core.
 Spin components of T(2) and E(2):
     alpha-alpha T2 =       0.1553025473D-01 E2=     -0.4639341587D-01
     alpha-beta  T2 =       0.8521528539D-01 E2=     -0.2769340248D+00
     beta-beta   T2 =       0.1553025473D-01 E2=     -0.4639341587D-01
 ANorm=    0.1494172543D+01
 E2 =    -0.3697208566D+00 EUMP2 =    -0.10933406267249D+03
          IDoAtm=11
          Differentiating once with respect to electric field.
                with respect to dipole field.
          Differentiating once with respect to nuclear coordinates.
          There are     1 degrees of freedom in the 1st order CPHF.  IDoFFX=0 NUNeed=     1.
 LinEq1:  Iter=  0 NonCon=     1 RMS=1.06D-02 Max=6.38D-02 NDo=     1
 LinEq1:  Iter=  1 NonCon=     1 RMS=2.42D-03 Max=2.08D-02 NDo=     1
 LinEq1:  Iter=  2 NonCon=     1 RMS=3.15D-04 Max=1.63D-03 NDo=     1
 LinEq1:  Iter=  3 NonCon=     1 RMS=4.52D-05 Max=3.46D-04 NDo=     1
 LinEq1:  Iter=  4 NonCon=     1 RMS=1.38D-05 Max=1.07D-04 NDo=     1
 LinEq1:  Iter=  5 NonCon=     1 RMS=3.29D-06 Max=2.00D-05 NDo=     1
 LinEq1:  Iter=  6 NonCon=     1 RMS=3.68D-07 Max=1.99D-06 NDo=     1
 LinEq1:  Iter=  7 NonCon=     1 RMS=1.99D-08 Max=1.05D-07 NDo=     1
 LinEq1:  Iter=  8 NonCon=     1 RMS=3.41D-09 Max=2.22D-08 NDo=     1
 LinEq1:  Iter=  9 NonCon=     1 RMS=2.83D-10 Max=1.66D-09 NDo=     1
 LinEq1:  Iter= 10 NonCon=     0 RMS=1.16D-11 Max=7.37D-11 NDo=     1
 Linear equations converged to 1.000D-10 1.000D-09 after    10 iterations.
 End of Minotr F.D. properties file   721 does not exist.
 End of Minotr F.D. properties file   722 does not exist.
 End of Minotr F.D. properties file   788 does not exist.
 Symmetrizing basis deriv contribution to polar:
 IMax=3 JMax=2 DiffMx= 0.00D+00
 G2DrvN: will do     3 centers at a time, making    1 passes.
 Calling FoFCou, ICntrl=  3107 FMM=F I1Cent=   0 AccDes= 0.00D+00.
 End of G2Drv F.D. properties file   721 does not exist.
 End of G2Drv F.D. properties file   722 does not exist.
 End of G2Drv F.D. properties file   788 does not exist.
 R2 and R3 integrals will be kept in memory, NReq=     1369822.
 DD1Dir will call FoFMem   1 times, MxPair=        56
 NAB=    28 NAA=     0 NBB=     0.
 Discarding MO integrals.

 **********************************************************************

            Population analysis using the MP2 density.

 **********************************************************************

 Alpha  occ. eigenvalues --  -15.68937 -15.68624  -1.45831  -0.78356  -0.62988
 Alpha  occ. eigenvalues --   -0.60349  -0.60349
 Alpha virt. eigenvalues --    0.15516   0.15516   0.54891   0.68837   0.71114
 Alpha virt. eigenvalues --    0.71114   0.81170   0.89151   0.89151   0.99815
 Alpha virt. eigenvalues --    1.35199   1.97167   1.97167   1.99202   1.99202
 Alpha virt. eigenvalues --    2.48258   2.48258   2.73236   3.16598   3.16598
 Alpha virt. eigenvalues --    3.46328   3.98509   3.98509   4.32459   4.32459
 Alpha virt. eigenvalues --    4.56839   4.78349  36.32964  37.56336
          Condensed to atoms (all electrons):
               1          2
     1  N    6.549281   0.451815
     2  N    0.451815   6.547089
 Mulliken charges:
               1
     1  N   -0.001096
     2  N    0.001096
 Sum of Mulliken charges =   0.00000
 Mulliken charges with hydrogens summed into heavy atoms:
               1
     1  N   -0.001096
     2  N    0.001096
 APT charges:
               1
     1  N   -0.001569
     2  N    0.001569
 Sum of APT charges =   0.00000
 APT charges with hydrogens summed into heavy atoms:
               1
     1  N   -0.001569
     2  N    0.001569
 Electronic spatial extent (au):  <R**2>=             39.5768
 Charge=              0.0000 electrons
 Dipole moment (field-independent basis, Debye):
    X=              0.0000    Y=              0.0000    Z=             -0.0112  Tot=              0.0112
 Quadrupole moment (field-independent basis, Debye-Ang):
   XX=            -10.0994   YY=            -10.0994   ZZ=            -11.9813
   XY=              0.0000   XZ=              0.0000   YZ=              0.0000
 Traceless Quadrupole moment (field-independent basis, Debye-Ang):
   XX=              0.6273   YY=              0.6273   ZZ=             -1.2546
   XY=              0.0000   XZ=              0.0000   YZ=              0.0000
 Octapole moment (field-independent basis, Debye-Ang**2):
  XXX=              0.0000  YYY=              0.0000  ZZZ=             -0.0216  XYY=              0.0000
  XXY=              0.0000  XXZ=             -0.0047  XZZ=              0.0000  YZZ=              0.0000
  YYZ=             -0.0047  XYZ=              0.0000
 Hexadecapole moment (field-independent basis, Debye-Ang**3):
 XXXX=             -8.1601 YYYY=             -8.1601 ZZZZ=            -32.2919 XXXY=              0.0000
 XXXZ=              0.0000 YYYX=              0.0000 YYYZ=              0.0000 ZZZX=              0.0000
 ZZZY=              0.0000 XXYY=             -2.7200 XXZZ=             -6.3337 YYZZ=             -6.3337
 XXYZ=              0.0000 YYXZ=              0.0000 ZZXY=              0.0000
 N-N= 2.317122046855D+01 E-N=-3.027272382221D+02  KE= 1.092763323798D+02
  Exact polarizability:   6.107   0.000   6.107   0.000   0.000  13.218
 Approx polarizability:   5.511   0.000   5.511   0.000   0.000  17.005
 -------------------------------------------------------------------
 Center     Atomic                   Forces (Hartrees/Bohr)
 Number     Number              X              Y              Z
 -------------------------------------------------------------------
      1        7           0.000000000    0.000000000   -0.000015438
      2        7           0.000000000    0.000000000    0.000015438
 -------------------------------------------------------------------
 Cartesian Forces:  Max     0.000015438 RMS     0.000008913
 NDeriv=   3 NFrqRd=  0 NDerD0=   0 MskFDP=       0 MskDFD=       0 MskDF0=       0
 Re-enter D2Numr: IAtom=  0 IXYZ=3 IStep= 1.
 Skip step-back as it is equivalent to step-up.
 Max difference between analytic and numerical Dipole moment IMax=       3 EMax= 3.33D-16
 Max difference between analytic and numerical Dipole derivatives IMax=       2 EMax= 7.93D-11
 Max difference between off-diagonal Polarizability IMax=       1 JMax=       2 EMax= 8.36D-10
 Max difference between analytic and numerical Polarizability IMax=       6 EMax= 9.55D-06
 Max difference between off-diagonal HyperPolarizability IMax=       1 JMax=       1 KMax=       2 EMax= 9.61D-11
 Final packed hyperpolarizability:
 K=  1 block:
                1 
      1  0.000000D+00
 K=  2 block:
                1             2 
      1  0.000000D+00
      2  0.000000D+00  0.000000D+00
 K=  3 block:
                1             2             3 
      1  0.000000D+00
      2  0.000000D+00  0.000000D+00
      3  0.000000D+00  0.000000D+00  0.000000D+00
 Max difference between off-diagonal Polar Derivs IMax=       2 JMax=       3 KMax=       2 EMax= 2.16D-05
 Full mass-weighted force constant matrix:
 Low frequencies ---    0.0006    0.0007    0.0007    5.3218    5.3218 2185.3678
 Diagonal vibrational polarizability:
        0.0000000       0.0000000       0.0000000
 Diagonal vibrational hyperpolarizability:
        0.0000000       0.0000000       0.0000000
 Harmonic frequencies (cm**-1), IR intensities (KM/Mole), Raman scattering
 activities (A**4/AMU), depolarization ratios for plane and unpolarized
 incident light, reduced masses (AMU), force constants (mDyne/A),
 and normal coordinates:
                      1
                     SGG
 Frequencies --   2185.3678
 Red. masses --     14.0031
 Frc consts  --     39.4024
 IR Inten    --      0.0000
 Raman Activ --      7.8493
 Depolar (P) --      0.2373
 Depolar (U) --      0.3836
  Atom  AN      X      Y      Z
     1   7     0.00   0.00   0.71
     2   7     0.00   0.00  -0.71

 -------------------
 - Thermochemistry -
 -------------------
 Temperature   298.150 Kelvin.  Pressure   1.00000 Atm.
 Atom     1 has atomic number  7 and mass  14.00307
 Atom     2 has atomic number  7 and mass  14.00307
 Molecular mass:    28.00615 amu.
 Principal axes and moments of inertia in atomic units:
                           1         2         3
     Eigenvalues --     0.00000  31.31034  31.31034
           X            0.00000   1.00000   0.00000
           Y            0.00000   0.00000   1.00000
           Z            1.00000   0.00000   0.00000
 This molecule is a prolate symmetric top.
 Rotational symmetry number  2.
 Rotational temperature (Kelvin)      2.76630
 Rotational constant (GHZ):          57.640429
 Zero-point vibrational energy      13071.4 (Joules/Mol)
                                    3.12414 (Kcal/Mol)
 Vibrational temperatures:   3144.25
          (Kelvin)
 
 Zero-point correction=                           0.004979 (Hartree/Particle)
 Thermal correction to Energy=                    0.007339
 Thermal correction to Enthalpy=                  0.008284
 Thermal correction to Gibbs Free Energy=        -0.013494
 Sum of electronic and zero-point Energies=           -109.329083
 Sum of electronic and thermal Energies=              -109.326723
 Sum of electronic and thermal Enthalpies=            -109.325778
 Sum of electronic and thermal Free Energies=         -109.347556
 
                     E (Thermal)             CV                S
                      KCal/Mol        Cal/Mol-Kelvin    Cal/Mol-Kelvin
 Total                    4.606              4.974             45.835
 Electronic               0.000              0.000              0.000
 Translational            0.889              2.981             35.924
 Rotational               0.592              1.987              9.910
 Vibrational              3.124              0.006              0.001
                       Q            Log10(Q)             Ln(Q)
 Total Bot       0.161007D+07          6.206844         14.291787
 Total V=0       0.313944D+09          8.496852         19.564725
 Vib (Bot)       0.512866D-02         -2.289996         -5.272912
 Vib (V=0)       0.100003D+01          0.000011          0.000026
 Electronic      0.100000D+01          0.000000          0.000000
 Translational   0.582553D+07          6.765335         15.577760
 Rotational      0.538897D+02          1.731505          3.986938
 ***** Axes restored to original set *****
 -------------------------------------------------------------------
 Center     Atomic                   Forces (Hartrees/Bohr)
 Number     Number              X              Y              Z
 -------------------------------------------------------------------
      1        7           0.000000000    0.000000000    0.000015850
      2        7           0.000000000    0.000000000   -0.000015850
 -------------------------------------------------------------------
 Cartesian Forces:  Max     0.000015850 RMS     0.000009151

 GradGradGradGradGradGradGradGradGradGradGradGradGradGradGradGradGradGrad
 Berny optimization.
 Internal  Forces:  Max     0.000015850 RMS     0.000015850
 Search for a local minimum.
 Step number   1 out of a maximum of    2
 All quantities printed in internal units (Hartrees-Bohrs-Radians)
 Second derivative matrix not updated -- analytic derivatives used.
 The second derivative matrix:
                          R1
           R1           1.26542
 ITU=  0
     Eigenvalues ---    1.26542
 Angle between quadratic step and forces=   0.00 degrees.
 Linear search not attempted -- first point.
 Iteration  1 RMS(Cart)=  0.00000886 RMS(Int)=  0.00000000
 Iteration  2 RMS(Cart)=  0.00000000 RMS(Int)=  0.00000000
 ClnCor:  largest displacement from symmetrization is 8.88D-16 for atom     2.
 Variable       Old X    -DE/DX   Delta X   Delta X   Delta X     New X
                                 (Linear)    (Quad)   (Total)
    R1        2.11469  -0.00002   0.00000  -0.00001  -0.00001   2.11468
         Item               Value     Threshold  Converged?
 Maximum Force            0.000016     0.000450     YES
 RMS     Force            0.000016     0.000300     YES
 Maximum Displacement     0.000006     0.001800     YES
 RMS     Displacement     0.000009     0.001200     YES
 Predicted change in Energy=-9.926363D-11
 Optimization completed.
    -- Stationary point found.
                           ----------------------------
                           !   Optimized Parameters   !
                           ! (Angstroms and Degrees)  !
 --------------------------                            --------------------------
 ! Name  Definition              Value          Derivative Info.                !
 --------------------------------------------------------------------------------
 ! R1    R(1,2)                  1.119          -DE/DX =    0.0                 !
 --------------------------------------------------------------------------------
 GradGradGradGradGradGradGradGradGradGradGradGradGradGradGradGradGradGrad

 1\1\GINC-TC-NODE162\Freq\RMP2-Full\6-311G(d,p)\N2\EPKTB\21-Oct-2016\0\
 \#N Geom=AllCheck Guess=TCheck SCRF=Check GenChk RMP2-Full/6-311G(d,p)
  Freq\\Title Card Required\\0,1\N,0.,0.,-0.013523467\N,0.,0.,1.1055234
 67\\Version=ES64L-G09RevD.01\State=1-SGG\HF=-108.964341\MP2=-109.33406
 19\RMSD=1.167e-10\RMSF=9.151e-06\ZeroPoint=0.0049786\Thermal=0.0073394
 \Dipole=0.,0.,0.\DipoleDeriv=0.,0.,0.,0.,0.,0.,0.,0.,0.,0.,0.,0.,0.,0.
 ,0.,0.,0.,0.\Polar=6.1071678,0.,6.1071678,0.,0.,13.218422\PolarDeriv=0
 .,0.,0.,-3.3627989,0.,0.,0.,0.,0.,0.,-3.3627989,0.,-0.7022684,0.,-0.70
 22684,0.,0.,-7.3957328,0.,0.,0.,3.3627989,0.,0.,0.,0.,0.,0.,3.3627989,
 0.,0.7022684,0.,0.7022684,0.,0.,7.3957328\HyperPolar=0.,0.,0.,0.,0.,0.
 ,0.,0.,0.,0.\DQPolar=0.,0.,0.,0.,0.,0.,0.,0.,0.,0.,0.,0.,0.,0.,0.,0.,0
 .,0.\Quadrupole=0.4663735,0.4663735,-0.9327471,0.,0.,0.\PG=D*H [C*(N1.
 N1)]\NImag=0\\0.00000750,0.,0.00000750,0.,0.,1.26541769,-0.00000750,0.
 ,0.,0.00000750,0.,-0.00000750,0.,0.,0.00000750,0.,0.,-1.26541769,0.,0.
 ,1.26541769\\0.,0.,-0.00001585,0.,0.,0.00001585\\\@


 SIC AS THE CAWSE OF EWERY THING IS, SIC WILBE THE EFFECT.
 -- PROVERBS AND REASONS OF THE YEAR 1585
           AS REPRINTED IN PAISLEY MAGAZINE 1828.
 Job cpu time:       0 days  0 hours  1 minutes 41.0 seconds.
 File lengths (MBytes):  RWF=     62 Int=      0 D2E=      0 Chk=     39 Scr=      1
 Normal termination of Gaussian 09 at Fri Oct 21 11:17:40 2016.
