 Entering Gaussian System, Link 0=g09
 Initial command:
 /cluster/software/gaussian/gaussian-09-D.01/g09/l1.exe "/local/scratch/maxb2/Gau-1081.inp" -scrdir="/local/scratch/maxb2/"
 Entering Link 1 = /cluster/software/gaussian/gaussian-09-D.01/g09/l1.exe PID=      1082.
  
 Copyright (c) 1988,1990,1992,1993,1995,1998,2003,2009,2013,
            Gaussian, Inc.  All Rights Reserved.
  
 This is part of the Gaussian(R) 09 program.  It is based on
 the Gaussian(R) 03 system (copyright 2003, Gaussian, Inc.),
 the Gaussian(R) 98 system (copyright 1998, Gaussian, Inc.),
 the Gaussian(R) 94 system (copyright 1995, Gaussian, Inc.),
 the Gaussian 92(TM) system (copyright 1992, Gaussian, Inc.),
 the Gaussian 90(TM) system (copyright 1990, Gaussian, Inc.),
 the Gaussian 88(TM) system (copyright 1988, Gaussian, Inc.),
 the Gaussian 86(TM) system (copyright 1986, Carnegie Mellon
 University), and the Gaussian 82(TM) system (copyright 1983,
 Carnegie Mellon University). Gaussian is a federally registered
 trademark of Gaussian, Inc.
  
 This software contains proprietary and confidential information,
 including trade secrets, belonging to Gaussian, Inc.
  
 This software is provided under written license and may be
 used, copied, transmitted, or stored only in accord with that
 written license.
  
 The following legend is applicable only to US Government
 contracts under FAR:
  
                    RESTRICTED RIGHTS LEGEND
  
 Use, reproduction and disclosure by the US Government is
 subject to restrictions as set forth in subparagraphs (a)
 and (c) of the Commercial Computer Software - Restricted
 Rights clause in FAR 52.227-19.
  
 Gaussian, Inc.
 340 Quinnipiac St., Bldg. 40, Wallingford CT 06492
  
  
 ---------------------------------------------------------------
 Warning -- This program may not be used in any manner that
 competes with the business of Gaussian, Inc. or will provide
 assistance to any competitor of Gaussian, Inc.  The licensee
 of this program is prohibited from giving any competitor of
 Gaussian, Inc. access to this program.  By using this program,
 the user acknowledges that Gaussian, Inc. is engaged in the
 business of creating and licensing software in the field of
 computational chemistry and represents and warrants to the
 licensee that it is not a competitor of Gaussian, Inc. and that
 it will not use this program in any manner prohibited above.
 ---------------------------------------------------------------
  

 Cite this work as:
 Gaussian 09, Revision D.01,
 M. J. Frisch, G. W. Trucks, H. B. Schlegel, G. E. Scuseria, 
 M. A. Robb, J. R. Cheeseman, G. Scalmani, V. Barone, B. Mennucci, 
 G. A. Petersson, H. Nakatsuji, M. Caricato, X. Li, H. P. Hratchian, 
 A. F. Izmaylov, J. Bloino, G. Zheng, J. L. Sonnenberg, M. Hada, 
 M. Ehara, K. Toyota, R. Fukuda, J. Hasegawa, M. Ishida, T. Nakajima, 
 Y. Honda, O. Kitao, H. Nakai, T. Vreven, J. A. Montgomery, Jr., 
 J. E. Peralta, F. Ogliaro, M. Bearpark, J. J. Heyd, E. Brothers, 
 K. N. Kudin, V. N. Staroverov, T. Keith, R. Kobayashi, J. Normand, 
 K. Raghavachari, A. Rendell, J. C. Burant, S. S. Iyengar, J. Tomasi, 
 M. Cossi, N. Rega, J. M. Millam, M. Klene, J. E. Knox, J. B. Cross, 
 V. Bakken, C. Adamo, J. Jaramillo, R. Gomperts, R. E. Stratmann, 
 O. Yazyev, A. J. Austin, R. Cammi, C. Pomelli, J. W. Ochterski, 
 R. L. Martin, K. Morokuma, V. G. Zakrzewski, G. A. Voth, 
 P. Salvador, J. J. Dannenberg, S. Dapprich, A. D. Daniels, 
 O. Farkas, J. B. Foresman, J. V. Ortiz, J. Cioslowski, 
 and D. J. Fox, Gaussian, Inc., Wallingford CT, 2013.
 
 ******************************************
 Gaussian 09:  ES64L-G09RevD.01 24-Apr-2013
                23-Sep-2016 
 ******************************************
 %rwf=/home/maxb2/scratch/HNC
 %int=/home/maxb2/scratch/HNC
 %d2e=/home/maxb2/scratch/HNC
 %nosave
 %mem=6GB
 %nprocshared=2
 Will use up to    2 processors via shared memory.
 %chk=/home/maxb2/HNC
 --------------------------------------------
 # opt=tight RHF/6-31g* gfp geom=connectivity
 --------------------------------------------
 1/7=10,18=20,19=15,38=1,57=2/1,3;
 2/9=110,12=2,17=6,18=5,40=1/2;
 3/5=1,6=6,7=1,11=1,16=1,24=100,25=1,30=1,71=1,116=1/1,2,3;
 4//1;
 5/5=2,38=5/2;
 6/7=2,8=2,9=2,10=2,28=1/1;
 7//1,2,3,16;
 1/7=10,18=20,19=15/3(2);
 2/9=110/2;
 99//99;
 2/9=110/2;
 3/5=1,6=6,7=1,11=1,16=1,25=1,30=1,71=1,116=1/1,2,3;
 4/5=5,16=3,69=1/1;
 5/5=2,38=5/2;
 7//1,2,3,16;
 1/7=10,18=20,19=15/3(-5);
 2/9=110/2;
 6/7=2,8=2,9=2,10=2,19=2,28=1/1;
 99/9=1/99;
 ---
 HNC
 ---
 Symbolic Z-matrix:
 Charge =  0 Multiplicity = 1
 C
 N                    1     1. 
 H                    1     1.       2     180. 
 

 GradGradGradGradGradGradGradGradGradGradGradGradGradGradGradGradGradGrad
 Berny optimization.
 Initialization pass.
                           ----------------------------
                           !    Initial Parameters    !
                           ! (Angstroms and Degrees)  !
 --------------------------                            --------------------------
 ! Name  Definition              Value          Derivative Info.                !
 --------------------------------------------------------------------------------
 ! R1    R(1,2)                  1.0            estimate D2E/DX2                !
 ! R2    R(1,3)                  1.0            estimate D2E/DX2                !
 ! A1    L(2,1,3,-1,-1)        180.0            estimate D2E/DX2                !
 ! A2    L(2,1,3,-2,-2)        180.0            estimate D2E/DX2                !
 --------------------------------------------------------------------------------
 Trust Radius=3.00D-01 FncErr=1.00D-07 GrdErr=1.00D-07
 Number of steps in this run=     20 maximum allowed number of steps=    100.
 GradGradGradGradGradGradGradGradGradGradGradGradGradGradGradGradGradGrad

                          Input orientation:                          
 ---------------------------------------------------------------------
 Center     Atomic      Atomic             Coordinates (Angstroms)
 Number     Number       Type             X           Y           Z
 ---------------------------------------------------------------------
      1          6           0        0.000000    0.000000    0.000000
      2          7           0        0.000000    0.000000    1.000000
      3          1           0        0.000000    0.000000   -1.000000
 ---------------------------------------------------------------------
                    Distance matrix (angstroms):
                    1          2          3
     1  C    0.000000
     2  N    1.000000   0.000000
     3  H    1.000000   2.000000   0.000000
 Stoichiometry    CHN
 Framework group  C*V[C*(HCN)]
 Deg. of freedom     2
 Full point group                 C*V     NOp   4
 Largest Abelian subgroup         C2V     NOp   4
 Largest concise Abelian subgroup C1      NOp   1
                         Standard orientation:                         
 ---------------------------------------------------------------------
 Center     Atomic      Atomic             Coordinates (Angstroms)
 Number     Number       Type             X           Y           Z
 ---------------------------------------------------------------------
      1          6           0        0.000000    0.000000   -0.428571
      2          7           0        0.000000    0.000000    0.571429
      3          1           0        0.000000    0.000000   -1.428571
 ---------------------------------------------------------------------
 Rotational constants (GHZ):      0.0000000     57.6999809     57.6999809
 Standard basis: 6-31G(d) (6D, 7F)
 AO basis set (Overlap normalization):
 Atom C1       Shell     1 S   6     bf    1 -     1          0.000000000000          0.000000000000         -0.809882628380
      0.3047524880D+04  0.1834737132D-02
      0.4573695180D+03  0.1403732281D-01
      0.1039486850D+03  0.6884262226D-01
      0.2921015530D+02  0.2321844432D+00
      0.9286662960D+01  0.4679413484D+00
      0.3163926960D+01  0.3623119853D+00
 Atom C1       Shell     2 SP   3    bf    2 -     5          0.000000000000          0.000000000000         -0.809882628380
      0.7868272350D+01 -0.1193324198D+00  0.6899906659D-01
      0.1881288540D+01 -0.1608541517D+00  0.3164239610D+00
      0.5442492580D+00  0.1143456438D+01  0.7443082909D+00
 Atom C1       Shell     3 SP   1    bf    6 -     9          0.000000000000          0.000000000000         -0.809882628380
      0.1687144782D+00  0.1000000000D+01  0.1000000000D+01
 Atom C1       Shell     4 D   1     bf   10 -    15          0.000000000000          0.000000000000         -0.809882628380
      0.8000000000D+00  0.1000000000D+01
 Atom N2       Shell     5 S   6     bf   16 -    16          0.000000000000          0.000000000000          1.079843504506
      0.4173511460D+04  0.1834772160D-02
      0.6274579110D+03  0.1399462700D-01
      0.1429020930D+03  0.6858655181D-01
      0.4023432930D+02  0.2322408730D+00
      0.1282021290D+02  0.4690699481D+00
      0.4390437010D+01  0.3604551991D+00
 Atom N2       Shell     6 SP   3    bf   17 -    20          0.000000000000          0.000000000000          1.079843504506
      0.1162636186D+02 -0.1149611817D+00  0.6757974388D-01
      0.2716279807D+01 -0.1691174786D+00  0.3239072959D+00
      0.7722183966D+00  0.1145851947D+01  0.7408951398D+00
 Atom N2       Shell     7 SP   1    bf   21 -    24          0.000000000000          0.000000000000          1.079843504506
      0.2120314975D+00  0.1000000000D+01  0.1000000000D+01
 Atom N2       Shell     8 D   1     bf   25 -    30          0.000000000000          0.000000000000          1.079843504506
      0.8000000000D+00  0.1000000000D+01
 Atom H3       Shell     9 S   3     bf   31 -    31          0.000000000000          0.000000000000         -2.699608761265
      0.1873113696D+02  0.3349460434D-01
      0.2825394365D+01  0.2347269535D+00
      0.6401216923D+00  0.8137573261D+00
 Atom H3       Shell    10 S   1     bf   32 -    32          0.000000000000          0.000000000000         -2.699608761265
      0.1612777588D+00  0.1000000000D+01
 There are    18 symmetry adapted cartesian basis functions of A1  symmetry.
 There are     2 symmetry adapted cartesian basis functions of A2  symmetry.
 There are     6 symmetry adapted cartesian basis functions of B1  symmetry.
 There are     6 symmetry adapted cartesian basis functions of B2  symmetry.
 There are    18 symmetry adapted basis functions of A1  symmetry.
 There are     2 symmetry adapted basis functions of A2  symmetry.
 There are     6 symmetry adapted basis functions of B1  symmetry.
 There are     6 symmetry adapted basis functions of B2  symmetry.
    32 basis functions,    60 primitive gaussians,    32 cartesian basis functions
     7 alpha electrons        7 beta electrons
       nuclear repulsion energy        27.2526262424 Hartrees.
 NAtoms=    3 NActive=    3 NUniq=    3 SFac= 1.00D+00 NAtFMM=   60 NAOKFM=F Big=F
 Integral buffers will be    131072 words long.
 Raffenetti 1 integral format.
 Two-electron integral symmetry is turned on.
 One-electron integrals computed using PRISM.
 NBasis=    32 RedAO= T EigKep=  3.66D-03  NBF=    18     2     6     6
 NBsUse=    32 1.00D-06 EigRej= -1.00D+00 NBFU=    18     2     6     6
 ExpMin= 1.61D-01 ExpMax= 4.17D+03 ExpMxC= 6.27D+02 IAcc=1 IRadAn=         1 AccDes= 0.00D+00
 Harris functional with IExCor=  205 and IRadAn=       1 diagonalized for initial guess.
 HarFok:  IExCor=  205 AccDes= 0.00D+00 IRadAn=         1 IDoV= 1 UseB2=F ITyADJ=14
 ICtDFT=  3500011 ScaDFX=  1.000000  1.000000  1.000000  1.000000
 FoFCou: FMM=F IPFlag=           0 FMFlag=      100000 FMFlg1=           0
         NFxFlg=           0 DoJE=T BraDBF=F KetDBF=T FulRan=T
         wScrn=  0.000000 ICntrl=     500 IOpCl=  0 I1Cent=   200000004 NGrid=           0
         NMat0=    1 NMatS0=      1 NMatT0=    0 NMatD0=    1 NMtDS0=    0 NMtDT0=    0
 Petite list used in FoFCou.
 Initial guess orbital symmetries:
       Occupied  (SG) (SG) (SG) (SG) (PI) (PI) (SG)
       Virtual   (PI) (PI) (SG) (SG) (PI) (PI) (SG) (SG) (PI) (PI)
                 (SG) (SG) (DLTA) (DLTA) (SG) (PI) (PI) (DLTA)
                 (DLTA) (PI) (PI) (SG) (SG) (SG) (SG)
 The electronic state of the initial guess is 1-SG.
 Keep R1 ints in memory in symmetry-blocked form, NReq=992659.
 Requested convergence on RMS density matrix=1.00D-08 within 128 cycles.
 Requested convergence on MAX density matrix=1.00D-06.
 Requested convergence on             energy=1.00D-06.
 No special actions if energy rises.
 SCF Done:  E(RHF) =  -92.8062927792     A.U. after   10 cycles
            NFock= 10  Conv=0.29D-08     -V/T= 1.9896

 **********************************************************************

            Population analysis using the SCF density.

 **********************************************************************

 Orbital symmetries:
       Occupied  (SG) (SG) (SG) (SG) (SG) (PI) (PI)
       Virtual   (PI) (PI) (SG) (SG) (PI) (PI) (SG) (SG) (PI) (PI)
                 (SG) (SG) (DLTA) (DLTA) (SG) (PI) (PI) (DLTA)
                 (DLTA) (PI) (PI) (SG) (SG) (SG) (SG)
 The electronic state is 1-SG.
 Alpha  occ. eigenvalues --  -15.55419 -11.24367  -1.30414  -0.81332  -0.56255
 Alpha  occ. eigenvalues --   -0.54544  -0.54544
 Alpha virt. eigenvalues --    0.25779   0.25779   0.26156   0.40079   0.71987
 Alpha virt. eigenvalues --    0.71987   0.82596   0.92362   1.07052   1.07052
 Alpha virt. eigenvalues --    1.15538   1.68961   1.73536   1.73536   1.82792
 Alpha virt. eigenvalues --    1.97882   1.97882   2.37092   2.37092   3.07897
 Alpha virt. eigenvalues --    3.07897   3.19982   3.98994   4.47978   4.74280
          Condensed to atoms (all electrons):
               1          2          3
     1  C    4.510246   1.078665   0.371950
     2  N    1.078665   6.276085  -0.037206
     3  H    0.371950  -0.037206   0.386851
 Mulliken charges:
               1
     1  C    0.039139
     2  N   -0.317544
     3  H    0.278405
 Sum of Mulliken charges =   0.00000
 Mulliken charges with hydrogens summed into heavy atoms:
               1
     1  C    0.317544
     2  N   -0.317544
 Electronic spatial extent (au):  <R**2>=             42.8821
 Charge=              0.0000 electrons
 Dipole moment (field-independent basis, Debye):
    X=              0.0000    Y=              0.0000    Z=             -3.0287  Tot=              3.0287
 Quadrupole moment (field-independent basis, Debye-Ang):
   XX=            -10.9170   YY=            -10.9170   ZZ=             -9.7694
   XY=              0.0000   XZ=              0.0000   YZ=              0.0000
 Traceless Quadrupole moment (field-independent basis, Debye-Ang):
   XX=             -0.3825   YY=             -0.3825   ZZ=              0.7650
   XY=              0.0000   XZ=              0.0000   YZ=              0.0000
 Octapole moment (field-independent basis, Debye-Ang**2):
  XXX=              0.0000  YYY=              0.0000  ZZZ=             -6.2804  XYY=              0.0000
  XXY=              0.0000  XXZ=             -0.3897  XZZ=              0.0000  YZZ=              0.0000
  YYZ=             -0.3897  XYZ=              0.0000
 Hexadecapole moment (field-independent basis, Debye-Ang**3):
 XXXX=             -9.4961 YYYY=             -9.4961 ZZZZ=            -29.5849 XXXY=              0.0000
 XXXZ=              0.0000 YYYX=              0.0000 YYYZ=              0.0000 ZZZX=              0.0000
 ZZZY=              0.0000 XXYY=             -3.1654 XXZZ=             -7.1539 YYZZ=             -7.1539
 XXYZ=              0.0000 YYXZ=              0.0000 ZZXY=              0.0000
 N-N= 2.725262624239D+01 E-N=-2.727654816610D+02  KE= 9.378514751821D+01
 Symmetry A1   KE= 8.802238623559D+01
 Symmetry A2   KE= 4.313149065142D-51
 Symmetry B1   KE= 2.881380641307D+00
 Symmetry B2   KE= 2.881380641307D+00
 Calling FoFJK, ICntrl=      2127 FMM=F ISym2X=1 I1Cent= 0 IOpClX= 0 NMat=1 NMatS=1 NMatT=0.
 ***** Axes restored to original set *****
 -------------------------------------------------------------------
 Center     Atomic                   Forces (Hartrees/Bohr)
 Number     Number              X              Y              Z
 -------------------------------------------------------------------
      1        6           0.000000000    0.000000000   -0.547593507
      2        7           0.000000000    0.000000000    0.604236375
      3        1           0.000000000    0.000000000   -0.056642868
 -------------------------------------------------------------------
 Cartesian Forces:  Max     0.604236375 RMS     0.272471948

 GradGradGradGradGradGradGradGradGradGradGradGradGradGradGradGradGradGrad
 Berny optimization.
 FormGI is forming the generalized inverse of G from B-inverse, IUseBI=4.
 Internal  Forces:  Max     0.604236375 RMS     0.303442751
 Search for a local minimum.
 Step number   1 out of a maximum of   20
 All quantities printed in internal units (Hartrees-Bohrs-Radians)
 Mixed Optimization -- RFO/linear search
 Second derivative matrix not updated -- first step.
 The second derivative matrix:
                          R1        R2        A1        A2
           R1           3.32740
           R2           0.00000   0.47688
           A1           0.00000   0.00000   0.01425
           A2           0.00000   0.00000   0.00000   0.01425
 ITU=  0
     Eigenvalues ---    0.01425   0.01425   0.47688   3.32740
 RFO step:  Lambda=-1.11616448D-01 EMin= 1.42535752D-02
 Linear search not attempted -- first point.
 Iteration  1 RMS(Cart)=  0.09750703 RMS(Int)=  0.00000000
 Iteration  2 RMS(Cart)=  0.00000000 RMS(Int)=  0.00000000
 ClnCor:  largest displacement from symmetrization is 3.82D-17 for atom     1.
 Variable       Old X    -DE/DX   Delta X   Delta X   Delta X     New X
                                 (Linear)    (Quad)   (Total)
    R1        1.88973   0.60424   0.00000   0.17570   0.17570   2.06543
    R2        1.88973   0.05664   0.00000   0.09625   0.09625   1.98598
    A1        3.14159   0.00000   0.00000   0.00000   0.00000   3.14159
    A2        3.14159   0.00000   0.00000   0.00000   0.00000   3.14159
         Item               Value     Threshold  Converged?
 Maximum Force            0.604236     0.000015     NO 
 RMS     Force            0.303443     0.000010     NO 
 Maximum Displacement     0.149217     0.000060     NO 
 RMS     Displacement     0.097507     0.000040     NO 
 Predicted change in Energy=-5.804807D-02
 GradGradGradGradGradGradGradGradGradGradGradGradGradGradGradGradGradGrad

                          Input orientation:                          
 ---------------------------------------------------------------------
 Center     Atomic      Atomic             Coordinates (Angstroms)
 Number     Number       Type             X           Y           Z
 ---------------------------------------------------------------------
      1          6           0        0.000000    0.000000   -0.014015
      2          7           0        0.000000    0.000000    1.078962
      3          1           0        0.000000    0.000000   -1.064948
 ---------------------------------------------------------------------
                    Distance matrix (angstroms):
                    1          2          3
     1  C    0.000000
     2  N    1.092977   0.000000
     3  H    1.050933   2.143910   0.000000
 Stoichiometry    CHN
 Framework group  C*V[C*(HCN)]
 Deg. of freedom     2
 Full point group                 C*V     NOp   4
 Largest Abelian subgroup         C2V     NOp   4
 Largest concise Abelian subgroup C1      NOp   1
                         Standard orientation:                         
 ---------------------------------------------------------------------
 Center     Atomic      Atomic             Coordinates (Angstroms)
 Number     Number       Type             X           Y           Z
 ---------------------------------------------------------------------
      1          6           0        0.000000    0.000000   -0.471422
      2          7           0        0.000000    0.000000    0.621555
      3          1           0        0.000000    0.000000   -1.522355
 ---------------------------------------------------------------------
 Rotational constants (GHZ):      0.0000000     48.9343297     48.9343297
 Standard basis: 6-31G(d) (6D, 7F)
 There are    18 symmetry adapted cartesian basis functions of A1  symmetry.
 There are     2 symmetry adapted cartesian basis functions of A2  symmetry.
 There are     6 symmetry adapted cartesian basis functions of B1  symmetry.
 There are     6 symmetry adapted cartesian basis functions of B2  symmetry.
 There are    18 symmetry adapted basis functions of A1  symmetry.
 There are     2 symmetry adapted basis functions of A2  symmetry.
 There are     6 symmetry adapted basis functions of B1  symmetry.
 There are     6 symmetry adapted basis functions of B2  symmetry.
    32 basis functions,    60 primitive gaussians,    32 cartesian basis functions
     7 alpha electrons        7 beta electrons
       nuclear repulsion energy        25.0837642307 Hartrees.
 NAtoms=    3 NActive=    3 NUniq=    3 SFac= 1.00D+00 NAtFMM=   60 NAOKFM=F Big=F
 Integral buffers will be    131072 words long.
 Raffenetti 1 integral format.
 Two-electron integral symmetry is turned on.
 One-electron integrals computed using PRISM.
 NBasis=    32 RedAO= T EigKep=  4.85D-03  NBF=    18     2     6     6
 NBsUse=    32 1.00D-06 EigRej= -1.00D+00 NBFU=    18     2     6     6
 Initial guess from the checkpoint file:  "/home/maxb2/HNC.chk"
 B after Tr=     0.000000    0.000000    0.000000
         Rot=    1.000000    0.000000    0.000000    0.000000 Ang=   0.00 deg.
 Initial guess orbital symmetries:
       Occupied  (SG) (SG) (SG) (SG) (SG) (PI) (PI)
       Virtual   (SG) (SG) (SG) (SG) (SG) (DLTA) (SG) (SG) (DLTA)
                 (SG) (SG) (SG) (SG) (DLTA) (DLTA) (PI) (PI) (PI)
                 (PI) (PI) (PI) (PI) (PI) (PI) (PI)
 ExpMin= 1.61D-01 ExpMax= 4.17D+03 ExpMxC= 6.27D+02 IAcc=1 IRadAn=         1 AccDes= 0.00D+00
 Harris functional with IExCor=  205 and IRadAn=       1 diagonalized for initial guess.
 HarFok:  IExCor=  205 AccDes= 0.00D+00 IRadAn=         1 IDoV= 1 UseB2=F ITyADJ=14
 ICtDFT=  3500011 ScaDFX=  1.000000  1.000000  1.000000  1.000000
 FoFCou: FMM=F IPFlag=           0 FMFlag=      100000 FMFlg1=           0
         NFxFlg=           0 DoJE=T BraDBF=F KetDBF=T FulRan=T
         wScrn=  0.000000 ICntrl=     500 IOpCl=  0 I1Cent=   200000004 NGrid=           0
         NMat0=    1 NMatS0=      1 NMatT0=    0 NMatD0=    1 NMtDS0=    0 NMtDT0=    0
 Petite list used in FoFCou.
 Keep R1 ints in memory in symmetry-blocked form, NReq=992586.
 Requested convergence on RMS density matrix=1.00D-08 within 128 cycles.
 Requested convergence on MAX density matrix=1.00D-06.
 Requested convergence on             energy=1.00D-06.
 No special actions if energy rises.
 SCF Done:  E(RHF) =  -92.8703437071     A.U. after   11 cycles
            NFock= 11  Conv=0.99D-09     -V/T= 1.9992
 Calling FoFJK, ICntrl=      2127 FMM=F ISym2X=1 I1Cent= 0 IOpClX= 0 NMat=1 NMatS=1 NMatT=0.
 ***** Axes restored to original set *****
 -------------------------------------------------------------------
 Center     Atomic                   Forces (Hartrees/Bohr)
 Number     Number              X              Y              Z
 -------------------------------------------------------------------
      1        6           0.000000000    0.000000000   -0.127730749
      2        7           0.000000000    0.000000000    0.133974504
      3        1           0.000000000    0.000000000   -0.006243755
 -------------------------------------------------------------------
 Cartesian Forces:  Max     0.133974504 RMS     0.061737164

 GradGradGradGradGradGradGradGradGradGradGradGradGradGradGradGradGradGrad
 Berny optimization.
 Using GEDIIS/GDIIS optimizer.
 Internal  Forces:  Max     0.133974504 RMS     0.067059959
 Search for a local minimum.
 Step number   2 out of a maximum of   20
 All quantities printed in internal units (Hartrees-Bohrs-Radians)
 Mixed Optimization -- RFO/linear search
 Update second derivatives using D2CorX and points    1    2
 DE= -6.41D-02 DEPred=-5.80D-02 R= 1.10D+00
 TightC=F SS=  1.41D+00  RLast= 2.00D-01 DXNew= 5.0454D-01 6.0101D-01
 Trust test= 1.10D+00 RLast= 2.00D-01 DXMaxT set to 5.05D-01
 The second derivative matrix:
                          R1        R2        A1        A2
           R1           2.66528
           R2           0.02047   0.48626
           A1           0.00000   0.00000   0.01425
           A2           0.00000   0.00000   0.00000   0.01425
 ITU=  1  0
 Use linear search instead of GDIIS.
     Eigenvalues ---    0.01425   0.01425   0.48606   2.66548
 RFO step:  Lambda=-5.08284476D-04 EMin= 1.42535752D-02
 Quartic linear search produced a step of  0.41975.
 Iteration  1 RMS(Cart)=  0.05029419 RMS(Int)=  0.00000000
 Iteration  2 RMS(Cart)=  0.00000000 RMS(Int)=  0.00000000
 ClnCor:  largest displacement from symmetrization is 4.16D-17 for atom     1.
 Variable       Old X    -DE/DX   Delta X   Delta X   Delta X     New X
                                 (Linear)    (Quad)   (Total)
    R1        2.06543   0.13397   0.07375  -0.00338   0.07037   2.13580
    R2        1.98598   0.00624   0.04040   0.03148   0.07188   2.05785
    A1        3.14159   0.00000   0.00000   0.00000   0.00000   3.14159
    A2        3.14159   0.00000   0.00000   0.00000   0.00000   3.14159
         Item               Value     Threshold  Converged?
 Maximum Force            0.133975     0.000015     NO 
 RMS     Force            0.067060     0.000010     NO 
 Maximum Displacement     0.071376     0.000060     NO 
 RMS     Displacement     0.050294     0.000040     NO 
 Predicted change in Energy=-1.917567D-03
 GradGradGradGradGradGradGradGradGradGradGradGradGradGradGradGradGradGrad

                          Input orientation:                          
 ---------------------------------------------------------------------
 Center     Atomic      Atomic             Coordinates (Angstroms)
 Number     Number       Type             X           Y           Z
 ---------------------------------------------------------------------
      1          6           0        0.000000    0.000000   -0.013750
      2          7           0        0.000000    0.000000    1.116468
      3          1           0        0.000000    0.000000   -1.102718
 ---------------------------------------------------------------------
                    Distance matrix (angstroms):
                    1          2          3
     1  C    0.000000
     2  N    1.130217   0.000000
     3  H    1.088969   2.219186   0.000000
 Stoichiometry    CHN
 Framework group  C*V[C*(HCN)]
 Deg. of freedom     2
 Full point group                 C*V     NOp   4
 Largest Abelian subgroup         C2V     NOp   4
 Largest concise Abelian subgroup C1      NOp   1
                         Standard orientation:                         
 ---------------------------------------------------------------------
 Center     Atomic      Atomic             Coordinates (Angstroms)
 Number     Number       Type             X           Y           Z
 ---------------------------------------------------------------------
      1          6           0        0.000000    0.000000   -0.487325
      2          7           0        0.000000    0.000000    0.642892
      3          1           0        0.000000    0.000000   -1.576294
 ---------------------------------------------------------------------
 Rotational constants (GHZ):      0.0000000     45.7323382     45.7323382
 Standard basis: 6-31G(d) (6D, 7F)
 There are    18 symmetry adapted cartesian basis functions of A1  symmetry.
 There are     2 symmetry adapted cartesian basis functions of A2  symmetry.
 There are     6 symmetry adapted cartesian basis functions of B1  symmetry.
 There are     6 symmetry adapted cartesian basis functions of B2  symmetry.
 There are    18 symmetry adapted basis functions of A1  symmetry.
 There are     2 symmetry adapted basis functions of A2  symmetry.
 There are     6 symmetry adapted basis functions of B1  symmetry.
 There are     6 symmetry adapted basis functions of B2  symmetry.
    32 basis functions,    60 primitive gaussians,    32 cartesian basis functions
     7 alpha electrons        7 beta electrons
       nuclear repulsion energy        24.2496058233 Hartrees.
 NAtoms=    3 NActive=    3 NUniq=    3 SFac= 1.00D+00 NAtFMM=   60 NAOKFM=F Big=F
 Integral buffers will be    131072 words long.
 Raffenetti 1 integral format.
 Two-electron integral symmetry is turned on.
 One-electron integrals computed using PRISM.
 NBasis=    32 RedAO= T EigKep=  5.55D-03  NBF=    18     2     6     6
 NBsUse=    32 1.00D-06 EigRej= -1.00D+00 NBFU=    18     2     6     6
 Initial guess from the checkpoint file:  "/home/maxb2/HNC.chk"
 B after Tr=     0.000000    0.000000    0.000000
         Rot=    1.000000    0.000000    0.000000    0.000000 Ang=   0.00 deg.
 Initial guess orbital symmetries:
       Occupied  (SG) (SG) (SG) (SG) (SG) (PI) (PI)
       Virtual   (SG) (SG) (SG) (SG) (SG) (SG) (DLTA) (SG) (DLTA)
                 (SG) (SG) (SG) (SG) (DLTA) (DLTA) (PI) (PI) (PI)
                 (PI) (PI) (PI) (PI) (PI) (PI) (PI)
 ExpMin= 1.61D-01 ExpMax= 4.17D+03 ExpMxC= 6.27D+02 IAcc=1 IRadAn=         1 AccDes= 0.00D+00
 Harris functional with IExCor=  205 and IRadAn=       1 diagonalized for initial guess.
 HarFok:  IExCor=  205 AccDes= 0.00D+00 IRadAn=         1 IDoV= 1 UseB2=F ITyADJ=14
 ICtDFT=  3500011 ScaDFX=  1.000000  1.000000  1.000000  1.000000
 FoFCou: FMM=F IPFlag=           0 FMFlag=      100000 FMFlg1=           0
         NFxFlg=           0 DoJE=T BraDBF=F KetDBF=T FulRan=T
         wScrn=  0.000000 ICntrl=     500 IOpCl=  0 I1Cent=   200000004 NGrid=           0
         NMat0=    1 NMatS0=      1 NMatT0=    0 NMatD0=    1 NMtDS0=    0 NMtDT0=    0
 Petite list used in FoFCou.
 Keep R1 ints in memory in symmetry-blocked form, NReq=992572.
 Requested convergence on RMS density matrix=1.00D-08 within 128 cycles.
 Requested convergence on MAX density matrix=1.00D-06.
 Requested convergence on             energy=1.00D-06.
 No special actions if energy rises.
 SCF Done:  E(RHF) =  -92.8744887575     A.U. after    9 cycles
            NFock=  9  Conv=0.90D-08     -V/T= 2.0025
 Calling FoFJK, ICntrl=      2127 FMM=F ISym2X=1 I1Cent= 0 IOpClX= 0 NMat=1 NMatS=1 NMatT=0.
 ***** Axes restored to original set *****
 -------------------------------------------------------------------
 Center     Atomic                   Forces (Hartrees/Bohr)
 Number     Number              X              Y              Z
 -------------------------------------------------------------------
      1        6           0.000000000    0.000000000   -0.031399890
      2        7           0.000000000    0.000000000    0.007611355
      3        1           0.000000000    0.000000000    0.023788535
 -------------------------------------------------------------------
 Cartesian Forces:  Max     0.031399890 RMS     0.013374022

 GradGradGradGradGradGradGradGradGradGradGradGradGradGradGradGradGradGrad
 Berny optimization.
 Using GEDIIS/GDIIS optimizer.
 Internal  Forces:  Max     0.023788535 RMS     0.012488266
 Search for a local minimum.
 Step number   3 out of a maximum of   20
 All quantities printed in internal units (Hartrees-Bohrs-Radians)
 Mixed Optimization -- RFO/linear search
 Update second derivatives using D2CorX and points    1    2    3
 DE= -4.15D-03 DEPred=-1.92D-03 R= 2.16D+00
 TightC=F SS=  1.41D+00  RLast= 1.01D-01 DXNew= 8.4853D-01 3.0178D-01
 Trust test= 2.16D+00 RLast= 1.01D-01 DXMaxT set to 5.05D-01
 The second derivative matrix:
                          R1        R2        A1        A2
           R1           1.86393
           R2          -0.06691   0.48334
           A1           0.00000   0.00000   0.01425
           A2           0.00000   0.00000   0.00000   0.01425
 ITU=  1  1  0
 Use linear search instead of GDIIS.
     Eigenvalues ---    0.01425   0.01425   0.48011   1.86716
 RFO step:  Lambda=-1.11177678D-03 EMin= 1.42535752D-02
 Quartic linear search produced a step of -0.11772.
 Iteration  1 RMS(Cart)=  0.02035870 RMS(Int)=  0.00000000
 Iteration  2 RMS(Cart)=  0.00000000 RMS(Int)=  0.00000000
 ClnCor:  largest displacement from symmetrization is 1.96D-14 for atom     1.
 Variable       Old X    -DE/DX   Delta X   Delta X   Delta X     New X
                                 (Linear)    (Quad)   (Total)
    R1        2.13580   0.00761  -0.00828   0.01007   0.00178   2.13758
    R2        2.05785  -0.02379  -0.00846  -0.04227  -0.05074   2.00712
    A1        3.14159   0.00000   0.00000   0.00000   0.00000   3.14159
    A2        3.14159   0.00000   0.00000   0.00000   0.00000   3.14159
         Item               Value     Threshold  Converged?
 Maximum Force            0.023789     0.000015     NO 
 RMS     Force            0.012488     0.000010     NO 
 Maximum Displacement     0.033230     0.000060     NO 
 RMS     Displacement     0.020359     0.000040     NO 
 Predicted change in Energy=-5.893946D-04
 GradGradGradGradGradGradGradGradGradGradGradGradGradGradGradGradGradGrad

                          Input orientation:                          
 ---------------------------------------------------------------------
 Center     Atomic      Atomic             Coordinates (Angstroms)
 Number     Number       Type             X           Y           Z
 ---------------------------------------------------------------------
      1          6           0        0.000000    0.000000   -0.023013
      2          7           0        0.000000    0.000000    1.108147
      3          1           0        0.000000    0.000000   -1.085134
 ---------------------------------------------------------------------
                    Distance matrix (angstroms):
                    1          2          3
     1  C    0.000000
     2  N    1.131161   0.000000
     3  H    1.062120   2.193281   0.000000
 Stoichiometry    CHN
 Framework group  C*V[C*(HCN)]
 Deg. of freedom     2
 Full point group                 C*V     NOp   4
 Largest Abelian subgroup         C2V     NOp   4
 Largest concise Abelian subgroup C1      NOp   1
                         Standard orientation:                         
 ---------------------------------------------------------------------
 Center     Atomic      Atomic             Coordinates (Angstroms)
 Number     Number       Type             X           Y           Z
 ---------------------------------------------------------------------
      1          6           0        0.000000    0.000000   -0.489715
      2          7           0        0.000000    0.000000    0.641446
      3          1           0        0.000000    0.000000   -1.551835
 ---------------------------------------------------------------------
 Rotational constants (GHZ):      0.0000000     46.0335366     46.0335366
 Standard basis: 6-31G(d) (6D, 7F)
 There are    18 symmetry adapted cartesian basis functions of A1  symmetry.
 There are     2 symmetry adapted cartesian basis functions of A2  symmetry.
 There are     6 symmetry adapted cartesian basis functions of B1  symmetry.
 There are     6 symmetry adapted cartesian basis functions of B2  symmetry.
 There are    18 symmetry adapted basis functions of A1  symmetry.
 There are     2 symmetry adapted basis functions of A2  symmetry.
 There are     6 symmetry adapted basis functions of B1  symmetry.
 There are     6 symmetry adapted basis functions of B2  symmetry.
    32 basis functions,    60 primitive gaussians,    32 cartesian basis functions
     7 alpha electrons        7 beta electrons
       nuclear repulsion energy        24.3266192245 Hartrees.
 NAtoms=    3 NActive=    3 NUniq=    3 SFac= 1.00D+00 NAtFMM=   60 NAOKFM=F Big=F
 Integral buffers will be    131072 words long.
 Raffenetti 1 integral format.
 Two-electron integral symmetry is turned on.
 One-electron integrals computed using PRISM.
 NBasis=    32 RedAO= T EigKep=  5.49D-03  NBF=    18     2     6     6
 NBsUse=    32 1.00D-06 EigRej= -1.00D+00 NBFU=    18     2     6     6
 Initial guess from the checkpoint file:  "/home/maxb2/HNC.chk"
 B after Tr=     0.000000    0.000000    0.000000
         Rot=    1.000000    0.000000    0.000000    0.000000 Ang=   0.00 deg.
 Initial guess orbital symmetries:
       Occupied  (SG) (SG) (SG) (SG) (SG) (PI) (PI)
       Virtual   (SG) (SG) (SG) (SG) (SG) (SG) (DLTA) (SG) (DLTA)
                 (SG) (SG) (SG) (SG) (DLTA) (DLTA) (PI) (PI) (PI)
                 (PI) (PI) (PI) (PI) (PI) (PI) (PI)
 ExpMin= 1.61D-01 ExpMax= 4.17D+03 ExpMxC= 6.27D+02 IAcc=1 IRadAn=         1 AccDes= 0.00D+00
 Harris functional with IExCor=  205 and IRadAn=       1 diagonalized for initial guess.
 HarFok:  IExCor=  205 AccDes= 0.00D+00 IRadAn=         1 IDoV= 1 UseB2=F ITyADJ=14
 ICtDFT=  3500011 ScaDFX=  1.000000  1.000000  1.000000  1.000000
 FoFCou: FMM=F IPFlag=           0 FMFlag=      100000 FMFlg1=           0
         NFxFlg=           0 DoJE=T BraDBF=F KetDBF=T FulRan=T
         wScrn=  0.000000 ICntrl=     500 IOpCl=  0 I1Cent=   200000004 NGrid=           0
         NMat0=    1 NMatS0=      1 NMatT0=    0 NMatD0=    1 NMtDS0=    0 NMtDT0=    0
 Petite list used in FoFCou.
 Keep R1 ints in memory in symmetry-blocked form, NReq=992572.
 Requested convergence on RMS density matrix=1.00D-08 within 128 cycles.
 Requested convergence on MAX density matrix=1.00D-06.
 Requested convergence on             energy=1.00D-06.
 No special actions if energy rises.
 SCF Done:  E(RHF) =  -92.8751842030     A.U. after    9 cycles
            NFock=  9  Conv=0.49D-08     -V/T= 2.0021
 Calling FoFJK, ICntrl=      2127 FMM=F ISym2X=1 I1Cent= 0 IOpClX= 0 NMat=1 NMatS=1 NMatT=0.
 ***** Axes restored to original set *****
 -------------------------------------------------------------------
 Center     Atomic                   Forces (Hartrees/Bohr)
 Number     Number              X              Y              Z
 -------------------------------------------------------------------
      1        6           0.000000000    0.000000000   -0.006863405
      2        7           0.000000000    0.000000000    0.004181602
      3        1           0.000000000    0.000000000    0.002681803
 -------------------------------------------------------------------
 Cartesian Forces:  Max     0.006863405 RMS     0.002824185

 GradGradGradGradGradGradGradGradGradGradGradGradGradGradGradGradGradGrad
 Berny optimization.
 Using GEDIIS/GDIIS optimizer.
 Internal  Forces:  Max     0.004181602 RMS     0.002483841
 Search for a local minimum.
 Step number   4 out of a maximum of   20
 All quantities printed in internal units (Hartrees-Bohrs-Radians)
 Mixed Optimization -- RFO/linear search
 Update second derivatives using D2CorX and points    1    2    3    4
 DE= -6.95D-04 DEPred=-5.89D-04 R= 1.18D+00
 TightC=F SS=  1.41D+00  RLast= 5.08D-02 DXNew= 8.4853D-01 1.5230D-01
 Trust test= 1.18D+00 RLast= 5.08D-02 DXMaxT set to 5.05D-01
 The second derivative matrix:
                          R1        R2        A1        A2
           R1           1.80146
           R2          -0.00429   0.41586
           A1           0.00000   0.00000   0.01425
           A2           0.00000   0.00000   0.00000   0.01425
 ITU=  1  1  1  0
 Use linear search instead of GDIIS.
     Eigenvalues ---    0.01425   0.01425   0.41585   1.80147
 RFO step:  Lambda=-7.86498974D-06 EMin= 1.42535752D-02
 Quartic linear search produced a step of  0.12278.
 Iteration  1 RMS(Cart)=  0.00209924 RMS(Int)=  0.00000000
 Iteration  2 RMS(Cart)=  0.00000000 RMS(Int)=  0.00000000
 ClnCor:  largest displacement from symmetrization is 3.47D-17 for atom     1.
 Variable       Old X    -DE/DX   Delta X   Delta X   Delta X     New X
                                 (Linear)    (Quad)   (Total)
    R1        2.13758   0.00418   0.00022   0.00208   0.00230   2.13989
    R2        2.00712  -0.00268  -0.00623   0.00034  -0.00589   2.00123
    A1        3.14159   0.00000   0.00000   0.00000   0.00000   3.14159
    A2        3.14159   0.00000   0.00000   0.00000   0.00000   3.14159
         Item               Value     Threshold  Converged?
 Maximum Force            0.004182     0.000015     NO 
 RMS     Force            0.002484     0.000010     NO 
 Maximum Displacement     0.003160     0.000060     NO 
 RMS     Displacement     0.002099     0.000040     NO 
 Predicted change in Energy=-1.337728D-05
 GradGradGradGradGradGradGradGradGradGradGradGradGradGradGradGradGradGrad

                          Input orientation:                          
 ---------------------------------------------------------------------
 Center     Atomic      Atomic             Coordinates (Angstroms)
 Number     Number       Type             X           Y           Z
 ---------------------------------------------------------------------
      1          6           0        0.000000    0.000000   -0.024459
      2          7           0        0.000000    0.000000    1.107920
      3          1           0        0.000000    0.000000   -1.083462
 ---------------------------------------------------------------------
                    Distance matrix (angstroms):
                    1          2          3
     1  C    0.000000
     2  N    1.132379   0.000000
     3  H    1.059003   2.191382   0.000000
 Stoichiometry    CHN
 Framework group  C*V[C*(HCN)]
 Deg. of freedom     2
 Full point group                 C*V     NOp   4
 Largest Abelian subgroup         C2V     NOp   4
 Largest concise Abelian subgroup C1      NOp   1
                         Standard orientation:                         
 ---------------------------------------------------------------------
 Center     Atomic      Atomic             Coordinates (Angstroms)
 Number     Number       Type             X           Y           Z
 ---------------------------------------------------------------------
      1          6           0        0.000000    0.000000   -0.490547
      2          7           0        0.000000    0.000000    0.641833
      3          1           0        0.000000    0.000000   -1.549549
 ---------------------------------------------------------------------
 Rotational constants (GHZ):      0.0000000     45.9922730     45.9922730
 Standard basis: 6-31G(d) (6D, 7F)
 There are    18 symmetry adapted cartesian basis functions of A1  symmetry.
 There are     2 symmetry adapted cartesian basis functions of A2  symmetry.
 There are     6 symmetry adapted cartesian basis functions of B1  symmetry.
 There are     6 symmetry adapted cartesian basis functions of B2  symmetry.
 There are    18 symmetry adapted basis functions of A1  symmetry.
 There are     2 symmetry adapted basis functions of A2  symmetry.
 There are     6 symmetry adapted basis functions of B1  symmetry.
 There are     6 symmetry adapted basis functions of B2  symmetry.
    32 basis functions,    60 primitive gaussians,    32 cartesian basis functions
     7 alpha electrons        7 beta electrons
       nuclear repulsion energy        24.3157375833 Hartrees.
 NAtoms=    3 NActive=    3 NUniq=    3 SFac= 1.00D+00 NAtFMM=   60 NAOKFM=F Big=F
 Integral buffers will be    131072 words long.
 Raffenetti 1 integral format.
 Two-electron integral symmetry is turned on.
 One-electron integrals computed using PRISM.
 NBasis=    32 RedAO= T EigKep=  5.51D-03  NBF=    18     2     6     6
 NBsUse=    32 1.00D-06 EigRej= -1.00D+00 NBFU=    18     2     6     6
 Initial guess from the checkpoint file:  "/home/maxb2/HNC.chk"
 B after Tr=     0.000000    0.000000    0.000000
         Rot=    1.000000    0.000000    0.000000    0.000000 Ang=   0.00 deg.
 Initial guess orbital symmetries:
       Occupied  (SG) (SG) (SG) (SG) (SG) (PI) (PI)
       Virtual   (SG) (SG) (SG) (SG) (SG) (SG) (DLTA) (SG) (DLTA)
                 (SG) (SG) (SG) (SG) (DLTA) (DLTA) (PI) (PI) (PI)
                 (PI) (PI) (PI) (PI) (PI) (PI) (PI)
 Keep R1 ints in memory in symmetry-blocked form, NReq=992572.
 Requested convergence on RMS density matrix=1.00D-08 within 128 cycles.
 Requested convergence on MAX density matrix=1.00D-06.
 Requested convergence on             energy=1.00D-06.
 No special actions if energy rises.
 SCF Done:  E(RHF) =  -92.8751974300     A.U. after    8 cycles
            NFock=  8  Conv=0.37D-08     -V/T= 2.0021
 Calling FoFJK, ICntrl=      2127 FMM=F ISym2X=1 I1Cent= 0 IOpClX= 0 NMat=1 NMatS=1 NMatT=0.
 ***** Axes restored to original set *****
 -------------------------------------------------------------------
 Center     Atomic                   Forces (Hartrees/Bohr)
 Number     Number              X              Y              Z
 -------------------------------------------------------------------
      1        6           0.000000000    0.000000000   -0.000437274
      2        7           0.000000000    0.000000000    0.000441785
      3        1           0.000000000    0.000000000   -0.000004512
 -------------------------------------------------------------------
 Cartesian Forces:  Max     0.000441785 RMS     0.000207204

 GradGradGradGradGradGradGradGradGradGradGradGradGradGradGradGradGradGrad
 Berny optimization.
 Using GEDIIS/GDIIS optimizer.
 Internal  Forces:  Max     0.000441785 RMS     0.000220904
 Search for a local minimum.
 Step number   5 out of a maximum of   20
 All quantities printed in internal units (Hartrees-Bohrs-Radians)
 Mixed Optimization -- En-DIIS/RFO-DIIS
 Update second derivatives using D2CorX and points    1    2    3    4    5
 DE= -1.32D-05 DEPred=-1.34D-05 R= 9.89D-01
 TightC=F SS=  1.41D+00  RLast= 6.33D-03 DXNew= 8.4853D-01 1.8975D-02
 Trust test= 9.89D-01 RLast= 6.33D-03 DXMaxT set to 5.05D-01
 The second derivative matrix:
                          R1        R2        A1        A2
           R1           1.66016
           R2           0.01414   0.46153
           A1           0.00000   0.00000   0.01425
           A2           0.00000   0.00000   0.00000   0.01425
 ITU=  1  1  1  1  0
 Use linear search instead of GDIIS.
     Eigenvalues ---    0.01425   0.01425   0.46136   1.66033
 RFO step:  Lambda=-7.76189791D-08 EMin= 1.42535752D-02
 Quartic linear search produced a step of  0.04036.
 Iteration  1 RMS(Cart)=  0.00010919 RMS(Int)=  0.00000000
 Iteration  2 RMS(Cart)=  0.00000000 RMS(Int)=  0.00000000
 ClnCor:  largest displacement from symmetrization is 3.47D-17 for atom     1.
 Variable       Old X    -DE/DX   Delta X   Delta X   Delta X     New X
                                 (Linear)    (Quad)   (Total)
    R1        2.13989   0.00044   0.00009   0.00017   0.00027   2.14015
    R2        2.00123   0.00000  -0.00024   0.00024   0.00000   2.00123
    A1        3.14159   0.00000   0.00000   0.00000   0.00000   3.14159
    A2        3.14159   0.00000   0.00000   0.00000   0.00000   3.14159
         Item               Value     Threshold  Converged?
 Maximum Force            0.000442     0.000015     NO 
 RMS     Force            0.000221     0.000010     NO 
 Maximum Displacement     0.000178     0.000060     NO 
 RMS     Displacement     0.000109     0.000040     NO 
 Predicted change in Energy=-5.878175D-08
 GradGradGradGradGradGradGradGradGradGradGradGradGradGradGradGradGradGrad

                          Input orientation:                          
 ---------------------------------------------------------------------
 Center     Atomic      Atomic             Coordinates (Angstroms)
 Number     Number       Type             X           Y           Z
 ---------------------------------------------------------------------
      1          6           0        0.000000    0.000000   -0.024505
      2          7           0        0.000000    0.000000    1.108015
      3          1           0        0.000000    0.000000   -1.083510
 ---------------------------------------------------------------------
                    Distance matrix (angstroms):
                    1          2          3
     1  C    0.000000
     2  N    1.132520   0.000000
     3  H    1.059004   2.191524   0.000000
 Stoichiometry    CHN
 Framework group  C*V[C*(HCN)]
 Deg. of freedom     2
 Full point group                 C*V     NOp   4
 Largest Abelian subgroup         C2V     NOp   4
 Largest concise Abelian subgroup C1      NOp   1
                         Standard orientation:                         
 ---------------------------------------------------------------------
 Center     Atomic      Atomic             Coordinates (Angstroms)
 Number     Number       Type             X           Y           Z
 ---------------------------------------------------------------------
      1          6           0        0.000000    0.000000   -0.490617
      2          7           0        0.000000    0.000000    0.641903
      3          1           0        0.000000    0.000000   -1.549621
 ---------------------------------------------------------------------
 Rotational constants (GHZ):      0.0000000     45.9826052     45.9826052
 Standard basis: 6-31G(d) (6D, 7F)
 There are    18 symmetry adapted cartesian basis functions of A1  symmetry.
 There are     2 symmetry adapted cartesian basis functions of A2  symmetry.
 There are     6 symmetry adapted cartesian basis functions of B1  symmetry.
 There are     6 symmetry adapted cartesian basis functions of B2  symmetry.
 There are    18 symmetry adapted basis functions of A1  symmetry.
 There are     2 symmetry adapted basis functions of A2  symmetry.
 There are     6 symmetry adapted basis functions of B1  symmetry.
 There are     6 symmetry adapted basis functions of B2  symmetry.
    32 basis functions,    60 primitive gaussians,    32 cartesian basis functions
     7 alpha electrons        7 beta electrons
       nuclear repulsion energy        24.3131844205 Hartrees.
 NAtoms=    3 NActive=    3 NUniq=    3 SFac= 1.00D+00 NAtFMM=   60 NAOKFM=F Big=F
 Integral buffers will be    131072 words long.
 Raffenetti 1 integral format.
 Two-electron integral symmetry is turned on.
 One-electron integrals computed using PRISM.
 NBasis=    32 RedAO= T EigKep=  5.51D-03  NBF=    18     2     6     6
 NBsUse=    32 1.00D-06 EigRej= -1.00D+00 NBFU=    18     2     6     6
 Initial guess from the checkpoint file:  "/home/maxb2/HNC.chk"
 B after Tr=     0.000000    0.000000    0.000000
         Rot=    1.000000    0.000000    0.000000    0.000000 Ang=   0.00 deg.
 Initial guess orbital symmetries:
       Occupied  (SG) (SG) (SG) (SG) (SG) (PI) (PI)
       Virtual   (SG) (SG) (SG) (SG) (SG) (SG) (DLTA) (SG) (DLTA)
                 (SG) (SG) (SG) (SG) (DLTA) (DLTA) (PI) (PI) (PI)
                 (PI) (PI) (PI) (PI) (PI) (PI) (PI)
 Keep R1 ints in memory in symmetry-blocked form, NReq=992572.
 Requested convergence on RMS density matrix=1.00D-08 within 128 cycles.
 Requested convergence on MAX density matrix=1.00D-06.
 Requested convergence on             energy=1.00D-06.
 No special actions if energy rises.
 SCF Done:  E(RHF) =  -92.8751974913     A.U. after    7 cycles
            NFock=  7  Conv=0.21D-08     -V/T= 2.0021
 Calling FoFJK, ICntrl=      2127 FMM=F ISym2X=1 I1Cent= 0 IOpClX= 0 NMat=1 NMatS=1 NMatT=0.
 ***** Axes restored to original set *****
 -------------------------------------------------------------------
 Center     Atomic                   Forces (Hartrees/Bohr)
 Number     Number              X              Y              Z
 -------------------------------------------------------------------
      1        6           0.000000000    0.000000000   -0.000013318
      2        7           0.000000000    0.000000000    0.000019486
      3        1           0.000000000    0.000000000   -0.000006167
 -------------------------------------------------------------------
 Cartesian Forces:  Max     0.000019486 RMS     0.000008132

 GradGradGradGradGradGradGradGradGradGradGradGradGradGradGradGradGradGrad
 Berny optimization.
 Using GEDIIS/GDIIS optimizer.
 Internal  Forces:  Max     0.000019486 RMS     0.000010219
 Search for a local minimum.
 Step number   6 out of a maximum of   20
 All quantities printed in internal units (Hartrees-Bohrs-Radians)
 Mixed Optimization -- En-DIIS/RFO-DIIS
 Swapping is turned off.
 Update second derivatives using D2CorX and points    2    3    4    5    6
 DE= -6.13D-08 DEPred=-5.88D-08 R= 1.04D+00
 Trust test= 1.04D+00 RLast= 2.66D-04 DXMaxT set to 5.05D-01
 The second derivative matrix:
                          R1        R2        A1        A2
           R1           1.58814
           R2          -0.01149   0.46127
           A1           0.00000   0.00000   0.01425
           A2           0.00000   0.00000   0.00000   0.01425
 ITU=  0  1  1  1  1
     Eigenvalues ---    0.01425   0.01425   0.46116   1.58826
 En-DIIS/RFO-DIIS IScMMF=        0 using points:     6    5
 RFO step:  Lambda= 0.00000000D+00.
 DidBck=F Rises=F RFO-DIIS coefs:    1.04631   -0.04631
 Iteration  1 RMS(Cart)=  0.00000921 RMS(Int)=  0.00000000
 Iteration  2 RMS(Cart)=  0.00000000 RMS(Int)=  0.00000000
 ClnCor:  largest displacement from symmetrization is 3.47D-17 for atom     1.
 Variable       Old X    -DE/DX   Delta X   Delta X   Delta X     New X
                                 (Linear)    (Quad)   (Total)
    R1        2.14015   0.00002   0.00001   0.00000   0.00001   2.14017
    R2        2.00123   0.00001   0.00000   0.00001   0.00001   2.00124
    A1        3.14159   0.00000   0.00000   0.00000   0.00000   3.14159
    A2        3.14159   0.00000   0.00000   0.00000   0.00000   3.14159
         Item               Value     Threshold  Converged?
 Maximum Force            0.000019     0.000015     NO 
 RMS     Force            0.000010     0.000010     NO 
 Maximum Displacement     0.000013     0.000060     YES
 RMS     Displacement     0.000009     0.000040     YES
 Predicted change in Energy=-1.626876D-10
 GradGradGradGradGradGradGradGradGradGradGradGradGradGradGradGradGradGrad

                          Input orientation:                          
 ---------------------------------------------------------------------
 Center     Atomic      Atomic             Coordinates (Angstroms)
 Number     Number       Type             X           Y           Z
 ---------------------------------------------------------------------
      1          6           0        0.000000    0.000000   -0.024505
      2          7           0        0.000000    0.000000    1.108022
      3          1           0        0.000000    0.000000   -1.083517
 ---------------------------------------------------------------------
                    Distance matrix (angstroms):
                    1          2          3
     1  C    0.000000
     2  N    1.132527   0.000000
     3  H    1.059012   2.191538   0.000000
 Stoichiometry    CHN
 Framework group  C*V[C*(HCN)]
 Deg. of freedom     2
 Full point group                 C*V     NOp   4
 Largest Abelian subgroup         C2V     NOp   4
 Largest concise Abelian subgroup C1      NOp   1
                         Standard orientation:                         
 ---------------------------------------------------------------------
 Center     Atomic      Atomic             Coordinates (Angstroms)
 Number     Number       Type             X           Y           Z
 ---------------------------------------------------------------------
      1          6           0        0.000000    0.000000   -0.490620
      2          7           0        0.000000    0.000000    0.641907
      3          1           0        0.000000    0.000000   -1.549631
 ---------------------------------------------------------------------
 Rotational constants (GHZ):      0.0000000     45.9820586     45.9820586
 Standard basis: 6-31G(d) (6D, 7F)
 There are    18 symmetry adapted cartesian basis functions of A1  symmetry.
 There are     2 symmetry adapted cartesian basis functions of A2  symmetry.
 There are     6 symmetry adapted cartesian basis functions of B1  symmetry.
 There are     6 symmetry adapted cartesian basis functions of B2  symmetry.
 There are    18 symmetry adapted basis functions of A1  symmetry.
 There are     2 symmetry adapted basis functions of A2  symmetry.
 There are     6 symmetry adapted basis functions of B1  symmetry.
 There are     6 symmetry adapted basis functions of B2  symmetry.
    32 basis functions,    60 primitive gaussians,    32 cartesian basis functions
     7 alpha electrons        7 beta electrons
       nuclear repulsion energy        24.3130398799 Hartrees.
 NAtoms=    3 NActive=    3 NUniq=    3 SFac= 1.00D+00 NAtFMM=   60 NAOKFM=F Big=F
 Integral buffers will be    131072 words long.
 Raffenetti 1 integral format.
 Two-electron integral symmetry is turned on.
 One-electron integrals computed using PRISM.
 NBasis=    32 RedAO= T EigKep=  5.51D-03  NBF=    18     2     6     6
 NBsUse=    32 1.00D-06 EigRej= -1.00D+00 NBFU=    18     2     6     6
 Initial guess from the checkpoint file:  "/home/maxb2/HNC.chk"
 B after Tr=     0.000000    0.000000    0.000000
         Rot=    1.000000    0.000000    0.000000    0.000000 Ang=   0.00 deg.
 Initial guess orbital symmetries:
       Occupied  (SG) (SG) (SG) (SG) (SG) (PI) (PI)
       Virtual   (SG) (SG) (SG) (SG) (SG) (SG) (DLTA) (SG) (DLTA)
                 (SG) (SG) (SG) (SG) (DLTA) (DLTA) (PI) (PI) (PI)
                 (PI) (PI) (PI) (PI) (PI) (PI) (PI)
 Keep R1 ints in memory in symmetry-blocked form, NReq=992572.
 Requested convergence on RMS density matrix=1.00D-08 within 128 cycles.
 Requested convergence on MAX density matrix=1.00D-06.
 Requested convergence on             energy=1.00D-06.
 No special actions if energy rises.
 SCF Done:  E(RHF) =  -92.8751974915     A.U. after    4 cycles
            NFock=  4  Conv=0.86D-08     -V/T= 2.0021
 Calling FoFJK, ICntrl=      2127 FMM=F ISym2X=1 I1Cent= 0 IOpClX= 0 NMat=1 NMatS=1 NMatT=0.
 ***** Axes restored to original set *****
 -------------------------------------------------------------------
 Center     Atomic                   Forces (Hartrees/Bohr)
 Number     Number              X              Y              Z
 -------------------------------------------------------------------
      1        6           0.000000000    0.000000000    0.000000090
      2        7           0.000000000    0.000000000   -0.000000015
      3        1           0.000000000    0.000000000   -0.000000075
 -------------------------------------------------------------------
 Cartesian Forces:  Max     0.000000090 RMS     0.000000039

 GradGradGradGradGradGradGradGradGradGradGradGradGradGradGradGradGradGrad
 Berny optimization.
 Using GEDIIS/GDIIS optimizer.
 Internal  Forces:  Max     0.000000075 RMS     0.000000038
 Search for a local minimum.
 Step number   7 out of a maximum of   20
 All quantities printed in internal units (Hartrees-Bohrs-Radians)
 Mixed Optimization -- En-DIIS/RFO-DIIS
 Swapping is turned off.
 Update second derivatives using D2CorX and points    3    4    5    7
 DE= -1.63D-10 DEPred=-1.63D-10 R= 1.00D+00
 Trust test= 1.00D+00 RLast= 1.84D-05 DXMaxT set to 5.05D-01
 The second derivative matrix:
                          R1        R2        A1        A2
           R1           1.58815
           R2          -0.01085   0.44594
           A1           0.00000   0.00000   0.01425
           A2           0.00000   0.00000   0.00000   0.01425
 ITU=  0  0  1  1  1
     Eigenvalues ---    0.01425   0.01425   0.44584   1.58826
 En-DIIS/RFO-DIIS IScMMF=        0 using points:     7    6    5
 RFO step:  Lambda= 0.00000000D+00.
 DidBck=F Rises=F RFO-DIIS coefs:    1.01221   -0.01281    0.00060
 Iteration  1 RMS(Cart)=  0.00000007 RMS(Int)=  0.00000000
 ClnCor:  largest displacement from symmetrization is 0.00D+00 for atom     0.
 Variable       Old X    -DE/DX   Delta X   Delta X   Delta X     New X
                                 (Linear)    (Quad)   (Total)
    R1        2.14017   0.00000   0.00000   0.00000   0.00000   2.14017
    R2        2.00124   0.00000   0.00000   0.00000   0.00000   2.00124
    A1        3.14159   0.00000   0.00000   0.00000   0.00000   3.14159
    A2        3.14159   0.00000   0.00000   0.00000   0.00000   3.14159
         Item               Value     Threshold  Converged?
 Maximum Force            0.000000     0.000015     YES
 RMS     Force            0.000000     0.000010     YES
 Maximum Displacement     0.000000     0.000060     YES
 RMS     Displacement     0.000000     0.000040     YES
 Predicted change in Energy=-6.420688D-15
 Optimization completed.
    -- Stationary point found.
                           ----------------------------
                           !   Optimized Parameters   !
                           ! (Angstroms and Degrees)  !
 --------------------------                            --------------------------
 ! Name  Definition              Value          Derivative Info.                !
 --------------------------------------------------------------------------------
 ! R1    R(1,2)                  1.1325         -DE/DX =    0.0                 !
 ! R2    R(1,3)                  1.059          -DE/DX =    0.0                 !
 ! A1    L(2,1,3,-1,-1)        180.0            -DE/DX =    0.0                 !
 ! A2    L(2,1,3,-2,-2)        180.0            -DE/DX =    0.0                 !
 --------------------------------------------------------------------------------
 GradGradGradGradGradGradGradGradGradGradGradGradGradGradGradGradGradGrad

                          Input orientation:                          
 ---------------------------------------------------------------------
 Center     Atomic      Atomic             Coordinates (Angstroms)
 Number     Number       Type             X           Y           Z
 ---------------------------------------------------------------------
      1          6           0        0.000000    0.000000   -0.024505
      2          7           0        0.000000    0.000000    1.108022
      3          1           0        0.000000    0.000000   -1.083517
 ---------------------------------------------------------------------
                    Distance matrix (angstroms):
                    1          2          3
     1  C    0.000000
     2  N    1.132527   0.000000
     3  H    1.059012   2.191538   0.000000
 Stoichiometry    CHN
 Framework group  C*V[C*(HCN)]
 Deg. of freedom     2
 Full point group                 C*V     NOp   4
 Largest Abelian subgroup         C2V     NOp   4
 Largest concise Abelian subgroup C1      NOp   1
                         Standard orientation:                         
 ---------------------------------------------------------------------
 Center     Atomic      Atomic             Coordinates (Angstroms)
 Number     Number       Type             X           Y           Z
 ---------------------------------------------------------------------
      1          6           0        0.000000    0.000000   -0.490620
      2          7           0        0.000000    0.000000    0.641907
      3          1           0        0.000000    0.000000   -1.549631
 ---------------------------------------------------------------------
 Rotational constants (GHZ):      0.0000000     45.9820586     45.9820586

 **********************************************************************

            Population analysis using the SCF density.

 **********************************************************************

 Orbital symmetries:
       Occupied  (SG) (SG) (SG) (SG) (SG) (PI) (PI)
       Virtual   (PI) (PI) (SG) (SG) (PI) (PI) (SG) (SG) (PI) (PI)
                 (SG) (SG) (SG) (DLTA) (DLTA) (PI) (PI) (DLTA)
                 (DLTA) (PI) (PI) (SG) (SG) (SG) (SG)
 The electronic state is 1-SG.
 Alpha  occ. eigenvalues --  -15.59705 -11.28842  -1.24286  -0.80831  -0.57380
 Alpha  occ. eigenvalues --   -0.49706  -0.49706
 Alpha virt. eigenvalues --    0.20436   0.20436   0.23314   0.42232   0.73701
 Alpha virt. eigenvalues --    0.73701   0.83331   0.90705   1.04163   1.04163
 Alpha virt. eigenvalues --    1.04853   1.46433   1.68133   1.76909   1.76909
 Alpha virt. eigenvalues --    1.84248   1.84248   2.27760   2.27760   2.92135
 Alpha virt. eigenvalues --    2.92135   2.98295   3.43942   4.28815   4.53779
          Condensed to atoms (all electrons):
               1          2          3
     1  C    4.654097   0.928326   0.351286
     2  N    0.928326   6.474951  -0.024392
     3  H    0.351286  -0.024392   0.360512
 Mulliken charges:
               1
     1  C    0.066291
     2  N   -0.378885
     3  H    0.312594
 Sum of Mulliken charges =   0.00000
 Mulliken charges with hydrogens summed into heavy atoms:
               1
     1  C    0.378885
     2  N   -0.378885
 Electronic spatial extent (au):  <R**2>=             48.3190
 Charge=              0.0000 electrons
 Dipole moment (field-independent basis, Debye):
    X=              0.0000    Y=              0.0000    Z=             -3.2087  Tot=              3.2087
 Quadrupole moment (field-independent basis, Debye-Ang):
   XX=            -11.5658   YY=            -11.5658   ZZ=             -9.5339
   XY=              0.0000   XZ=              0.0000   YZ=              0.0000
 Traceless Quadrupole moment (field-independent basis, Debye-Ang):
   XX=             -0.6773   YY=             -0.6773   ZZ=              1.3546
   XY=              0.0000   XZ=              0.0000   YZ=              0.0000
 Octapole moment (field-independent basis, Debye-Ang**2):
  XXX=              0.0000  YYY=              0.0000  ZZZ=             -7.5046  XYY=              0.0000
  XXY=              0.0000  XXZ=             -0.3176  XZZ=              0.0000  YZZ=              0.0000
  YYZ=             -0.3176  XYZ=              0.0000
 Hexadecapole moment (field-independent basis, Debye-Ang**3):
 XXXX=            -10.6452 YYYY=            -10.6452 ZZZZ=            -33.5816 XXXY=              0.0000
 XXXZ=              0.0000 YYYX=              0.0000 YYYZ=              0.0000 ZZZX=              0.0000
 ZZZY=              0.0000 XXYY=             -3.5484 XXZZ=             -8.4933 YYZZ=             -8.4933
 XXYZ=              0.0000 YYXZ=              0.0000 ZZXY=              0.0000
 N-N= 2.431303987987D+01 E-N=-2.660459799110D+02  KE= 9.267864089114D+01
 Symmetry A1   KE= 8.726164896555D+01
 Symmetry A2   KE=-4.198010516228D-52
 Symmetry B1   KE= 2.708495962797D+00
 Symmetry B2   KE= 2.708495962797D+00
 1\1\GINC-TC-NODE166\FOpt\RHF\6-31G(d)\C1H1N1\MAXB2\23-Sep-2016\0\\# op
 t=tight RHF/6-31g* gfp geom=connectivity\\HNC\\0,1\C,0.,0.,-0.02450496
 15\N,0.,0.,1.1080215883\H,0.,0.,-1.0835166268\\Version=ES64L-G09RevD.0
 1\State=1-SG\HF=-92.8751975\RMSD=8.629e-09\RMSF=3.942e-08\Dipole=0.,0.
 ,-1.2624096\Quadrupole=-0.5035559,-0.5035559,1.0071118,0.,0.,0.\PG=C*V
  [C*(H1C1N1)]\\@


 MOST BUREAUCRACIES FUNCTION LIKE A SEPTIC TANK.
 THE LARGE CHUNKS RISE TO THE TOP.
 Job cpu time:       0 days  0 hours  0 minutes 14.5 seconds.
 File lengths (MBytes):  RWF=     72 Int=      0 D2E=      0 Chk=      2 Scr=      1
 Normal termination of Gaussian 09 at Fri Sep 23 11:44:38 2016.
