 Entering Gaussian System, Link 0=g09
 Initial command:
 /cluster/software/gaussian/gaussian-09-D.01/g09/l1.exe "/local/scratch/maxb2/Gau-4462.inp" -scrdir="/local/scratch/maxb2/"
 Entering Link 1 = /cluster/software/gaussian/gaussian-09-D.01/g09/l1.exe PID=      4463.
  
 Copyright (c) 1988,1990,1992,1993,1995,1998,2003,2009,2013,
            Gaussian, Inc.  All Rights Reserved.
  
 This is part of the Gaussian(R) 09 program.  It is based on
 the Gaussian(R) 03 system (copyright 2003, Gaussian, Inc.),
 the Gaussian(R) 98 system (copyright 1998, Gaussian, Inc.),
 the Gaussian(R) 94 system (copyright 1995, Gaussian, Inc.),
 the Gaussian 92(TM) system (copyright 1992, Gaussian, Inc.),
 the Gaussian 90(TM) system (copyright 1990, Gaussian, Inc.),
 the Gaussian 88(TM) system (copyright 1988, Gaussian, Inc.),
 the Gaussian 86(TM) system (copyright 1986, Carnegie Mellon
 University), and the Gaussian 82(TM) system (copyright 1983,
 Carnegie Mellon University). Gaussian is a federally registered
 trademark of Gaussian, Inc.
  
 This software contains proprietary and confidential information,
 including trade secrets, belonging to Gaussian, Inc.
  
 This software is provided under written license and may be
 used, copied, transmitted, or stored only in accord with that
 written license.
  
 The following legend is applicable only to US Government
 contracts under FAR:
  
                    RESTRICTED RIGHTS LEGEND
  
 Use, reproduction and disclosure by the US Government is
 subject to restrictions as set forth in subparagraphs (a)
 and (c) of the Commercial Computer Software - Restricted
 Rights clause in FAR 52.227-19.
  
 Gaussian, Inc.
 340 Quinnipiac St., Bldg. 40, Wallingford CT 06492
  
  
 ---------------------------------------------------------------
 Warning -- This program may not be used in any manner that
 competes with the business of Gaussian, Inc. or will provide
 assistance to any competitor of Gaussian, Inc.  The licensee
 of this program is prohibited from giving any competitor of
 Gaussian, Inc. access to this program.  By using this program,
 the user acknowledges that Gaussian, Inc. is engaged in the
 business of creating and licensing software in the field of
 computational chemistry and represents and warrants to the
 licensee that it is not a competitor of Gaussian, Inc. and that
 it will not use this program in any manner prohibited above.
 ---------------------------------------------------------------
  

 Cite this work as:
 Gaussian 09, Revision D.01,
 M. J. Frisch, G. W. Trucks, H. B. Schlegel, G. E. Scuseria, 
 M. A. Robb, J. R. Cheeseman, G. Scalmani, V. Barone, B. Mennucci, 
 G. A. Petersson, H. Nakatsuji, M. Caricato, X. Li, H. P. Hratchian, 
 A. F. Izmaylov, J. Bloino, G. Zheng, J. L. Sonnenberg, M. Hada, 
 M. Ehara, K. Toyota, R. Fukuda, J. Hasegawa, M. Ishida, T. Nakajima, 
 Y. Honda, O. Kitao, H. Nakai, T. Vreven, J. A. Montgomery, Jr., 
 J. E. Peralta, F. Ogliaro, M. Bearpark, J. J. Heyd, E. Brothers, 
 K. N. Kudin, V. N. Staroverov, T. Keith, R. Kobayashi, J. Normand, 
 K. Raghavachari, A. Rendell, J. C. Burant, S. S. Iyengar, J. Tomasi, 
 M. Cossi, N. Rega, J. M. Millam, M. Klene, J. E. Knox, J. B. Cross, 
 V. Bakken, C. Adamo, J. Jaramillo, R. Gomperts, R. E. Stratmann, 
 O. Yazyev, A. J. Austin, R. Cammi, C. Pomelli, J. W. Ochterski, 
 R. L. Martin, K. Morokuma, V. G. Zakrzewski, G. A. Voth, 
 P. Salvador, J. J. Dannenberg, S. Dapprich, A. D. Daniels, 
 O. Farkas, J. B. Foresman, J. V. Ortiz, J. Cioslowski, 
 and D. J. Fox, Gaussian, Inc., Wallingford CT, 2013.
 
 ******************************************
 Gaussian 09:  ES64L-G09RevD.01 24-Apr-2013
                23-Sep-2016 
 ******************************************
 %rwf=/home/maxb2/scratch/HNC
 %int=/home/maxb2/scratch/HNC
 %d2e=/home/maxb2/scratch/HNC
 %nosave
 %mem=6GB
 %nprocshared=2
 Will use up to    2 processors via shared memory.
 %chk=/home/maxb2/HNC
 -----------------------------------------
 # opt=(modredundant,tight) RHF/6-31g* gfp
 -----------------------------------------
 1/7=10,18=120,19=15,38=1/1,3;
 2/9=110,12=2,17=6,18=5,40=1/2;
 3/5=1,6=6,7=1,11=1,16=1,24=100,25=1,30=1,71=1,116=1/1,2,3;
 4//1;
 5/5=2,38=5/2;
 6/7=2,8=2,9=2,10=2,28=1/1;
 7//1,2,3,16;
 1/7=10,18=20,19=15/3(2);
 2/9=110/2;
 99//99;
 2/9=110/2;
 3/5=1,6=6,7=1,11=1,16=1,25=1,30=1,71=1,116=1/1,2,3;
 4/5=5,16=3,69=1/1;
 5/5=2,38=5/2;
 7//1,2,3,16;
 1/7=10,18=20,19=15/3(-5);
 2/9=110/2;
 6/7=2,8=2,9=2,10=2,19=2,28=1/1;
 99/9=1/99;
 -------
 HNC-HCN
 -------
 Symbolic Z-matrix:
 Charge =  0 Multiplicity = 1
 N
 C                    1    B1
 H                    1    B2       2    A1
       Variables:
  B1                    1.                       
  B2                    1.                       
  A1                  175.                       
 
 The following ModRedundant input section has been read:
 B       2       3 S  25 -0.100                                                
 

 GradGradGradGradGradGradGradGradGradGradGradGradGradGradGradGradGradGrad
 Berny optimization.
 Initialization pass.
                           ----------------------------
                           !    Initial Parameters    !
                           ! (Angstroms and Degrees)  !
 --------------------------                            --------------------------
 ! Name  Definition              Value          Derivative Info.                !
 --------------------------------------------------------------------------------
 ! R1    R(1,2)                  1.0            estimate D2E/DX2                !
 ! R2    R(1,3)                  1.0            estimate D2E/DX2                !
 ! R3    R(2,3)                  1.9981         Scan                            !
 ! A1    L(2,1,3,-2,-1)        185.0            estimate D2E/DX2                !
 ! A2    L(2,1,3,-1,-2)        180.0            estimate D2E/DX2                !
 --------------------------------------------------------------------------------
 Trust Radius=3.00D-01 FncErr=1.00D-07 GrdErr=1.00D-07
 Number of optimizations in scan=  26
 Number of steps in this run=     20 maximum allowed number of steps=    100.
 GradGradGradGradGradGradGradGradGradGradGradGradGradGradGradGradGradGrad

                          Input orientation:                          
 ---------------------------------------------------------------------
 Center     Atomic      Atomic             Coordinates (Angstroms)
 Number     Number       Type             X           Y           Z
 ---------------------------------------------------------------------
      1          7           0        0.000000    0.000000    0.000000
      2          6           0        0.000000    0.000000    1.000000
      3          1           0        0.087156    0.000000   -0.996195
 ---------------------------------------------------------------------
                    Distance matrix (angstroms):
                    1          2          3
     1  N    0.000000
     2  C    1.000000   0.000000
     3  H    1.000000   1.998096   0.000000
 Stoichiometry    CHN
 Framework group  CS[SG(CHN)]
 Deg. of freedom     3
 Full point group                 CS      NOp   2
 Largest Abelian subgroup         CS      NOp   2
 Largest concise Abelian subgroup C1      NOp   1
                         Standard orientation:                         
 ---------------------------------------------------------------------
 Center     Atomic      Atomic             Coordinates (Angstroms)
 Number     Number       Type             X           Y           Z
 ---------------------------------------------------------------------
      1          7           0        0.006225    0.357415    0.000000
      2          6           0        0.006225   -0.642585    0.000000
      3          1           0       -0.080930    1.353609    0.000000
 ---------------------------------------------------------------------
 Rotational constants (GHZ):  90468.1664201     59.2783154     59.2394994
 Standard basis: 6-31G(d) (6D, 7F)
 AO basis set (Overlap normalization):
 Atom N1       Shell     1 S   6     bf    1 -     1          0.011764320336          0.675415831635          0.000000000000
      0.4173511460D+04  0.1834772160D-02
      0.6274579110D+03  0.1399462700D-01
      0.1429020930D+03  0.6858655181D-01
      0.4023432930D+02  0.2322408730D+00
      0.1282021290D+02  0.4690699481D+00
      0.4390437010D+01  0.3604551991D+00
 Atom N1       Shell     2 SP   3    bf    2 -     5          0.011764320336          0.675415831635          0.000000000000
      0.1162636186D+02 -0.1149611817D+00  0.6757974388D-01
      0.2716279807D+01 -0.1691174786D+00  0.3239072959D+00
      0.7722183966D+00  0.1145851947D+01  0.7408951398D+00
 Atom N1       Shell     3 SP   1    bf    6 -     9          0.011764320336          0.675415831635          0.000000000000
      0.2120314975D+00  0.1000000000D+01  0.1000000000D+01
 Atom N1       Shell     4 D   1     bf   10 -    15          0.011764320336          0.675415831635          0.000000000000
      0.8000000000D+00  0.1000000000D+01
 Atom C2       Shell     5 S   6     bf   16 -    16          0.011764320336         -1.214310301251          0.000000000000
      0.3047524880D+04  0.1834737132D-02
      0.4573695180D+03  0.1403732281D-01
      0.1039486850D+03  0.6884262226D-01
      0.2921015530D+02  0.2321844432D+00
      0.9286662960D+01  0.4679413484D+00
      0.3163926960D+01  0.3623119853D+00
 Atom C2       Shell     6 SP   3    bf   17 -    20          0.011764320336         -1.214310301251          0.000000000000
      0.7868272350D+01 -0.1193324198D+00  0.6899906659D-01
      0.1881288540D+01 -0.1608541517D+00  0.3164239610D+00
      0.5442492580D+00  0.1143456438D+01  0.7443082909D+00
 Atom C2       Shell     7 SP   1    bf   21 -    24          0.011764320336         -1.214310301251          0.000000000000
      0.1687144782D+00  0.1000000000D+01  0.1000000000D+01
 Atom C2       Shell     8 D   1     bf   25 -    30          0.011764320336         -1.214310301251          0.000000000000
      0.8000000000D+00  0.1000000000D+01
 Atom H3       Shell     9 S   3     bf   31 -    31         -0.152936164366          2.557950986061          0.000000000000
      0.1873113696D+02  0.3349460434D-01
      0.2825394365D+01  0.2347269535D+00
      0.6401216923D+00  0.8137573261D+00
 Atom H3       Shell    10 S   1     bf   32 -    32         -0.152936164366          2.557950986061          0.000000000000
      0.1612777588D+00  0.1000000000D+01
 There are    24 symmetry adapted cartesian basis functions of A'  symmetry.
 There are     8 symmetry adapted cartesian basis functions of A"  symmetry.
 There are    24 symmetry adapted basis functions of A'  symmetry.
 There are     8 symmetry adapted basis functions of A"  symmetry.
    32 basis functions,    60 primitive gaussians,    32 cartesian basis functions
     7 alpha electrons        7 beta electrons
       nuclear repulsion energy        27.5187272645 Hartrees.
 NAtoms=    3 NActive=    3 NUniq=    3 SFac= 1.00D+00 NAtFMM=   60 NAOKFM=F Big=F
 Integral buffers will be    131072 words long.
 Raffenetti 1 integral format.
 Two-electron integral symmetry is turned on.
 One-electron integrals computed using PRISM.
 NBasis=    32 RedAO= T EigKep=  4.12D-03  NBF=    24     8
 NBsUse=    32 1.00D-06 EigRej= -1.00D+00 NBFU=    24     8
 ExpMin= 1.61D-01 ExpMax= 4.17D+03 ExpMxC= 6.27D+02 IAcc=1 IRadAn=         1 AccDes= 0.00D+00
 Harris functional with IExCor=  205 and IRadAn=       1 diagonalized for initial guess.
 HarFok:  IExCor=  205 AccDes= 0.00D+00 IRadAn=         1 IDoV= 1 UseB2=F ITyADJ=14
 ICtDFT=  3500011 ScaDFX=  1.000000  1.000000  1.000000  1.000000
 FoFCou: FMM=F IPFlag=           0 FMFlag=      100000 FMFlg1=           0
         NFxFlg=           0 DoJE=T BraDBF=F KetDBF=T FulRan=T
         wScrn=  0.000000 ICntrl=     500 IOpCl=  0 I1Cent=   200000004 NGrid=           0
         NMat0=    1 NMatS0=      1 NMatT0=    0 NMatD0=    1 NMtDS0=    0 NMtDT0=    0
 Petite list used in FoFCou.
 Initial guess orbital symmetries:
       Occupied  (A') (A') (A') (A') (A") (A') (A')
       Virtual   (A') (A") (A') (A') (A") (A') (A') (A') (A') (A")
                 (A') (A') (A') (A") (A') (A") (A') (A") (A') (A')
                 (A") (A') (A') (A') (A')
 The electronic state of the initial guess is 1-A'.
 Keep R1 ints in memory in symmetry-blocked form, NReq=991971.
 Requested convergence on RMS density matrix=1.00D-08 within 128 cycles.
 Requested convergence on MAX density matrix=1.00D-06.
 Requested convergence on             energy=1.00D-06.
 No special actions if energy rises.
 SCF Done:  E(RHF) =  -92.7733846586     A.U. after   11 cycles
            NFock= 11  Conv=0.16D-08     -V/T= 1.9895

 **********************************************************************

            Population analysis using the SCF density.

 **********************************************************************

 Orbital symmetries:
       Occupied  (A') (A') (A') (A') (A') (A") (A')
       Virtual   (A') (A") (A') (A') (A') (A") (A') (A') (A') (A")
                 (A') (A') (A') (A") (A') (A") (A') (A") (A') (A')
                 (A") (A') (A') (A') (A')
 The electronic state is 1-A'.
 Alpha  occ. eigenvalues --  -15.58912 -11.21853  -1.33552  -0.88129  -0.57395
 Alpha  occ. eigenvalues --   -0.57385  -0.44289
 Alpha virt. eigenvalues --    0.21083   0.27472   0.27482   0.47062   0.74233
 Alpha virt. eigenvalues --    0.74265   0.80568   0.85376   1.03241   1.03286
 Alpha virt. eigenvalues --    1.20441   1.64692   1.73345   1.73353   1.80753
 Alpha virt. eigenvalues --    1.97803   2.00815   2.36703   2.36706   3.02081
 Alpha virt. eigenvalues --    3.06577   3.07659   3.95945   4.49131   4.60154
          Condensed to atoms (all electrons):
               1          2          3
     1  N    6.330835   0.720040   0.317398
     2  C    0.720040   5.361423  -0.032317
     3  H    0.317398  -0.032317   0.297499
 Mulliken charges:
               1
     1  N   -0.368273
     2  C   -0.049147
     3  H    0.417420
 Sum of Mulliken charges =   0.00000
 Mulliken charges with hydrogens summed into heavy atoms:
               1
     1  N    0.049147
     2  C   -0.049147
 Electronic spatial extent (au):  <R**2>=             42.5698
 Charge=              0.0000 electrons
 Dipole moment (field-independent basis, Debye):
    X=             -0.1777    Y=              3.4641    Z=              0.0000  Tot=              3.4687
 Quadrupole moment (field-independent basis, Debye-Ang):
   XX=            -11.0888   YY=            -10.0342   ZZ=            -11.1051
   XY=             -0.2300   XZ=              0.0000   YZ=              0.0000
 Traceless Quadrupole moment (field-independent basis, Debye-Ang):
   XX=             -0.3461   YY=              0.7085   ZZ=             -0.3624
   XY=             -0.2300   XZ=              0.0000   YZ=              0.0000
 Octapole moment (field-independent basis, Debye-Ang**2):
  XXX=             -0.1461  YYY=             12.8997  ZZZ=              0.0000  XYY=             -0.4037
  XXY=              1.2413  XXZ=              0.0000  XZZ=             -0.0483  YZZ=              1.2227
  YYZ=              0.0000  XYZ=              0.0000
 Hexadecapole moment (field-independent basis, Debye-Ang**3):
 XXXX=             -9.6993 YYYY=            -32.2912 ZZZZ=             -9.6856 XXXY=              0.1380
 XXXZ=              0.0000 YYYX=             -0.3032 YYYZ=              0.0000 ZZZX=              0.0000
 ZZZY=              0.0000 XXYY=             -7.5073 XXZZ=             -3.2308 YYZZ=             -7.5348
 XXYZ=              0.0000 YYXZ=              0.0000 ZZXY=              0.0466
 N-N= 2.751872726451D+01 E-N=-2.731079904433D+02  KE= 9.375405239404D+01
 Symmetry A'   KE= 9.069117800936D+01
 Symmetry A"   KE= 3.062874384672D+00
 Calling FoFJK, ICntrl=      2127 FMM=F ISym2X=1 I1Cent= 0 IOpClX= 0 NMat=1 NMatS=1 NMatT=0.
 ***** Axes restored to original set *****
 -------------------------------------------------------------------
 Center     Atomic                   Forces (Hartrees/Bohr)
 Number     Number              X              Y              Z
 -------------------------------------------------------------------
      1        7           0.008550372    0.000000000   -0.676399725
      2        6          -0.003412953    0.000000000    0.656837952
      3        1          -0.005137420    0.000000000    0.019561773
 -------------------------------------------------------------------
 Cartesian Forces:  Max     0.676399725 RMS     0.314368237

 GradGradGradGradGradGradGradGradGradGradGradGradGradGradGradGradGradGrad
 Berny optimization.
 FormGI is forming the generalized inverse of G from B-inverse, IUseBI=4.
 Internal  Forces:  Max     0.444671814 RMS     0.243599788
 Search for a local minimum.
 Step number   1 out of a maximum of   20 on scan point     1 out of    26
 All quantities printed in internal units (Hartrees-Bohrs-Radians)
 Mixed Optimization -- RFO/linear search
 Second derivative matrix not updated -- first step.
 The second derivative matrix:
                          R1        R2        R3        A1        A2
           R1           3.32740
           R2           0.00000   0.47688
           R3           0.00000   0.00000   0.04320
           A1           0.00000   0.00000   0.00000   0.01028
           A2           0.00000   0.00000   0.00000   0.00000   0.01028
 ITU=  0
     Eigenvalues ---    0.01028   1.902141000.000001000.000001000.00000
 RFO step:  Lambda=-1.13610669D-01 EMin= 1.02838210D-02
 Linear search not attempted -- first point.
 Iteration  1 RMS(Cart)=  0.06133677 RMS(Int)=  0.00020699
 Iteration  2 RMS(Cart)=  0.00015804 RMS(Int)=  0.00000733
 Iteration  3 RMS(Cart)=  0.00000001 RMS(Int)=  0.00000733
 Iteration  1 RMS(Cart)=  0.00000200 RMS(Int)=  0.00000244
 Iteration  2 RMS(Cart)=  0.00000066 RMS(Int)=  0.00000270
 ClnCor:  largest displacement from symmetrization is 2.22D-16 for atom     3.
 Variable       Old X    -DE/DX   Delta X   Delta X   Delta X     New X
                                 (Linear)    (Quad)   (Total)
    R1        1.88973   0.44467   0.00000   0.16787   0.16786   2.05758
    R2        1.88973  -0.23210   0.00000  -0.16787  -0.16788   1.72184
    R3        3.77586   0.21237   0.00000   0.00000   0.00000   3.77586
    A1        3.22886   0.00000   0.00000   0.00000   0.00000   3.22886
    A2        3.14159   0.00000   0.00000   0.00000   0.00000   3.14159
         Item               Value     Threshold  Converged?
 Maximum Force            0.338387     0.000015     NO 
 RMS     Force            0.239275     0.000010     NO 
 Maximum Displacement     0.111830     0.000060     NO 
 RMS     Displacement     0.061337     0.000040     NO 
 Predicted change in Energy=-6.001082D-02
 GradGradGradGradGradGradGradGradGradGradGradGradGradGradGradGradGradGrad

                          Input orientation:                          
 ---------------------------------------------------------------------
 Center     Atomic      Atomic             Coordinates (Angstroms)
 Number     Number       Type             X           Y           Z
 ---------------------------------------------------------------------
      1          7           0        0.002736    0.000000   -0.059178
      2          6           0       -0.000069    0.000000    1.029645
      3          1           0        0.084489    0.000000   -0.966662
 ---------------------------------------------------------------------
                    Distance matrix (angstroms):
                    1          2          3
     1  N    0.000000
     2  C    1.088826   0.000000
     3  H    0.911159   1.998097   0.000000
 Stoichiometry    CHN
 Framework group  CS[SG(CHN)]
 Deg. of freedom     3
 Full point group                 CS      NOp   2
 Largest Abelian subgroup         CS      NOp   2
 Largest concise Abelian subgroup C1      NOp   1
                         Standard orientation:                         
 ---------------------------------------------------------------------
 Center     Atomic      Atomic             Coordinates (Angstroms)
 Number     Number       Type             X           Y           Z
 ---------------------------------------------------------------------
      1          7           0        0.005672    0.401805    0.000000
      2          6           0        0.005672   -0.687022    0.000000
      3          1           0       -0.073741    1.309497    0.000000
 ---------------------------------------------------------------------
 Rotational constants (GHZ): 103408.7853563     52.6886822     52.6618500
 Standard basis: 6-31G(d) (6D, 7F)
 There are    24 symmetry adapted cartesian basis functions of A'  symmetry.
 There are     8 symmetry adapted cartesian basis functions of A"  symmetry.
 There are    24 symmetry adapted basis functions of A'  symmetry.
 There are     8 symmetry adapted basis functions of A"  symmetry.
    32 basis functions,    60 primitive gaussians,    32 cartesian basis functions
     7 alpha electrons        7 beta electrons
       nuclear repulsion energy        26.0667517391 Hartrees.
 NAtoms=    3 NActive=    3 NUniq=    3 SFac= 1.00D+00 NAtFMM=   60 NAOKFM=F Big=F
 Integral buffers will be    131072 words long.
 Raffenetti 1 integral format.
 Two-electron integral symmetry is turned on.
 One-electron integrals computed using PRISM.
 NBasis=    32 RedAO= T EigKep=  5.79D-03  NBF=    24     8
 NBsUse=    32 1.00D-06 EigRej= -1.00D+00 NBFU=    24     8
 Initial guess from the checkpoint file:  "/home/maxb2/HNC.chk"
 B after Tr=     0.000000    0.000000    0.000000
         Rot=    1.000000    0.000000    0.000000    0.000611 Ang=   0.07 deg.
 Initial guess orbital symmetries:
       Occupied  (A') (A') (A') (A') (A') (A") (A')
       Virtual   (A') (A') (A') (A') (A') (A') (A') (A') (A') (A')
                 (A') (A') (A') (A') (A') (A') (A') (A') (A") (A")
                 (A") (A") (A") (A") (A")
 ExpMin= 1.61D-01 ExpMax= 4.17D+03 ExpMxC= 6.27D+02 IAcc=1 IRadAn=         1 AccDes= 0.00D+00
 Harris functional with IExCor=  205 and IRadAn=       1 diagonalized for initial guess.
 HarFok:  IExCor=  205 AccDes= 0.00D+00 IRadAn=         1 IDoV= 1 UseB2=F ITyADJ=14
 ICtDFT=  3500011 ScaDFX=  1.000000  1.000000  1.000000  1.000000
 FoFCou: FMM=F IPFlag=           0 FMFlag=      100000 FMFlg1=           0
         NFxFlg=           0 DoJE=T BraDBF=F KetDBF=T FulRan=T
         wScrn=  0.000000 ICntrl=     500 IOpCl=  0 I1Cent=   200000004 NGrid=           0
         NMat0=    1 NMatS0=      1 NMatT0=    0 NMatD0=    1 NMtDS0=    0 NMtDT0=    0
 Petite list used in FoFCou.
 Keep R1 ints in memory in symmetry-blocked form, NReq=991898.
 Requested convergence on RMS density matrix=1.00D-08 within 128 cycles.
 Requested convergence on MAX density matrix=1.00D-06.
 Requested convergence on             energy=1.00D-06.
 No special actions if energy rises.
 SCF Done:  E(RHF) =  -92.8366887999     A.U. after   12 cycles
            NFock= 12  Conv=0.23D-08     -V/T= 1.9955
 Calling FoFJK, ICntrl=      2127 FMM=F ISym2X=1 I1Cent= 0 IOpClX= 0 NMat=1 NMatS=1 NMatT=0.
 ***** Axes restored to original set *****
 -------------------------------------------------------------------
 Center     Atomic                   Forces (Hartrees/Bohr)
 Number     Number              X              Y              Z
 -------------------------------------------------------------------
      1        7          -0.003743873    0.000000000   -0.105127355
      2        6          -0.002741253    0.000000000    0.206536117
      3        1           0.006485126    0.000000000   -0.101408762
 -------------------------------------------------------------------
 Cartesian Forces:  Max     0.206536117 RMS     0.084364456

 GradGradGradGradGradGradGradGradGradGradGradGradGradGradGradGradGradGrad
 Berny optimization.
 Using GEDIIS/GDIIS optimizer.
 FormGI is forming the generalized inverse of G from B-inverse, IUseBI=4.
 Internal  Forces:  Max     0.103896350 RMS     0.065346295
 Search for a local minimum.
 Step number   2 out of a maximum of   20 on scan point     1 out of    26
 All quantities printed in internal units (Hartrees-Bohrs-Radians)
 Mixed Optimization -- RFO/linear search
 Update second derivatives using D2CorX and points    1    2
 DE= -6.33D-02 DEPred=-6.00D-02 R= 1.05D+00
 TightC=F SS=  1.41D+00  RLast= 2.37D-01 DXNew= 5.0454D-01 7.1222D-01
 Trust test= 1.05D+00 RLast= 2.37D-01 DXMaxT set to 5.05D-01
 The second derivative matrix:
                          R1        R2        R3        A1        A2
           R1           1.62700
           R2          -0.40308   0.97321
           R3           0.38920  -0.26388   0.16841
           A1          -0.00109   0.00074  -0.00035   0.01028
           A2           0.00000   0.00000   0.00000   0.00000   0.01028
 ITU=  1  0
 Use linear search instead of GDIIS.
     Eigenvalues ---    0.01028   1.703201000.000001000.000001000.00000
 RFO step:  Lambda=-8.82008130D-07 EMin= 1.02838210D-02
 Quartic linear search produced a step of  0.22113.
 Iteration  1 RMS(Cart)=  0.01356305 RMS(Int)=  0.00001100
 Iteration  2 RMS(Cart)=  0.00000770 RMS(Int)=  0.00000428
 Iteration  3 RMS(Cart)=  0.00000000 RMS(Int)=  0.00000428
 Iteration  1 RMS(Cart)=  0.00000090 RMS(Int)=  0.00000110
 ClnCor:  largest displacement from symmetrization is 8.89D-16 for atom     3.
 Variable       Old X    -DE/DX   Delta X   Delta X   Delta X     New X
                                 (Linear)    (Quad)   (Total)
    R1        2.05758   0.10390   0.03712  -0.00001   0.03711   2.09470
    R2        1.72184  -0.00105  -0.03712  -0.00001  -0.03713   1.68471
    R3        3.77586   0.10274   0.00000   0.00000   0.00000   3.77585
    A1        3.22886   0.00031   0.00000   0.00000   0.00000   3.22886
    A2        3.14159   0.00000   0.00000   0.00000   0.00000   3.14159
         Item               Value     Threshold  Converged?
 Maximum Force            0.052484     0.000015     NO 
 RMS     Force            0.037109     0.000010     NO 
 Maximum Displacement     0.024725     0.000060     NO 
 RMS     Displacement     0.013563     0.000040     NO 
 Predicted change in Energy=-1.548045D-03
 GradGradGradGradGradGradGradGradGradGradGradGradGradGradGradGradGradGrad

                          Input orientation:                          
 ---------------------------------------------------------------------
 Center     Atomic      Atomic             Coordinates (Angstroms)
 Number     Number       Type             X           Y           Z
 ---------------------------------------------------------------------
      1          7           0        0.003383    0.000000   -0.072261
      2          6           0       -0.000105    0.000000    1.036198
      3          1           0        0.083878    0.000000   -0.960132
 ---------------------------------------------------------------------
                    Distance matrix (angstroms):
                    1          2          3
     1  N    0.000000
     2  C    1.108465   0.000000
     3  H    0.891512   1.998096   0.000000
 Stoichiometry    CHN
 Framework group  CS[SG(CHN)]
 Deg. of freedom     3
 Full point group                 CS      NOp   2
 Largest Abelian subgroup         CS      NOp   2
 Largest concise Abelian subgroup C1      NOp   1
                         Standard orientation:                         
 ---------------------------------------------------------------------
 Center     Atomic      Atomic             Coordinates (Angstroms)
 Number     Number       Type             X           Y           Z
 ---------------------------------------------------------------------
      1          7           0        0.005550    0.411619    0.000000
      2          6           0        0.005550   -0.696846    0.000000
      3          1           0       -0.072151    1.299739    0.000000
 ---------------------------------------------------------------------
 Rotational constants (GHZ): 106940.7880140     51.3497288     51.3250840
 Standard basis: 6-31G(d) (6D, 7F)
 There are    24 symmetry adapted cartesian basis functions of A'  symmetry.
 There are     8 symmetry adapted cartesian basis functions of A"  symmetry.
 There are    24 symmetry adapted basis functions of A'  symmetry.
 There are     8 symmetry adapted basis functions of A"  symmetry.
    32 basis functions,    60 primitive gaussians,    32 cartesian basis functions
     7 alpha electrons        7 beta electrons
       nuclear repulsion energy        25.7947002598 Hartrees.
 NAtoms=    3 NActive=    3 NUniq=    3 SFac= 1.00D+00 NAtFMM=   60 NAOKFM=F Big=F
 Integral buffers will be    131072 words long.
 Raffenetti 1 integral format.
 Two-electron integral symmetry is turned on.
 One-electron integrals computed using PRISM.
 NBasis=    32 RedAO= T EigKep=  6.24D-03  NBF=    24     8
 NBsUse=    32 1.00D-06 EigRej= -1.00D+00 NBFU=    24     8
 Initial guess from the checkpoint file:  "/home/maxb2/HNC.chk"
 B after Tr=     0.000000    0.000000    0.000000
         Rot=    1.000000    0.000000    0.000000    0.000128 Ang=   0.01 deg.
 Initial guess orbital symmetries:
       Occupied  (A') (A') (A') (A') (A') (A") (A')
       Virtual   (A') (A') (A') (A') (A') (A') (A') (A') (A') (A')
                 (A') (A') (A') (A') (A') (A') (A') (A') (A") (A")
                 (A") (A") (A") (A") (A")
 ExpMin= 1.61D-01 ExpMax= 4.17D+03 ExpMxC= 6.27D+02 IAcc=1 IRadAn=         1 AccDes= 0.00D+00
 Harris functional with IExCor=  205 and IRadAn=       1 diagonalized for initial guess.
 HarFok:  IExCor=  205 AccDes= 0.00D+00 IRadAn=         1 IDoV= 1 UseB2=F ITyADJ=14
 ICtDFT=  3500011 ScaDFX=  1.000000  1.000000  1.000000  1.000000
 FoFCou: FMM=F IPFlag=           0 FMFlag=      100000 FMFlg1=           0
         NFxFlg=           0 DoJE=T BraDBF=F KetDBF=T FulRan=T
         wScrn=  0.000000 ICntrl=     500 IOpCl=  0 I1Cent=   200000004 NGrid=           0
         NMat0=    1 NMatS0=      1 NMatT0=    0 NMatD0=    1 NMtDS0=    0 NMtDT0=    0
 Petite list used in FoFCou.
 Keep R1 ints in memory in symmetry-blocked form, NReq=991884.
 Requested convergence on RMS density matrix=1.00D-08 within 128 cycles.
 Requested convergence on MAX density matrix=1.00D-06.
 Requested convergence on             energy=1.00D-06.
 No special actions if energy rises.
 SCF Done:  E(RHF) =  -92.8385526099     A.U. after   10 cycles
            NFock= 10  Conv=0.50D-08     -V/T= 1.9964
 Calling FoFJK, ICntrl=      2127 FMM=F ISym2X=1 I1Cent= 0 IOpClX= 0 NMat=1 NMatS=1 NMatT=0.
 ***** Axes restored to original set *****
 -------------------------------------------------------------------
 Center     Atomic                   Forces (Hartrees/Bohr)
 Number     Number              X              Y              Z
 -------------------------------------------------------------------
      1        7          -0.007647814    0.000000000    0.003411743
      2        6          -0.002400075    0.000000000    0.134634449
      3        1           0.010047889    0.000000000   -0.138046192
 -------------------------------------------------------------------
 Cartesian Forces:  Max     0.138046192 RMS     0.064429148

 GradGradGradGradGradGradGradGradGradGradGradGradGradGradGradGradGradGrad
 Berny optimization.
 Using GEDIIS/GDIIS optimizer.
 FormGI is forming the generalized inverse of G from B-inverse, IUseBI=4.
 Internal  Forces:  Max     0.091039755 RMS     0.049894057
 Search for a local minimum.
 Step number   3 out of a maximum of   20 on scan point     1 out of    26
 All quantities printed in internal units (Hartrees-Bohrs-Radians)
 Mixed Optimization -- RFO/linear search
 Update second derivatives using D2CorX and points    1    2    3
 DE= -1.86D-03 DEPred=-1.55D-03 R= 1.20D+00
 TightC=F SS=  1.41D+00  RLast= 5.25D-02 DXNew= 8.4853D-01 1.5749D-01
 Trust test= 1.20D+00 RLast= 5.25D-02 DXMaxT set to 5.05D-01
 The second derivative matrix:
                          R1        R2        R3        A1        A2
           R1           1.31590
           R2          -0.30647   0.99979
           R3           0.17458  -0.14057   0.07712
           A1           0.00541  -0.00435   0.00105   0.01032
           A2           0.00000   0.00000   0.00000   0.00000   0.01028
 ITU=  1  1  0
 Use linear search instead of GDIIS.
     Eigenvalues ---    0.01028   1.464381000.000001000.000001000.00000
 RFO step:  Lambda= 0.00000000D+00 EMin= 1.02838210D-02
 Quartic linear search produced a step of -0.03550.
 Iteration  1 RMS(Cart)=  0.00048142 RMS(Int)=  0.00000010
 Iteration  2 RMS(Cart)=  0.00000001 RMS(Int)=  0.00000009
 Iteration  1 RMS(Cart)=  0.00000025 RMS(Int)=  0.00000031
 ClnCor:  largest displacement from symmetrization is 2.22D-16 for atom     2.
 Variable       Old X    -DE/DX   Delta X   Delta X   Delta X     New X
                                 (Linear)    (Quad)   (Total)
    R1        2.09470   0.04368  -0.00132   0.00000  -0.00132   2.09338
    R2        1.68471   0.04744   0.00132   0.00000   0.00132   1.68603
    R3        3.77585   0.09104   0.00000   0.00000   0.00000   3.77585
    A1        3.22886  -0.00005   0.00000   0.00000   0.00000   3.22886
    A2        3.14159   0.00000   0.00000   0.00000   0.00000   3.14159
         Item               Value     Threshold  Converged?
 Maximum Force            0.001875     0.000015     NO 
 RMS     Force            0.001325     0.000010     NO 
 Maximum Displacement     0.000878     0.000060     NO 
 RMS     Displacement     0.000481     0.000040     NO 
 Predicted change in Energy=-2.574912D-06
 GradGradGradGradGradGradGradGradGradGradGradGradGradGradGradGradGradGrad

                          Input orientation:                          
 ---------------------------------------------------------------------
 Center     Atomic      Atomic             Coordinates (Angstroms)
 Number     Number       Type             X           Y           Z
 ---------------------------------------------------------------------
      1          7           0        0.003359    0.000000   -0.071797
      2          6           0       -0.000103    0.000000    1.035966
      3          1           0        0.083900    0.000000   -0.960364
 ---------------------------------------------------------------------
                    Distance matrix (angstroms):
                    1          2          3
     1  N    0.000000
     2  C    1.107768   0.000000
     3  H    0.892209   1.998096   0.000000
 Stoichiometry    CHN
 Framework group  CS[SG(CHN)]
 Deg. of freedom     3
 Full point group                 CS      NOp   2
 Largest Abelian subgroup         CS      NOp   2
 Largest concise Abelian subgroup C1      NOp   1
                         Standard orientation:                         
 ---------------------------------------------------------------------
 Center     Atomic      Atomic             Coordinates (Angstroms)
 Number     Number       Type             X           Y           Z
 ---------------------------------------------------------------------
      1          7           0        0.005554    0.411271    0.000000
      2          6           0        0.005554   -0.696497    0.000000
      3          1           0       -0.072208    1.300085    0.000000
 ---------------------------------------------------------------------
 Rotational constants (GHZ): 106810.7017803     51.3965296     51.3718099
 Standard basis: 6-31G(d) (6D, 7F)
 There are    24 symmetry adapted cartesian basis functions of A'  symmetry.
 There are     8 symmetry adapted cartesian basis functions of A"  symmetry.
 There are    24 symmetry adapted basis functions of A'  symmetry.
 There are     8 symmetry adapted basis functions of A"  symmetry.
    32 basis functions,    60 primitive gaussians,    32 cartesian basis functions
     7 alpha electrons        7 beta electrons
       nuclear repulsion energy        25.8040633254 Hartrees.
 NAtoms=    3 NActive=    3 NUniq=    3 SFac= 1.00D+00 NAtFMM=   60 NAOKFM=F Big=F
 Integral buffers will be    131072 words long.
 Raffenetti 1 integral format.
 Two-electron integral symmetry is turned on.
 One-electron integrals computed using PRISM.
 NBasis=    32 RedAO= T EigKep=  6.23D-03  NBF=    24     8
 NBsUse=    32 1.00D-06 EigRej= -1.00D+00 NBFU=    24     8
 Initial guess from the checkpoint file:  "/home/maxb2/HNC.chk"
 B after Tr=     0.000000    0.000000    0.000000
         Rot=    1.000000    0.000000    0.000000   -0.000004 Ang=   0.00 deg.
 Initial guess orbital symmetries:
       Occupied  (A') (A') (A') (A') (A') (A") (A')
       Virtual   (A') (A') (A') (A') (A') (A') (A') (A') (A') (A')
                 (A') (A') (A') (A') (A') (A') (A') (A') (A") (A")
                 (A") (A") (A") (A") (A")
 Keep R1 ints in memory in symmetry-blocked form, NReq=991884.
 Requested convergence on RMS density matrix=1.00D-08 within 128 cycles.
 Requested convergence on MAX density matrix=1.00D-06.
 Requested convergence on             energy=1.00D-06.
 No special actions if energy rises.
 SCF Done:  E(RHF) =  -92.8385552626     A.U. after    8 cycles
            NFock=  8  Conv=0.30D-08     -V/T= 1.9963
 Calling FoFJK, ICntrl=      2127 FMM=F ISym2X=1 I1Cent= 0 IOpClX= 0 NMat=1 NMatS=1 NMatT=0.
 ***** Axes restored to original set *****
 -------------------------------------------------------------------
 Center     Atomic                   Forces (Hartrees/Bohr)
 Number     Number              X              Y              Z
 -------------------------------------------------------------------
      1        7          -0.007500845    0.000000000   -0.000375431
      2        6          -0.002412965    0.000000000    0.137045932
      3        1           0.009913810    0.000000000   -0.136670501
 -------------------------------------------------------------------
 Cartesian Forces:  Max     0.137045932 RMS     0.064653712

 GradGradGradGradGradGradGradGradGradGradGradGradGradGradGradGradGradGrad
 Berny optimization.
 Using GEDIIS/GDIIS optimizer.
 FormGI is forming the generalized inverse of G from B-inverse, IUseBI=4.
 Internal  Forces:  Max     0.091382828 RMS     0.050067945
 Search for a local minimum.
 Step number   4 out of a maximum of   20 on scan point     1 out of    26
 All quantities printed in internal units (Hartrees-Bohrs-Radians)
 Mixed Optimization -- En-DIIS/RFO-DIIS
 Update second derivatives using D2CorX and points    1    2    3    4
 DE= -2.65D-06 DEPred=-2.57D-06 R= 1.03D+00
 TightC=F SS=  1.41D+00  RLast= 1.86D-03 DXNew= 8.4853D-01 5.5900D-03
 Trust test= 1.03D+00 RLast= 1.86D-03 DXMaxT set to 5.05D-01
 The second derivative matrix:
                          R1        R2        R3        A1        A2
           R1           1.27402
           R2          -0.29675   1.01201
           R3           0.14209  -0.11836   0.06676
           A1           0.00642  -0.00535   0.00106   0.01033
           A2           0.00000   0.00000   0.00000   0.00000   0.01028
 ITU=  1  1  1  0
 Use linear search instead of GDIIS.
     Eigenvalues ---    0.01028   1.439841000.000001000.000001000.00000
 RFO step:  Lambda= 0.00000000D+00 EMin= 1.02838210D-02
 Quartic linear search produced a step of  0.02274.
 Iteration  1 RMS(Cart)=  0.00001095 RMS(Int)=  0.00000000
 Iteration  2 RMS(Cart)=  0.00000000 RMS(Int)=  0.00000000
 Iteration  1 RMS(Cart)=  0.00000008 RMS(Int)=  0.00000010
 ClnCor:  largest displacement from symmetrization is 8.89D-16 for atom     3.
 Variable       Old X    -DE/DX   Delta X   Delta X   Delta X     New X
                                 (Linear)    (Quad)   (Total)
    R1        2.09338   0.04575  -0.00003   0.00000  -0.00003   2.09335
    R2        1.68603   0.04572   0.00003   0.00000   0.00003   1.68606
    R3        3.77585   0.09138   0.00000   0.00000   0.00000   3.77585
    A1        3.22886  -0.00004   0.00000   0.00000   0.00000   3.22886
    A2        3.14159   0.00000   0.00000   0.00000   0.00000   3.14159
         Item               Value     Threshold  Converged?
 Maximum Force            0.000022     0.000015     NO 
 RMS     Force            0.000016     0.000010     NO 
 Maximum Displacement     0.000020     0.000060     YES
 RMS     Displacement     0.000011     0.000040     YES
 Predicted change in Energy=-3.606878D-08
 GradGradGradGradGradGradGradGradGradGradGradGradGradGradGradGradGradGrad

                          Input orientation:                          
 ---------------------------------------------------------------------
 Center     Atomic      Atomic             Coordinates (Angstroms)
 Number     Number       Type             X           Y           Z
 ---------------------------------------------------------------------
      1          7           0        0.003359    0.000000   -0.071786
      2          6           0       -0.000103    0.000000    1.035961
      3          1           0        0.083900    0.000000   -0.960369
 ---------------------------------------------------------------------
                    Distance matrix (angstroms):
                    1          2          3
     1  N    0.000000
     2  C    1.107753   0.000000
     3  H    0.892225   1.998096   0.000000
 Stoichiometry    CHN
 Framework group  CS[SG(CHN)]
 Deg. of freedom     3
 Full point group                 CS      NOp   2
 Largest Abelian subgroup         CS      NOp   2
 Largest concise Abelian subgroup C1      NOp   1
                         Standard orientation:                         
 ---------------------------------------------------------------------
 Center     Atomic      Atomic             Coordinates (Angstroms)
 Number     Number       Type             X           Y           Z
 ---------------------------------------------------------------------
      1          7           0        0.005555    0.411263    0.000000
      2          6           0        0.005555   -0.696489    0.000000
      3          1           0       -0.072209    1.300093    0.000000
 ---------------------------------------------------------------------
 Rotational constants (GHZ): 106807.7554046     51.3975880     51.3728666
 Standard basis: 6-31G(d) (6D, 7F)
 There are    24 symmetry adapted cartesian basis functions of A'  symmetry.
 There are     8 symmetry adapted cartesian basis functions of A"  symmetry.
 There are    24 symmetry adapted basis functions of A'  symmetry.
 There are     8 symmetry adapted basis functions of A"  symmetry.
    32 basis functions,    60 primitive gaussians,    32 cartesian basis functions
     7 alpha electrons        7 beta electrons
       nuclear repulsion energy        25.8042748375 Hartrees.
 NAtoms=    3 NActive=    3 NUniq=    3 SFac= 1.00D+00 NAtFMM=   60 NAOKFM=F Big=F
 Integral buffers will be    131072 words long.
 Raffenetti 1 integral format.
 Two-electron integral symmetry is turned on.
 One-electron integrals computed using PRISM.
 NBasis=    32 RedAO= T EigKep=  6.23D-03  NBF=    24     8
 NBsUse=    32 1.00D-06 EigRej= -1.00D+00 NBFU=    24     8
 Initial guess from the checkpoint file:  "/home/maxb2/HNC.chk"
 B after Tr=     0.000000    0.000000    0.000000
         Rot=    1.000000    0.000000    0.000000    0.000000 Ang=   0.00 deg.
 Initial guess orbital symmetries:
       Occupied  (A') (A') (A') (A') (A') (A") (A')
       Virtual   (A') (A') (A') (A') (A') (A') (A') (A') (A') (A')
                 (A') (A') (A') (A') (A') (A') (A') (A') (A") (A")
                 (A") (A") (A") (A") (A")
 Keep R1 ints in memory in symmetry-blocked form, NReq=991884.
 Requested convergence on RMS density matrix=1.00D-08 within 128 cycles.
 Requested convergence on MAX density matrix=1.00D-06.
 Requested convergence on             energy=1.00D-06.
 No special actions if energy rises.
 SCF Done:  E(RHF) =  -92.8385552994     A.U. after    5 cycles
            NFock=  5  Conv=0.36D-08     -V/T= 1.9963
 Calling FoFJK, ICntrl=      2127 FMM=F ISym2X=1 I1Cent= 0 IOpClX= 0 NMat=1 NMatS=1 NMatT=0.
 ***** Axes restored to original set *****
 -------------------------------------------------------------------
 Center     Atomic                   Forces (Hartrees/Bohr)
 Number     Number              X              Y              Z
 -------------------------------------------------------------------
      1        7          -0.007497499    0.000000000   -0.000461491
      2        6          -0.002413259    0.000000000    0.137100651
      3        1           0.009910758    0.000000000   -0.136639160
 -------------------------------------------------------------------
 Cartesian Forces:  Max     0.137100651 RMS     0.064659210

 GradGradGradGradGradGradGradGradGradGradGradGradGradGradGradGradGradGrad
 Berny optimization.
 Using GEDIIS/GDIIS optimizer.
 Internal  Forces:  Max     0.091390572 RMS     0.050072203
 Search for a local minimum.
 Step number   5 out of a maximum of   20 on scan point     1 out of    26
 All quantities printed in internal units (Hartrees-Bohrs-Radians)
 Mixed Optimization -- En-DIIS/RFO-DIIS
 Swapping is turned off.
 Update second derivatives using D2CorX and points    1    2    3    4    5
 DE= -3.68D-08 DEPred=-3.61D-08 R= 1.02D+00
 Trust test= 1.02D+00 RLast= 4.24D-05 DXMaxT set to 5.05D-01
 The second derivative matrix:
                          R1        R2        R3        A1        A2
           R1           1.27736
           R2          -0.29689   1.00996
           R3           0.14166  -0.11754   0.06652
           A1           0.00617  -0.00512   0.00102   0.01033
           A2           0.00000   0.00000   0.00000   0.00000   0.01028
 ITU=  0  1  1  1  0
     Eigenvalues ---    0.01028   1.440631000.000001000.000001000.00000
 En-DIIS/RFO-DIIS IScMMF=        0 using points:     5    4
 RFO step:  Lambda=-3.96434019D-04.
 DidBck=T Rises=F RFO-DIIS coefs:   -0.92986    1.92986
 Iteration  1 RMS(Cart)=  0.00001914 RMS(Int)=  0.00002358
 Iteration  2 RMS(Cart)=  0.00000000 RMS(Int)=  0.00002358
 Iteration  1 RMS(Cart)=  0.00000628 RMS(Int)=  0.00000768
 Iteration  2 RMS(Cart)=  0.00000209 RMS(Int)=  0.00000849
 Iteration  3 RMS(Cart)=  0.00000070 RMS(Int)=  0.00000907
 ClnCor:  largest displacement from symmetrization is 1.33D-15 for atom     3.
 Variable       Old X    -DE/DX   Delta X   Delta X   Delta X     New X
                                 (Linear)    (Quad)   (Total)
    R1        2.09335   0.04580   0.00006   0.00003   0.00005   2.09340
    R2        1.68606   0.04568  -0.00006   0.00006  -0.00004   1.68602
    R3        3.77585   0.09139   0.00000   0.00000   0.00000   3.77586
    A1        3.22886  -0.00004   0.00000   0.00000   0.00000   3.22886
    A2        3.14159   0.00000   0.00000   0.00000   0.00000   3.14159
         Item               Value     Threshold  Converged?
 Maximum Force            0.000065     0.000015     NO 
 RMS     Force            0.000046     0.000010     NO 
 Maximum Displacement     0.000030     0.000060     YES
 RMS     Displacement     0.000017     0.000040     YES
 Predicted change in Energy=-1.826220D-07
 GradGradGradGradGradGradGradGradGradGradGradGradGradGradGradGradGradGrad

                          Input orientation:                          
 ---------------------------------------------------------------------
 Center     Atomic      Atomic             Coordinates (Angstroms)
 Number     Number       Type             X           Y           Z
 ---------------------------------------------------------------------
      1          7           0        0.003359    0.000000   -0.071803
      2          6           0       -0.000103    0.000000    1.035969
      3          1           0        0.083900    0.000000   -0.960361
 ---------------------------------------------------------------------
                    Distance matrix (angstroms):
                    1          2          3
     1  N    0.000000
     2  C    1.107777   0.000000
     3  H    0.892202   1.998097   0.000000
 Stoichiometry    CHN
 Framework group  CS[SG(CHN)]
 Deg. of freedom     3
 Full point group                 CS      NOp   2
 Largest Abelian subgroup         CS      NOp   2
 Largest concise Abelian subgroup C1      NOp   1
                         Standard orientation:                         
 ---------------------------------------------------------------------
 Center     Atomic      Atomic             Coordinates (Angstroms)
 Number     Number       Type             X           Y           Z
 ---------------------------------------------------------------------
      1          7           0        0.005555    0.411275    0.000000
      2          6           0        0.005555   -0.696502    0.000000
      3          1           0       -0.072210    1.300082    0.000000
 ---------------------------------------------------------------------
 Rotational constants (GHZ): 106803.5242710     51.3959359     51.3712151
 Standard basis: 6-31G(d) (6D, 7F)
 There are    24 symmetry adapted cartesian basis functions of A'  symmetry.
 There are     8 symmetry adapted cartesian basis functions of A"  symmetry.
 There are    24 symmetry adapted basis functions of A'  symmetry.
 There are     8 symmetry adapted basis functions of A"  symmetry.
    32 basis functions,    60 primitive gaussians,    32 cartesian basis functions
     7 alpha electrons        7 beta electrons
       nuclear repulsion energy        25.8039414270 Hartrees.
 NAtoms=    3 NActive=    3 NUniq=    3 SFac= 1.00D+00 NAtFMM=   60 NAOKFM=F Big=F
 Integral buffers will be    131072 words long.
 Raffenetti 1 integral format.
 Two-electron integral symmetry is turned on.
 One-electron integrals computed using PRISM.
 NBasis=    32 RedAO= T EigKep=  6.23D-03  NBF=    24     8
 NBsUse=    32 1.00D-06 EigRej= -1.00D+00 NBFU=    24     8
 Initial guess from the checkpoint file:  "/home/maxb2/HNC.chk"
 B after Tr=     0.000000    0.000000    0.000000
         Rot=    1.000000    0.000000    0.000000    0.000000 Ang=   0.00 deg.
 Initial guess orbital symmetries:
       Occupied  (A') (A') (A') (A') (A') (A") (A')
       Virtual   (A') (A') (A') (A') (A') (A') (A') (A') (A') (A')
                 (A') (A') (A') (A') (A') (A') (A') (A') (A") (A")
                 (A") (A") (A") (A") (A")
 Keep R1 ints in memory in symmetry-blocked form, NReq=991884.
 Requested convergence on RMS density matrix=1.00D-08 within 128 cycles.
 Requested convergence on MAX density matrix=1.00D-06.
 Requested convergence on             energy=1.00D-06.
 No special actions if energy rises.
 SCF Done:  E(RHF) =  -92.8385554926     A.U. after    5 cycles
            NFock=  5  Conv=0.55D-08     -V/T= 1.9963
 Calling FoFJK, ICntrl=      2127 FMM=F ISym2X=1 I1Cent= 0 IOpClX= 0 NMat=1 NMatS=1 NMatT=0.
 ***** Axes restored to original set *****
 -------------------------------------------------------------------
 Center     Atomic                   Forces (Hartrees/Bohr)
 Number     Number              X              Y              Z
 -------------------------------------------------------------------
      1        7          -0.007502824    0.000000000   -0.000330134
      2        6          -0.002412662    0.000000000    0.137015895
      3        1           0.009915486    0.000000000   -0.136685761
 -------------------------------------------------------------------
 Cartesian Forces:  Max     0.137015895 RMS     0.064650249

 GradGradGradGradGradGradGradGradGradGradGradGradGradGradGradGradGradGrad
 Berny optimization.
 Using GEDIIS/GDIIS optimizer.
 Internal  Forces:  Max     0.091377933 RMS     0.050065261
 Search for a local minimum.
 Step number   6 out of a maximum of   20 on scan point     1 out of    26
 All quantities printed in internal units (Hartrees-Bohrs-Radians)
 Mixed Optimization -- En-DIIS/RFO-DIIS
 Swapping is turned off.
 Update second derivatives using D2CorX and points    1    2    3    5    6
 DE= -1.93D-07 DEPred=-1.83D-07 R= 1.06D+00
 Trust test= 1.06D+00 RLast= 6.44D-05 DXMaxT set to 5.05D-01
 The second derivative matrix:
                          R1        R2        R3        A1        A2
           R1           1.26782
           R2          -0.29768   1.01781
           R3           0.14986  -0.12570   0.06958
           A1           0.00569  -0.00480   0.00101   0.01032
           A2           0.00000   0.00000   0.00000   0.00000   0.01028
 ITU=  0  0  1  1  1  0
     Eigenvalues ---    0.01028   1.440561000.000001000.000001000.00000
 En-DIIS/RFO-DIIS IScMMF=        0 using points:     6    5    4
 RFO step:  Lambda=-3.96317246D-04.
 DidBck=F Rises=F RFO-DIIS coefs:    1.28297   -0.28297    0.00000
 Iteration  1 RMS(Cart)=  0.00000983 RMS(Int)=  0.00002358
 Iteration  2 RMS(Cart)=  0.00000000 RMS(Int)=  0.00002358
 Iteration  1 RMS(Cart)=  0.00000672 RMS(Int)=  0.00000823
 Iteration  2 RMS(Cart)=  0.00000224 RMS(Int)=  0.00000909
 Iteration  3 RMS(Cart)=  0.00000075 RMS(Int)=  0.00000972
 ClnCor:  largest displacement from symmetrization is 4.45D-16 for atom     3.
 Variable       Old X    -DE/DX   Delta X   Delta X   Delta X     New X
                                 (Linear)    (Quad)   (Total)
    R1        2.09340   0.04573   0.00001   0.00003   0.00000   2.09340
    R2        1.68602   0.04574  -0.00001   0.00006   0.00000   1.68602
    R3        3.77586   0.09138   0.00000   0.00000   0.00000   3.77586
    A1        3.22886  -0.00004   0.00000   0.00000   0.00000   3.22887
    A2        3.14159   0.00000   0.00000   0.00000   0.00000   3.14159
         Item               Value     Threshold  Converged?
 Maximum Force            0.000000     0.000015     YES
 RMS     Force            0.000000     0.000010     YES
 Maximum Displacement     0.000003     0.000060     YES
 RMS     Displacement     0.000002     0.000040     YES
 Predicted change in Energy=-2.757849D-08
 Optimization completed.
    -- Stationary point found.
                           ----------------------------
                           !   Optimized Parameters   !
                           ! (Angstroms and Degrees)  !
 --------------------------                            --------------------------
 ! Name  Definition              Value          Derivative Info.                !
 --------------------------------------------------------------------------------
 ! R1    R(1,2)                  1.1078         -DE/DX =    0.0457              !
 ! R2    R(1,3)                  0.8922         -DE/DX =    0.0457              !
 ! R3    R(2,3)                  1.9981         -DE/DX =    0.0914              !
 ! A1    L(2,1,3,-2,-1)        185.0003         -DE/DX =    0.0                 !
 ! A2    L(2,1,3,-1,-2)        180.0            -DE/DX =    0.0                 !
 --------------------------------------------------------------------------------
 Iteration  1 RMS(Cart)=  0.03986411 RMS(Int)=  0.04877075
 Iteration  2 RMS(Cart)=  0.00001830 RMS(Int)=  0.04877074
 Iteration  3 RMS(Cart)=  0.00000104 RMS(Int)=  0.04877074
 Iteration  4 RMS(Cart)=  0.00000006 RMS(Int)=  0.04877074
 Iteration  1 RMS(Cart)=  0.01327546 RMS(Int)=  0.01624278
 Iteration  2 RMS(Cart)=  0.00442121 RMS(Int)=  0.01795640
 Iteration  3 RMS(Cart)=  0.00147247 RMS(Int)=  0.01918250
 Iteration  4 RMS(Cart)=  0.00049041 RMS(Int)=  0.01964739
 Iteration  5 RMS(Cart)=  0.00016333 RMS(Int)=  0.01980789
 Iteration  6 RMS(Cart)=  0.00005440 RMS(Int)=  0.01986195
 Iteration  7 RMS(Cart)=  0.00001812 RMS(Int)=  0.01988002
 Iteration  8 RMS(Cart)=  0.00000603 RMS(Int)=  0.01988604
 Iteration  9 RMS(Cart)=  0.00000201 RMS(Int)=  0.01988805
 Iteration 10 RMS(Cart)=  0.00000067 RMS(Int)=  0.01988872
 GradGradGradGradGradGradGradGradGradGradGradGradGradGradGradGradGradGrad

                          Input orientation:                          
 ---------------------------------------------------------------------
 Center     Atomic      Atomic             Coordinates (Angstroms)
 Number     Number       Type             X           Y           Z
 ---------------------------------------------------------------------
      1          7           0        0.002362    0.000000   -0.071851
      2          6           0        0.002444    0.000000    0.986035
      3          1           0        0.082350    0.000000   -0.910379
 ---------------------------------------------------------------------
                    Distance matrix (angstroms):
                    1          2          3
     1  N    0.000000
     2  C    1.057886   0.000000
     3  H    0.842335   1.898097   0.000000
 Stoichiometry    CHN
 Framework group  CS[SG(CHN)]
 Deg. of freedom     3
 Full point group                 CS      NOp   2
 Largest Abelian subgroup         CS      NOp   2
 Largest concise Abelian subgroup C1      NOp   1
                         Standard orientation:                         
 ---------------------------------------------------------------------
 Center     Atomic      Atomic             Coordinates (Angstroms)
 Number     Number       Type             X           Y           Z
 ---------------------------------------------------------------------
      1          7           0        0.005718    0.393485    0.000000
      2          6           0        0.005718   -0.664401    0.000000
      3          1           0       -0.074334    1.232008    0.000000
 ---------------------------------------------------------------------
 Rotational constants (GHZ): 100491.4822795     56.5241288     56.4923531
 Standard basis: 6-31G(d) (6D, 7F)
 There are    24 symmetry adapted cartesian basis functions of A'  symmetry.
 There are     8 symmetry adapted cartesian basis functions of A"  symmetry.
 There are    24 symmetry adapted basis functions of A'  symmetry.
 There are     8 symmetry adapted basis functions of A"  symmetry.
    32 basis functions,    60 primitive gaussians,    32 cartesian basis functions
     7 alpha electrons        7 beta electrons
       nuclear repulsion energy        27.0796495312 Hartrees.
 NAtoms=    3 NActive=    3 NUniq=    3 SFac= 1.00D+00 NAtFMM=   60 NAOKFM=F Big=F
 Integral buffers will be    131072 words long.
 Raffenetti 1 integral format.
 Two-electron integral symmetry is turned on.
 One-electron integrals computed using PRISM.
 NBasis=    32 RedAO= T EigKep=  5.16D-03  NBF=    24     8
 NBsUse=    32 1.00D-06 EigRej= -1.00D+00 NBFU=    24     8
 Initial guess from the checkpoint file:  "/home/maxb2/HNC.chk"
 B after Tr=     0.000000    0.000000    0.000000
         Rot=    1.000000    0.000000    0.000000   -0.000749 Ang=  -0.09 deg.
 Initial guess orbital symmetries:
       Occupied  (A') (A') (A') (A') (A') (A") (A')
       Virtual   (A') (A') (A') (A') (A') (A') (A') (A') (A') (A')
                 (A') (A') (A') (A') (A') (A') (A') (A') (A") (A")
                 (A") (A") (A") (A") (A")
 ExpMin= 1.61D-01 ExpMax= 4.17D+03 ExpMxC= 6.27D+02 IAcc=1 IRadAn=         1 AccDes= 0.00D+00
 Harris functional with IExCor=  205 and IRadAn=       1 diagonalized for initial guess.
 HarFok:  IExCor=  205 AccDes= 0.00D+00 IRadAn=         1 IDoV= 1 UseB2=F ITyADJ=14
 ICtDFT=  3500011 ScaDFX=  1.000000  1.000000  1.000000  1.000000
 FoFCou: FMM=F IPFlag=           0 FMFlag=      100000 FMFlg1=           0
         NFxFlg=           0 DoJE=T BraDBF=F KetDBF=T FulRan=T
         wScrn=  0.000000 ICntrl=     500 IOpCl=  0 I1Cent=   200000004 NGrid=           0
         NMat0=    1 NMatS0=      1 NMatT0=    0 NMatD0=    1 NMtDS0=    0 NMtDT0=    0
 Petite list used in FoFCou.
 Keep R1 ints in memory in symmetry-blocked form, NReq=991913.
 Requested convergence on RMS density matrix=1.00D-08 within 128 cycles.
 Requested convergence on MAX density matrix=1.00D-06.
 Requested convergence on             energy=1.00D-06.
 No special actions if energy rises.
 SCF Done:  E(RHF) =  -92.7988328752     A.U. after   10 cycles
            NFock= 10  Conv=0.51D-08     -V/T= 1.9908
 Calling FoFJK, ICntrl=      2127 FMM=F ISym2X=1 I1Cent= 0 IOpClX= 0 NMat=1 NMatS=1 NMatT=0.
 ***** Axes restored to original set *****
 -------------------------------------------------------------------
 Center     Atomic                   Forces (Hartrees/Bohr)
 Number     Number              X              Y              Z
 -------------------------------------------------------------------
      1        7          -0.016586916    0.000000000   -0.087204104
      2        6          -0.003095570    0.000000000    0.334821810
      3        1           0.019682486    0.000000000   -0.247617706
 -------------------------------------------------------------------
 Cartesian Forces:  Max     0.334821810 RMS     0.142086373

 GradGradGradGradGradGradGradGradGradGradGradGradGradGradGradGradGradGrad
 Berny optimization.
 FormGI is forming the generalized inverse of G from B-inverse, IUseBI=4.
 Internal  Forces:  Max     0.194463720 RMS     0.110006780
 Search for a local minimum.
 Step number   1 out of a maximum of   20 on scan point     2 out of    26
 All quantities printed in internal units (Hartrees-Bohrs-Radians)
 Mixed Optimization -- RFO/linear search
 Second derivative matrix not updated -- first step.
 The second derivative matrix:
                          R1        R2        R3        A1        A2
           R1           1.26782
           R2          -0.29768   1.01781
           R3           0.14986  -0.12570   0.06958
           A1           0.00569  -0.00480   0.00101   0.01032
           A2           0.00000   0.00000   0.00000   0.00000   0.01028
 ITU=  0
     Eigenvalues ---    0.01028   1.440581000.000001000.000001000.00000
 RFO step:  Lambda=-2.59278251D-03 EMin= 1.02838210D-02
 Linear search not attempted -- first point.
 Iteration  1 RMS(Cart)=  0.01095221 RMS(Int)=  0.00000873
 Iteration  2 RMS(Cart)=  0.00000627 RMS(Int)=  0.00000031
 Iteration  3 RMS(Cart)=  0.00000000 RMS(Int)=  0.00000031
 Iteration  1 RMS(Cart)=  0.00000031 RMS(Int)=  0.00000038
 ClnCor:  largest displacement from symmetrization is 4.44D-16 for atom     2.
 Variable       Old X    -DE/DX   Delta X   Delta X   Delta X     New X
                                 (Linear)    (Quad)   (Total)
    R1        1.99911   0.14058   0.00000   0.02998   0.02998   2.02909
    R2        1.59178   0.05412   0.00000  -0.02996  -0.02996   1.56182
    R3        3.58688   0.19446   0.00000   0.00000   0.00000   3.58688
    A1        3.23677   0.00036   0.00000   0.00034   0.00034   3.23711
    A2        3.14159   0.00000   0.00000   0.00000   0.00000   3.14159
         Item               Value     Threshold  Converged?
 Maximum Force            0.043262     0.000015     NO 
 RMS     Force            0.030585     0.000010     NO 
 Maximum Displacement     0.019971     0.000060     NO 
 RMS     Displacement     0.010952     0.000040     NO 
 Predicted change in Energy=-1.298453D-03
 GradGradGradGradGradGradGradGradGradGradGradGradGradGradGradGradGradGrad

                          Input orientation:                          
 ---------------------------------------------------------------------
 Center     Atomic      Atomic             Coordinates (Angstroms)
 Number     Number       Type             X           Y           Z
 ---------------------------------------------------------------------
      1          7           0        0.002803    0.000000   -0.082419
      2          6           0        0.002471    0.000000    0.991330
      3          1           0        0.081881    0.000000   -0.905105
 ---------------------------------------------------------------------
                    Distance matrix (angstroms):
                    1          2          3
     1  N    0.000000
     2  C    1.073749   0.000000
     3  H    0.826478   1.898097   0.000000
 Stoichiometry    CHN
 Framework group  CS[SG(CHN)]
 Deg. of freedom     3
 Full point group                 CS      NOp   2
 Largest Abelian subgroup         CS      NOp   2
 Largest concise Abelian subgroup C1      NOp   1
                         Standard orientation:                         
 ---------------------------------------------------------------------
 Center     Atomic      Atomic             Coordinates (Angstroms)
 Number     Number       Type             X           Y           Z
 ---------------------------------------------------------------------
      1          7           0        0.005630    0.401413    0.000000
      2          6           0        0.005630   -0.672336    0.000000
      3          1           0       -0.073193    1.224124    0.000000
 ---------------------------------------------------------------------
 Rotational constants (GHZ): 102821.6070834     55.3077047     55.2779707
 Standard basis: 6-31G(d) (6D, 7F)
 There are    24 symmetry adapted cartesian basis functions of A'  symmetry.
 There are     8 symmetry adapted cartesian basis functions of A"  symmetry.
 There are    24 symmetry adapted basis functions of A'  symmetry.
 There are     8 symmetry adapted basis functions of A"  symmetry.
    32 basis functions,    60 primitive gaussians,    32 cartesian basis functions
     7 alpha electrons        7 beta electrons
       nuclear repulsion energy        26.8536456032 Hartrees.
 NAtoms=    3 NActive=    3 NUniq=    3 SFac= 1.00D+00 NAtFMM=   60 NAOKFM=F Big=F
 Integral buffers will be    131072 words long.
 Raffenetti 1 integral format.
 Two-electron integral symmetry is turned on.
 One-electron integrals computed using PRISM.
 NBasis=    32 RedAO= T EigKep=  5.50D-03  NBF=    24     8
 NBsUse=    32 1.00D-06 EigRej= -1.00D+00 NBFU=    24     8
 Initial guess from the checkpoint file:  "/home/maxb2/HNC.chk"
 B after Tr=     0.000000    0.000000    0.000000
         Rot=    1.000000    0.000000    0.000000    0.000083 Ang=   0.01 deg.
 Initial guess orbital symmetries:
       Occupied  (A') (A') (A') (A') (A') (A") (A')
       Virtual   (A') (A') (A') (A') (A') (A') (A') (A') (A') (A')
                 (A') (A') (A') (A') (A') (A') (A') (A') (A") (A")
                 (A") (A") (A") (A") (A")
 Keep R1 ints in memory in symmetry-blocked form, NReq=991913.
 Requested convergence on RMS density matrix=1.00D-08 within 128 cycles.
 Requested convergence on MAX density matrix=1.00D-06.
 Requested convergence on             energy=1.00D-06.
 No special actions if energy rises.
 SCF Done:  E(RHF) =  -92.7997025705     A.U. after   10 cycles
            NFock= 10  Conv=0.42D-08     -V/T= 1.9915
 Calling FoFJK, ICntrl=      2127 FMM=F ISym2X=1 I1Cent= 0 IOpClX= 0 NMat=1 NMatS=1 NMatT=0.
 ***** Axes restored to original set *****
 -------------------------------------------------------------------
 Center     Atomic                   Forces (Hartrees/Bohr)
 Number     Number              X              Y              Z
 -------------------------------------------------------------------
      1        7          -0.021268335    0.000000000    0.027130785
      2        6          -0.002976929    0.000000000    0.264417071
      3        1           0.024245264    0.000000000   -0.291547855
 -------------------------------------------------------------------
 Cartesian Forces:  Max     0.291547855 RMS     0.131951866

 GradGradGradGradGradGradGradGradGradGradGradGradGradGradGradGradGradGrad
 Berny optimization.
 Using GEDIIS/GDIIS optimizer.
 FormGI is forming the generalized inverse of G from B-inverse, IUseBI=4.
 Internal  Forces:  Max     0.185722195 RMS     0.102146821
 Search for a local minimum.
 Step number   2 out of a maximum of   20 on scan point     2 out of    26
 All quantities printed in internal units (Hartrees-Bohrs-Radians)
 Mixed Optimization -- RFO/linear search
 Update second derivatives using D2CorX and points    1    2
 DE= -8.70D-04 DEPred=-1.30D-03 R= 6.70D-01
 TightC=F SS=  1.41D+00  RLast= 4.24D-02 DXNew= 8.4853D-01 1.2716D-01
 Trust test= 6.70D-01 RLast= 4.24D-02 DXMaxT set to 5.05D-01
 The second derivative matrix:
                          R1        R2        R3        A1        A2
           R1           1.52448
           R2          -0.53272   1.23191
           R3           0.15711  -0.13454   0.06548
           A1           0.01268  -0.01090   0.00180   0.01043
           A2           0.00000   0.00000   0.00000   0.00000   0.01028
 ITU=  1  0
 Use linear search instead of GDIIS.
     Eigenvalues ---    0.01028   1.911141000.000001000.000001000.00000
 RFO step:  Lambda= 0.00000000D+00 EMin= 1.02838210D-02
 Quartic linear search produced a step of -0.24690.
 Iteration  1 RMS(Cart)=  0.00270414 RMS(Int)=  0.00000073
 Iteration  2 RMS(Cart)=  0.00000038 RMS(Int)=  0.00000050
 Iteration  1 RMS(Cart)=  0.00000027 RMS(Int)=  0.00000033
 ClnCor:  largest displacement from symmetrization is 3.56D-15 for atom     3.
 Variable       Old X    -DE/DX   Delta X   Delta X   Delta X     New X
                                 (Linear)    (Quad)   (Total)
    R1        2.02909   0.07891  -0.00740   0.00000  -0.00740   2.02169
    R2        1.56182   0.10700   0.00740   0.00000   0.00740   1.56922
    R3        3.58688   0.18572   0.00000   0.00000   0.00000   3.58688
    A1        3.23711  -0.00035  -0.00008   0.00000  -0.00008   3.23703
    A2        3.14159   0.00000   0.00000   0.00000   0.00000   3.14159
         Item               Value     Threshold  Converged?
 Maximum Force            0.014024     0.000015     NO 
 RMS     Force            0.009915     0.000010     NO 
 Maximum Displacement     0.004931     0.000060     NO 
 RMS     Displacement     0.002704     0.000040     NO 
 Predicted change in Energy=-1.029510D-04
 GradGradGradGradGradGradGradGradGradGradGradGradGradGradGradGradGradGrad

                          Input orientation:                          
 ---------------------------------------------------------------------
 Center     Atomic      Atomic             Coordinates (Angstroms)
 Number     Number       Type             X           Y           Z
 ---------------------------------------------------------------------
      1          7           0        0.002693    0.000000   -0.079810
      2          6           0        0.002465    0.000000    0.990022
      3          1           0        0.081997    0.000000   -0.906407
 ---------------------------------------------------------------------
                    Distance matrix (angstroms):
                    1          2          3
     1  N    0.000000
     2  C    1.069832   0.000000
     3  H    0.830393   1.898097   0.000000
 Stoichiometry    CHN
 Framework group  CS[SG(CHN)]
 Deg. of freedom     3
 Full point group                 CS      NOp   2
 Largest Abelian subgroup         CS      NOp   2
 Largest concise Abelian subgroup C1      NOp   1
                         Standard orientation:                         
 ---------------------------------------------------------------------
 Center     Atomic      Atomic             Coordinates (Angstroms)
 Number     Number       Type             X           Y           Z
 ---------------------------------------------------------------------
      1          7           0        0.005652    0.399456    0.000000
      2          6           0        0.005652   -0.670377    0.000000
      3          1           0       -0.073476    1.226070    0.000000
 ---------------------------------------------------------------------
 Rotational constants (GHZ): 102230.7475873     55.6050827     55.5748546
 Standard basis: 6-31G(d) (6D, 7F)
 There are    24 symmetry adapted cartesian basis functions of A'  symmetry.
 There are     8 symmetry adapted cartesian basis functions of A"  symmetry.
 There are    24 symmetry adapted basis functions of A'  symmetry.
 There are     8 symmetry adapted basis functions of A"  symmetry.
    32 basis functions,    60 primitive gaussians,    32 cartesian basis functions
     7 alpha electrons        7 beta electrons
       nuclear repulsion energy        26.9082913648 Hartrees.
 NAtoms=    3 NActive=    3 NUniq=    3 SFac= 1.00D+00 NAtFMM=   60 NAOKFM=F Big=F
 Integral buffers will be    131072 words long.
 Raffenetti 1 integral format.
 Two-electron integral symmetry is turned on.
 One-electron integrals computed using PRISM.
 NBasis=    32 RedAO= T EigKep=  5.41D-03  NBF=    24     8
 NBsUse=    32 1.00D-06 EigRej= -1.00D+00 NBFU=    24     8
 Initial guess from the checkpoint file:  "/home/maxb2/HNC.chk"
 B after Tr=     0.000000    0.000000    0.000000
         Rot=    1.000000    0.000000    0.000000   -0.000021 Ang=   0.00 deg.
 Initial guess orbital symmetries:
       Occupied  (A') (A') (A') (A') (A') (A") (A')
       Virtual   (A') (A') (A') (A') (A') (A') (A') (A') (A') (A')
                 (A') (A') (A') (A') (A') (A') (A') (A') (A") (A")
                 (A") (A") (A") (A") (A")
 Keep R1 ints in memory in symmetry-blocked form, NReq=991913.
 Requested convergence on RMS density matrix=1.00D-08 within 128 cycles.
 Requested convergence on MAX density matrix=1.00D-06.
 Requested convergence on             energy=1.00D-06.
 No special actions if energy rises.
 SCF Done:  E(RHF) =  -92.7998064921     A.U. after    9 cycles
            NFock=  9  Conv=0.29D-08     -V/T= 1.9913
 Calling FoFJK, ICntrl=      2127 FMM=F ISym2X=1 I1Cent= 0 IOpClX= 0 NMat=1 NMatS=1 NMatT=0.
 ***** Axes restored to original set *****
 -------------------------------------------------------------------
 Center     Atomic                   Forces (Hartrees/Bohr)
 Number     Number              X              Y              Z
 -------------------------------------------------------------------
      1        7          -0.020064672    0.000000000   -0.000889684
      2        6          -0.003010263    0.000000000    0.281202587
      3        1           0.023074935    0.000000000   -0.280312904
 -------------------------------------------------------------------
 Cartesian Forces:  Max     0.281202587 RMS     0.132746674

 GradGradGradGradGradGradGradGradGradGradGradGradGradGradGradGradGradGrad
 Berny optimization.
 Using GEDIIS/GDIIS optimizer.
 FormGI is forming the generalized inverse of G from B-inverse, IUseBI=4.
 Internal  Forces:  Max     0.187550625 RMS     0.102763057
 Search for a local minimum.
 Step number   3 out of a maximum of   20 on scan point     2 out of    26
 All quantities printed in internal units (Hartrees-Bohrs-Radians)
 Mixed Optimization -- En-DIIS/RFO-DIIS
 Update second derivatives using D2CorX and points    1    2    3
 DE= -1.04D-04 DEPred=-1.03D-04 R= 1.01D+00
 TightC=F SS=  1.41D+00  RLast= 1.05D-02 DXNew= 8.4853D-01 3.1396D-02
 Trust test= 1.01D+00 RLast= 1.05D-02 DXMaxT set to 5.05D-01
 The second derivative matrix:
                          R1        R2        R3        A1        A2
           R1           1.49366
           R2          -0.52725   1.24560
           R3           0.13173  -0.11533   0.05931
           A1           0.01402  -0.01232   0.00172   0.01047
           A2           0.00000   0.00000   0.00000   0.00000   0.01028
 ITU=  1  1  0
 Use linear search instead of GDIIS.
     Eigenvalues ---    0.01028   1.897131000.000001000.000001000.00000
 RFO step:  Lambda= 0.00000000D+00 EMin= 1.02838210D-02
 Quartic linear search produced a step of -0.00081.
 Iteration  1 RMS(Cart)=  0.00000219 RMS(Int)=  0.00000000
 Iteration  2 RMS(Cart)=  0.00000000 RMS(Int)=  0.00000000
 Iteration  1 RMS(Cart)=  0.00000009 RMS(Int)=  0.00000011
 ClnCor:  largest displacement from symmetrization is 2.22D-16 for atom     2.
 Variable       Old X    -DE/DX   Delta X   Delta X   Delta X     New X
                                 (Linear)    (Quad)   (Total)
    R1        2.02169   0.09387   0.00001   0.00000   0.00001   2.02170
    R2        1.56922   0.09388  -0.00001   0.00000  -0.00001   1.56921
    R3        3.58688   0.18755   0.00000   0.00000   0.00000   3.58688
    A1        3.23703  -0.00015   0.00000   0.00000   0.00000   3.23703
    A2        3.14159   0.00000   0.00000   0.00000   0.00000   3.14159
         Item               Value     Threshold  Converged?
 Maximum Force            0.000017     0.000015     NO 
 RMS     Force            0.000012     0.000010     NO 
 Maximum Displacement     0.000004     0.000060     YES
 RMS     Displacement     0.000002     0.000040     YES
 Predicted change in Energy=-7.934501D-08
 GradGradGradGradGradGradGradGradGradGradGradGradGradGradGradGradGradGrad

                          Input orientation:                          
 ---------------------------------------------------------------------
 Center     Atomic      Atomic             Coordinates (Angstroms)
 Number     Number       Type             X           Y           Z
 ---------------------------------------------------------------------
      1          7           0        0.002693    0.000000   -0.079812
      2          6           0        0.002465    0.000000    0.990023
      3          1           0        0.081997    0.000000   -0.906406
 ---------------------------------------------------------------------
                    Distance matrix (angstroms):
                    1          2          3
     1  N    0.000000
     2  C    1.069835   0.000000
     3  H    0.830390   1.898097   0.000000
 Stoichiometry    CHN
 Framework group  CS[SG(CHN)]
 Deg. of freedom     3
 Full point group                 CS      NOp   2
 Largest Abelian subgroup         CS      NOp   2
 Largest concise Abelian subgroup C1      NOp   1
                         Standard orientation:                         
 ---------------------------------------------------------------------
 Center     Atomic      Atomic             Coordinates (Angstroms)
 Number     Number       Type             X           Y           Z
 ---------------------------------------------------------------------
      1          7           0        0.005652    0.399457    0.000000
      2          6           0        0.005652   -0.670378    0.000000
      3          1           0       -0.073475    1.226068    0.000000
 ---------------------------------------------------------------------
 Rotational constants (GHZ): 102231.2153256     55.6048487     55.5746210
 Standard basis: 6-31G(d) (6D, 7F)
 There are    24 symmetry adapted cartesian basis functions of A'  symmetry.
 There are     8 symmetry adapted cartesian basis functions of A"  symmetry.
 There are    24 symmetry adapted basis functions of A'  symmetry.
 There are     8 symmetry adapted basis functions of A"  symmetry.
    32 basis functions,    60 primitive gaussians,    32 cartesian basis functions
     7 alpha electrons        7 beta electrons
       nuclear repulsion energy        26.9082487126 Hartrees.
 NAtoms=    3 NActive=    3 NUniq=    3 SFac= 1.00D+00 NAtFMM=   60 NAOKFM=F Big=F
 Integral buffers will be    131072 words long.
 Raffenetti 1 integral format.
 Two-electron integral symmetry is turned on.
 One-electron integrals computed using PRISM.
 NBasis=    32 RedAO= T EigKep=  5.41D-03  NBF=    24     8
 NBsUse=    32 1.00D-06 EigRej= -1.00D+00 NBFU=    24     8
 Initial guess from the checkpoint file:  "/home/maxb2/HNC.chk"
 B after Tr=     0.000000    0.000000    0.000000
         Rot=    1.000000    0.000000    0.000000    0.000000 Ang=   0.00 deg.
 Initial guess orbital symmetries:
       Occupied  (A') (A') (A') (A') (A') (A") (A')
       Virtual   (A') (A') (A') (A') (A') (A') (A') (A') (A') (A')
                 (A') (A') (A') (A') (A') (A') (A') (A') (A") (A")
                 (A") (A") (A") (A") (A")
 Keep R1 ints in memory in symmetry-blocked form, NReq=991913.
 Requested convergence on RMS density matrix=1.00D-08 within 128 cycles.
 Requested convergence on MAX density matrix=1.00D-06.
 Requested convergence on             energy=1.00D-06.
 No special actions if energy rises.
 SCF Done:  E(RHF) =  -92.7998064128     A.U. after    4 cycles
            NFock=  4  Conv=0.29D-08     -V/T= 1.9913
 Calling FoFJK, ICntrl=      2127 FMM=F ISym2X=1 I1Cent= 0 IOpClX= 0 NMat=1 NMatS=1 NMatT=0.
 ***** Axes restored to original set *****
 -------------------------------------------------------------------
 Center     Atomic                   Forces (Hartrees/Bohr)
[...]
       Occupied  (A') (A') (A') (A') (A') (A") (A')
       Virtual   (A') (A') (A') (A') (A') (A') (A') (A') (A') (A')
                 (A') (A') (A') (A') (A') (A') (A') (A') (A") (A")
                 (A") (A") (A") (A") (A")
 ExpMin= 1.61D-01 ExpMax= 4.17D+03 ExpMxC= 6.27D+02 IAcc=1 IRadAn=         1 AccDes= 0.00D+00
 Harris functional with IExCor=  205 and IRadAn=       1 diagonalized for initial guess.
 HarFok:  IExCor=  205 AccDes= 0.00D+00 IRadAn=         1 IDoV= 1 UseB2=F ITyADJ=14
 ICtDFT=  3500011 ScaDFX=  1.000000  1.000000  1.000000  1.000000
 FoFCou: FMM=F IPFlag=           0 FMFlag=      100000 FMFlg1=           0
         NFxFlg=           0 DoJE=T BraDBF=F KetDBF=T FulRan=T
         wScrn=  0.000000 ICntrl=     500 IOpCl=  0 I1Cent=   200000004 NGrid=           0
         NMat0=    1 NMatS0=      1 NMatT0=    0 NMatD0=    1 NMtDS0=    0 NMtDT0=    0
 Petite list used in FoFCou.
 Keep R1 ints in memory in symmetry-blocked form, NReq=992053.
 Requested convergence on RMS density matrix=1.00D-08 within 128 cycles.
 Requested convergence on MAX density matrix=1.00D-06.
 Requested convergence on             energy=1.00D-06.
 No special actions if energy rises.
 SCF Done:  E(RHF) =  -72.1950856360     A.U. after   11 cycles
            NFock= 11  Conv=0.49D-08     -V/T= 1.7324
 Calling FoFJK, ICntrl=      2127 FMM=F ISym2X=1 I1Cent= 0 IOpClX= 0 NMat=1 NMatS=1 NMatT=0.
 ***** Axes restored to original set *****
 -------------------------------------------------------------------
 Center     Atomic                   Forces (Hartrees/Bohr)
 Number     Number              X              Y              Z
 -------------------------------------------------------------------
      1        7           0.011507351    0.000000000    0.014236139
      2        6          91.887464387    0.000000003  120.966473508
      3        1         -91.898971738   -0.000000003 -120.980709647
 -------------------------------------------------------------------
 Cartesian Forces:  Max   120.980709647 RMS    71.614668945

 GradGradGradGradGradGradGradGradGradGradGradGradGradGradGradGradGradGrad
 Berny optimization.
 Using GEDIIS/GDIIS optimizer.
 FormGI is forming the generalized inverse of G from B-inverse, IUseBI=4.
 Internal  Forces:  Max   101.281581039 RMS    55.473347025
 Search for a local minimum.
 Step number  18 out of a maximum of   20 on scan point    20 out of    26
 All quantities printed in internal units (Hartrees-Bohrs-Radians)
 Mixed Optimization -- RFO/linear search
 Update second derivatives using D2CorX and points   18    8
 The second derivative matrix:
                          R1        R2        R3        A1        A2
           R1         197.29946
           R2        -197.15073 198.39594
           R3         393.70817-394.86126 787.57906
           A1          14.63139 -15.32159  29.94837   1.43899
           A2          -0.00001   0.00001  -0.00001   0.00000   0.00000
 ITU=  0  0  0  0  0 -1
 Use linear search instead of GDIIS.
 Skip linear search -- no minimum in search direction.
 Steepest descent instead of Quadratic search.
 Steepest descent step scaled to max of 0.05000.
 Iteration  1 RMS(Cart)=  0.01825737 RMS(Int)=  0.00000040
 Iteration  2 RMS(Cart)=  0.00000054 RMS(Int)=  0.00000001
 Iteration  1 RMS(Cart)=  0.00000000 RMS(Int)=  0.00000000
 ClnCor:  largest displacement from symmetrization is 1.11D-16 for atom     1.
 Variable       Old X    -DE/DX   Delta X   Delta X   Delta X     New X
                                 (Linear)    (Quad)   (Total)
    R1        2.08613  50.62693   0.00000  -0.05000  -0.05000   2.03613
    R2        1.90079 -50.64441   0.00000  -0.05000  -0.05000   1.85079
    R3        0.18538 101.28158   0.00000   0.00000   0.00000   0.18538
    A1        6.28148  -0.74807   0.00000  -0.00003  -0.00003   6.28145
    A2        3.14159   0.00000   0.00000   0.00000   0.00000   3.14159
         Item               Value     Threshold  Converged?
 Maximum Force            0.009152     0.000015     NO 
 RMS     Force            0.006472     0.000010     NO 
 Maximum Displacement     0.026171     0.000060     NO 
 RMS     Displacement     0.018257     0.000040     NO 
 Predicted change in Energy=-3.787795D-01
 GradGradGradGradGradGradGradGradGradGradGradGradGradGradGradGradGradGrad

                          Input orientation:                          
 ---------------------------------------------------------------------
 Center     Atomic      Atomic             Coordinates (Angstroms)
 Number     Number       Type             X           Y           Z
 ---------------------------------------------------------------------
      1          7           0       -0.395565    0.000000   -0.537043
      2          6           0        0.271032    0.000000    0.309479
      3          1           0        0.211688    0.000000    0.231369
 ---------------------------------------------------------------------
                    Distance matrix (angstroms):
                    1          2          3
     1  N    0.000000
     2  C    1.077474   0.000000
     3  H    0.979394   0.098096   0.000000
 Stoichiometry    CHN
 Framework group  CS[SG(CHN)]
 Deg. of freedom     3
 Full point group                 CS      NOp   2
 Largest Abelian subgroup         CS      NOp   2
 Largest concise Abelian subgroup C1      NOp   1
                         Standard orientation:                         
 ---------------------------------------------------------------------
 Center     Atomic      Atomic             Coordinates (Angstroms)
 Number     Number       Type             X           Y           Z
 ---------------------------------------------------------------------
      1          7           0        0.000121    0.531731    0.000000
      2          6           0        0.000121   -0.545743    0.000000
      3          1           0       -0.001579   -0.447661    0.000000
 ---------------------------------------------------------------------
 Rotational constants (GHZ):***************     65.3971977     65.3971747
 Standard basis: 6-31G(d) (6D, 7F)
 There are    24 symmetry adapted cartesian basis functions of A'  symmetry.
 There are     8 symmetry adapted cartesian basis functions of A"  symmetry.
 There are    24 symmetry adapted basis functions of A'  symmetry.
 There are     8 symmetry adapted basis functions of A"  symmetry.
    32 basis functions,    60 primitive gaussians,    32 cartesian basis functions
     7 alpha electrons        7 beta electrons
       nuclear repulsion energy        56.7762836123 Hartrees.
 NAtoms=    3 NActive=    3 NUniq=    3 SFac= 1.00D+00 NAtFMM=   60 NAOKFM=F Big=F
 Integral buffers will be    131072 words long.
 Raffenetti 1 integral format.
 Two-electron integral symmetry is turned on.
 One-electron integrals computed using PRISM.
 NBasis=    32 RedAO= T EigKep=  1.01D-04  NBF=    24     8
 NBsUse=    32 1.00D-06 EigRej= -1.00D+00 NBFU=    24     8
 Initial guess from the checkpoint file:  "/home/maxb2/HNC.chk"
 B after Tr=     0.000000    0.000000    0.000000
         Rot=    1.000000    0.000000    0.000000    0.000002 Ang=   0.00 deg.
 Initial guess orbital symmetries:
       Occupied  (A') (A') (A') (A') (A') (A") (A')
       Virtual   (A') (A') (A') (A') (A') (A') (A') (A') (A') (A')
                 (A') (A') (A') (A') (A') (A') (A') (A') (A") (A")
                 (A") (A") (A") (A") (A")
 ExpMin= 1.61D-01 ExpMax= 4.17D+03 ExpMxC= 6.27D+02 IAcc=1 IRadAn=         1 AccDes= 0.00D+00
 Harris functional with IExCor=  205 and IRadAn=       1 diagonalized for initial guess.
 HarFok:  IExCor=  205 AccDes= 0.00D+00 IRadAn=         1 IDoV= 1 UseB2=F ITyADJ=14
 ICtDFT=  3500011 ScaDFX=  1.000000  1.000000  1.000000  1.000000
 FoFCou: FMM=F IPFlag=           0 FMFlag=      100000 FMFlg1=           0
         NFxFlg=           0 DoJE=T BraDBF=F KetDBF=T FulRan=T
         wScrn=  0.000000 ICntrl=     500 IOpCl=  0 I1Cent=   200000004 NGrid=           0
         NMat0=    1 NMatS0=      1 NMatT0=    0 NMatD0=    1 NMtDS0=    0 NMtDT0=    0
 Petite list used in FoFCou.
 Keep R1 ints in memory in symmetry-blocked form, NReq=992068.
 Requested convergence on RMS density matrix=1.00D-08 within 128 cycles.
 Requested convergence on MAX density matrix=1.00D-06.
 Requested convergence on             energy=1.00D-06.
 No special actions if energy rises.
 SCF Done:  E(RHF) =  -72.1932765520     A.U. after   11 cycles
            NFock= 11  Conv=0.31D-08     -V/T= 1.7309
 Calling FoFJK, ICntrl=      2127 FMM=F ISym2X=1 I1Cent= 0 IOpClX= 0 NMat=1 NMatS=1 NMatT=0.
 ***** Axes restored to original set *****
 -------------------------------------------------------------------
 Center     Atomic                   Forces (Hartrees/Bohr)
 Number     Number              X              Y              Z
 -------------------------------------------------------------------
      1        7          -0.057896634    0.000000000   -0.073883575
      2        6          91.959613103    0.000000003  121.033353516
      3        1         -91.901716469   -0.000000003 -120.959469941
 -------------------------------------------------------------------
 Cartesian Forces:  Max   121.033353516 RMS    71.633923353

 GradGradGradGradGradGradGradGradGradGradGradGradGradGradGradGradGradGrad
 Berny optimization.
 Using GEDIIS/GDIIS optimizer.
 FormGI is forming the generalized inverse of G from B-inverse, IUseBI=4.
 Internal  Forces:  Max   101.308684750 RMS    55.488231086
 Search for a local minimum.
 Step number  19 out of a maximum of   20 on scan point    20 out of    26
 All quantities printed in internal units (Hartrees-Bohrs-Radians)
 Mixed Optimization -- RFO/linear search
 Update second derivatives using D2CorX and points   19    8
 The second derivative matrix:
                          R1        R2        R3        A1        A2
           R1         186.80654
           R2        -182.97172 180.91838
           R3         369.41506-363.57924 732.75483
           A1          14.78204 -15.21859  30.01560   1.49269
           A2          -0.00002   0.00003  -0.00004   0.00000   0.00000
 ITU=  0  0  0  0  0  0
 Use linear search instead of GDIIS.
 Skip linear search -- no minimum in search direction.
 Steepest descent instead of Quadratic search.
 Steepest descent step scaled to max of 0.05000.
 Iteration  1 RMS(Cart)=  0.00182574 RMS(Int)=  1.40525117
 Iteration  2 RMS(Cart)=  0.01643163 RMS(Int)=  1.40496294
 Iteration  3 RMS(Cart)=  0.00000049 RMS(Int)=  1.40496294
 Iteration  1 RMS(Cart)=  0.00000000 RMS(Int)=  0.00000000
 ClnCor:  largest displacement from symmetrization is 7.11D-16 for atom     2.
 Variable       Old X    -DE/DX   Delta X   Delta X   Delta X     New X
                                 (Linear)    (Quad)   (Total)
    R1        2.03613  50.69650   0.00000   0.05000   0.05000   2.08613
    R2        1.85079 -50.60177   0.00000   0.05000   0.05000   1.90079
    R3        0.18538 101.30868   0.00000   0.00000   0.00000   0.18538
    A1        6.28145  -0.77173   0.00000   0.00004   0.00004   6.28149
    A2        3.14159   0.00000   0.00000   0.00000   0.00000   3.14159
         Item               Value     Threshold  Converged?
 Maximum Force            0.046932     0.000015     NO 
 RMS     Force            0.033186     0.000010     NO 
 Maximum Displacement     0.026171     0.000060     NO 
 RMS     Displacement     0.018257     0.000040     NO 
 Predicted change in Energy=-3.772953D-01
 GradGradGradGradGradGradGradGradGradGradGradGradGradGradGradGradGradGrad

                          Input orientation:                          
 ---------------------------------------------------------------------
 Center     Atomic      Atomic             Coordinates (Angstroms)
 Number     Number       Type             X           Y           Z
 ---------------------------------------------------------------------
      1          7           0       -0.406489    0.000000   -0.550892
      2          6           0        0.276491    0.000000    0.316406
      3          1           0        0.217154    0.000000    0.238291
 ---------------------------------------------------------------------
                    Distance matrix (angstroms):
                    1          2          3
     1  N    0.000000
     2  C    1.103933   0.000000
     3  H    1.005853   0.098096   0.000000
 Stoichiometry    CHN
 Framework group  CS[SG(CHN)]
 Deg. of freedom     3
 Full point group                 CS      NOp   2
 Largest Abelian subgroup         CS      NOp   2
 Largest concise Abelian subgroup C1      NOp   1
                         Standard orientation:                         
 ---------------------------------------------------------------------
 Center     Atomic      Atomic             Coordinates (Angstroms)
 Number     Number       Type             X           Y           Z
 ---------------------------------------------------------------------
      1          7           0        0.000122    0.544961    0.000000
      2          6           0        0.000122   -0.558972    0.000000
      3          1           0       -0.001588   -0.460891    0.000000
 ---------------------------------------------------------------------
 Rotational constants (GHZ):***************     62.2821566     62.2821354
 Standard basis: 6-31G(d) (6D, 7F)
 There are    24 symmetry adapted cartesian basis functions of A'  symmetry.
 There are     8 symmetry adapted cartesian basis functions of A"  symmetry.
 There are    24 symmetry adapted basis functions of A'  symmetry.
 There are     8 symmetry adapted basis functions of A"  symmetry.
    32 basis functions,    60 primitive gaussians,    32 cartesian basis functions
     7 alpha electrons        7 beta electrons
       nuclear repulsion energy        56.1824040929 Hartrees.
 NAtoms=    3 NActive=    3 NUniq=    3 SFac= 1.00D+00 NAtFMM=   60 NAOKFM=F Big=F
 Integral buffers will be    131072 words long.
 Raffenetti 1 integral format.
 Two-electron integral symmetry is turned on.
 One-electron integrals computed using PRISM.
 NBasis=    32 RedAO= T EigKep=  1.02D-04  NBF=    24     8
 NBsUse=    32 1.00D-06 EigRej= -1.00D+00 NBFU=    24     8
 Initial guess from the checkpoint file:  "/home/maxb2/HNC.chk"
 B after Tr=     0.000000    0.000000    0.000000
         Rot=    1.000000    0.000000    0.000000   -0.000002 Ang=   0.00 deg.
 Initial guess orbital symmetries:
       Occupied  (A') (A') (A') (A') (A') (A") (A')
       Virtual   (A') (A') (A') (A') (A') (A') (A') (A') (A') (A')
                 (A') (A') (A') (A') (A') (A') (A') (A') (A") (A")
                 (A") (A") (A") (A") (A")
 ExpMin= 1.61D-01 ExpMax= 4.17D+03 ExpMxC= 6.27D+02 IAcc=1 IRadAn=         1 AccDes= 0.00D+00
 Harris functional with IExCor=  205 and IRadAn=       1 diagonalized for initial guess.
 HarFok:  IExCor=  205 AccDes= 0.00D+00 IRadAn=         1 IDoV= 1 UseB2=F ITyADJ=14
 ICtDFT=  3500011 ScaDFX=  1.000000  1.000000  1.000000  1.000000
 FoFCou: FMM=F IPFlag=           0 FMFlag=      100000 FMFlg1=           0
         NFxFlg=           0 DoJE=T BraDBF=F KetDBF=T FulRan=T
         wScrn=  0.000000 ICntrl=     500 IOpCl=  0 I1Cent=   200000004 NGrid=           0
         NMat0=    1 NMatS0=      1 NMatT0=    0 NMatD0=    1 NMtDS0=    0 NMtDT0=    0
 Petite list used in FoFCou.
 Keep R1 ints in memory in symmetry-blocked form, NReq=992053.
 Requested convergence on RMS density matrix=1.00D-08 within 128 cycles.
 Requested convergence on MAX density matrix=1.00D-06.
 Requested convergence on             energy=1.00D-06.
 No special actions if energy rises.
 SCF Done:  E(RHF) =  -72.1950855700     A.U. after   11 cycles
            NFock= 11  Conv=0.49D-08     -V/T= 1.7324
 Calling FoFJK, ICntrl=      2127 FMM=F ISym2X=1 I1Cent= 0 IOpClX= 0 NMat=1 NMatS=1 NMatT=0.
 ***** Axes restored to original set *****
 -------------------------------------------------------------------
 Center     Atomic                   Forces (Hartrees/Bohr)
 Number     Number              X              Y              Z
 -------------------------------------------------------------------
      1        7           0.011507192    0.000000000    0.014236361
      2        6          91.890079380    0.000000003  120.964488160
      3        1         -91.901586572   -0.000000003 -120.978724521
 -------------------------------------------------------------------
 Cartesian Forces:  Max   120.978724521 RMS    71.614669370

 GradGradGradGradGradGradGradGradGradGradGradGradGradGradGradGradGradGrad
 Berny optimization.
 Using GEDIIS/GDIIS optimizer.
 FormGI is forming the generalized inverse of G from B-inverse, IUseBI=4.
 Internal  Forces:  Max   101.281574143 RMS    55.473345298
 Search for a local minimum.
 Step number  20 out of a maximum of   20 on scan point    20 out of    26
 All quantities printed in internal units (Hartrees-Bohrs-Radians)
 Mixed Optimization -- RFO/linear search
 Update second derivatives using D2CorX and points   20    8
 The second derivative matrix:
                          R1        R2        R3        A1        A2
           R1         198.31265
           R2        -197.52962 198.54329
           R3         395.11323-395.39022 789.52753
           A1          14.75585 -15.44321  30.18532   1.40910
           A2          -0.00001   0.00001  -0.00001   0.00000   0.00000
 ITU=  0  0  0  0  0  0
 Use linear search instead of GDIIS.
 Skip linear search -- no minimum in search direction.
 Steepest descent instead of Quadratic search.
 Steepest descent step scaled to max of 0.05000.
 Iteration  1 RMS(Cart)=  0.01825737 RMS(Int)=  0.00000040
 Iteration  2 RMS(Cart)=  0.00000054 RMS(Int)=  0.00000001
 Iteration  1 RMS(Cart)=  0.00000000 RMS(Int)=  0.00000000
 ClnCor:  largest displacement from symmetrization is 1.76D-16 for atom     3.
 Variable       Old X    -DE/DX   Delta X   Delta X   Delta X     New X
                                 (Linear)    (Quad)   (Total)
    R1        2.08613  50.62694   0.00000  -0.05000  -0.05000   2.03613
    R2        1.90079 -50.64442   0.00000  -0.05000  -0.05000   1.85079
    R3        0.18538 101.28157   0.00000   0.00000   0.00000   0.18538
    A1        6.28149  -0.74718   0.00000  -0.00003  -0.00003   6.28145
    A2        3.14159   0.00000   0.00000   0.00000   0.00000   3.14159
         Item               Value     Threshold  Converged?
 Maximum Force            0.009153     0.000015     NO 
 RMS     Force            0.006472     0.000010     NO 
 Maximum Displacement     0.026171     0.000060     NO 
 RMS     Displacement     0.018257     0.000040     NO 
 Predicted change in Energy=-3.792830D-01
 Optimization stopped.
    -- Number of steps exceeded,  NStep=  20
    -- Flag reset to prevent archiving.
                           ----------------------------
                           ! Non-Optimized Parameters !
                           ! (Angstroms and Degrees)  !
 --------------------------                            --------------------------
 ! Name  Definition              Value          Derivative Info.                !
 --------------------------------------------------------------------------------
 ! R1    R(1,2)                  1.0775         -DE/DX =   50.6269              !
 ! R2    R(1,3)                  0.9794         -DE/DX =  -50.6444              !
 ! R3    R(2,3)                  0.0981         -DE/DX =  101.2816              !
 ! A1    L(2,1,3,-2,-1)        359.9006         -DE/DX =   -0.7472              !
 ! A2    L(2,1,3,-1,-2)        180.0            -DE/DX =    0.0                 !
 --------------------------------------------------------------------------------
 New curvilinear step failed, DQL= 1.54D-01 SP=-3.33D-01.
 RedCar failed.
 Error termination via Lnk1e in /cluster/software/gaussian/gaussian-09-D.01/g09/l103.exe at Fri Sep 23 12:37:12 2016.
 Job cpu time:       0 days  0 hours  9 minutes 37.3 seconds.
 File lengths (MBytes):  RWF=     77 Int=      0 D2E=      0 Chk=      3 Scr=      1
