 Entering Gaussian System, Link 0=g09
 Initial command:
 /cluster/software/gaussian/gaussian-09-D.01/g09/l1.exe "/local/scratch/maxb2/Gau-16645.inp" -scrdir="/local/scratch/maxb2/"
 Entering Link 1 = /cluster/software/gaussian/gaussian-09-D.01/g09/l1.exe PID=     16646.
  
 Copyright (c) 1988,1990,1992,1993,1995,1998,2003,2009,2013,
            Gaussian, Inc.  All Rights Reserved.
  
 This is part of the Gaussian(R) 09 program.  It is based on
 the Gaussian(R) 03 system (copyright 2003, Gaussian, Inc.),
 the Gaussian(R) 98 system (copyright 1998, Gaussian, Inc.),
 the Gaussian(R) 94 system (copyright 1995, Gaussian, Inc.),
 the Gaussian 92(TM) system (copyright 1992, Gaussian, Inc.),
 the Gaussian 90(TM) system (copyright 1990, Gaussian, Inc.),
 the Gaussian 88(TM) system (copyright 1988, Gaussian, Inc.),
 the Gaussian 86(TM) system (copyright 1986, Carnegie Mellon
 University), and the Gaussian 82(TM) system (copyright 1983,
 Carnegie Mellon University). Gaussian is a federally registered
 trademark of Gaussian, Inc.
  
 This software contains proprietary and confidential information,
 including trade secrets, belonging to Gaussian, Inc.
  
 This software is provided under written license and may be
 used, copied, transmitted, or stored only in accord with that
 written license.
  
 The following legend is applicable only to US Government
 contracts under FAR:
  
                    RESTRICTED RIGHTS LEGEND
  
 Use, reproduction and disclosure by the US Government is
 subject to restrictions as set forth in subparagraphs (a)
 and (c) of the Commercial Computer Software - Restricted
 Rights clause in FAR 52.227-19.
  
 Gaussian, Inc.
 340 Quinnipiac St., Bldg. 40, Wallingford CT 06492
  
  
 ---------------------------------------------------------------
 Warning -- This program may not be used in any manner that
 competes with the business of Gaussian, Inc. or will provide
 assistance to any competitor of Gaussian, Inc.  The licensee
 of this program is prohibited from giving any competitor of
 Gaussian, Inc. access to this program.  By using this program,
 the user acknowledges that Gaussian, Inc. is engaged in the
 business of creating and licensing software in the field of
 computational chemistry and represents and warrants to the
 licensee that it is not a competitor of Gaussian, Inc. and that
 it will not use this program in any manner prohibited above.
 ---------------------------------------------------------------
  

 Cite this work as:
 Gaussian 09, Revision D.01,
 M. J. Frisch, G. W. Trucks, H. B. Schlegel, G. E. Scuseria, 
 M. A. Robb, J. R. Cheeseman, G. Scalmani, V. Barone, B. Mennucci, 
 G. A. Petersson, H. Nakatsuji, M. Caricato, X. Li, H. P. Hratchian, 
 A. F. Izmaylov, J. Bloino, G. Zheng, J. L. Sonnenberg, M. Hada, 
 M. Ehara, K. Toyota, R. Fukuda, J. Hasegawa, M. Ishida, T. Nakajima, 
 Y. Honda, O. Kitao, H. Nakai, T. Vreven, J. A. Montgomery, Jr., 
 J. E. Peralta, F. Ogliaro, M. Bearpark, J. J. Heyd, E. Brothers, 
 K. N. Kudin, V. N. Staroverov, T. Keith, R. Kobayashi, J. Normand, 
 K. Raghavachari, A. Rendell, J. C. Burant, S. S. Iyengar, J. Tomasi, 
 M. Cossi, N. Rega, J. M. Millam, M. Klene, J. E. Knox, J. B. Cross, 
 V. Bakken, C. Adamo, J. Jaramillo, R. Gomperts, R. E. Stratmann, 
 O. Yazyev, A. J. Austin, R. Cammi, C. Pomelli, J. W. Ochterski, 
 R. L. Martin, K. Morokuma, V. G. Zakrzewski, G. A. Voth, 
 P. Salvador, J. J. Dannenberg, S. Dapprich, A. D. Daniels, 
 O. Farkas, J. B. Foresman, J. V. Ortiz, J. Cioslowski, 
 and D. J. Fox, Gaussian, Inc., Wallingford CT, 2013.
 
 ******************************************
 Gaussian 09:  ES64L-G09RevD.01 24-Apr-2013
                26-Sep-2016 
 ******************************************
 %rwf=/home/maxb2/scratch/HNC
 %int=/home/maxb2/scratch/HNC
 %d2e=/home/maxb2/scratch/HNC
 %nosave
 %mem=6GB
 %nprocshared=2
 Will use up to    2 processors via shared memory.
 %chk=/home/maxb2/HNC
 -----------------------------------------
 # opt=(modredundant,tight) RHF/6-31g* gfp
 -----------------------------------------
 1/7=10,18=120,19=15,38=1/1,3;
 2/9=110,12=2,17=6,18=5,40=1/2;
 3/5=1,6=6,7=1,11=1,16=1,24=100,25=1,30=1,71=1,116=1/1,2,3;
 4//1;
 5/5=2,38=5/2;
 6/7=2,8=2,9=2,10=2,28=1/1;
 7//1,2,3,16;
 1/7=10,18=20,19=15/3(2);
 2/9=110/2;
 99//99;
 2/9=110/2;
 3/5=1,6=6,7=1,11=1,16=1,25=1,30=1,71=1,116=1/1,2,3;
 4/5=5,16=3,69=1/1;
 5/5=2,38=5/2;
 7//1,2,3,16;
 1/7=10,18=20,19=15/3(-5);
 2/9=110/2;
 6/7=2,8=2,9=2,10=2,19=2,28=1/1;
 99/9=1/99;
 -------
 HNC-HCN
 -------
 Symbolic Z-matrix:
 Charge =  0 Multiplicity = 1
 N
 C                    1    B1
 H                    2    B2       1    A1
       Variables:
  B1                    1.                       
  B2                    2.3                      
  A1                   10.                       
 
 Add virtual bond connecting atoms H3         and N1         Dist= 2.51D+00.
 The following ModRedundant input section has been read:
 A       1       2       3 S  30 5.3000                                        
 

 GradGradGradGradGradGradGradGradGradGradGradGradGradGradGradGradGradGrad
 Berny optimization.
 Initialization pass.
                           ----------------------------
                           !    Initial Parameters    !
                           ! (Angstroms and Degrees)  !
 --------------------------                            --------------------------
 ! Name  Definition              Value          Derivative Info.                !
 --------------------------------------------------------------------------------
 ! R1    R(1,2)                  1.0            estimate D2E/DX2                !
 ! R2    R(1,3)                  1.3266         estimate D2E/DX2                !
 ! A1    A(2,1,3)              162.4786         estimate D2E/DX2                !
 ! A2    A(1,2,3)                10.0           Scan                            !
 --------------------------------------------------------------------------------
 Trust Radius=3.00D-01 FncErr=1.00D-07 GrdErr=1.00D-07
 Number of optimizations in scan=  31
 Number of steps in this run=     20 maximum allowed number of steps=    100.
 GradGradGradGradGradGradGradGradGradGradGradGradGradGradGradGradGradGrad

                          Input orientation:                          
 ---------------------------------------------------------------------
 Center     Atomic      Atomic             Coordinates (Angstroms)
 Number     Number       Type             X           Y           Z
 ---------------------------------------------------------------------
      1          7           0        0.000000    0.000000    0.000000
      2          6           0        0.000000    0.000000    1.000000
      3          1           0        0.399391    0.000000   -1.265058
 ---------------------------------------------------------------------
                    Distance matrix (angstroms):
                    1          2          3
     1  N    0.000000
     2  C    1.000000   0.000000
     3  H    1.326606   2.300000   0.000000
 Stoichiometry    CHN
 Framework group  CS[SG(CHN)]
 Deg. of freedom     3
 Full point group                 CS      NOp   2
 Largest Abelian subgroup         CS      NOp   2
 Largest concise Abelian subgroup C1      NOp   1
                         Standard orientation:                         
 ---------------------------------------------------------------------
 Center     Atomic      Atomic             Coordinates (Angstroms)
 Number     Number       Type             X           Y           Z
 ---------------------------------------------------------------------
      1          7           0        0.028528    0.338210    0.000000
      2          6           0        0.028528   -0.661790    0.000000
      3          1           0       -0.370863    1.603268    0.000000
 ---------------------------------------------------------------------
 Rotational constants (GHZ):   4751.4500828     53.7478820     53.1466925
 Standard basis: 6-31G(d) (6D, 7F)
 AO basis set (Overlap normalization):
 Atom N1       Shell     1 S   6     bf    1 -     1          0.053909946308          0.639124568051          0.000000000000
      0.4173511460D+04  0.1834772160D-02
      0.6274579110D+03  0.1399462700D-01
      0.1429020930D+03  0.6858655181D-01
      0.4023432930D+02  0.2322408730D+00
      0.1282021290D+02  0.4690699481D+00
      0.4390437010D+01  0.3604551991D+00
 Atom N1       Shell     2 SP   3    bf    2 -     5          0.053909946308          0.639124568051          0.000000000000
      0.1162636186D+02 -0.1149611817D+00  0.6757974388D-01
      0.2716279807D+01 -0.1691174786D+00  0.3239072959D+00
      0.7722183966D+00  0.1145851947D+01  0.7408951398D+00
 Atom N1       Shell     3 SP   1    bf    6 -     9          0.053909946308          0.639124568051          0.000000000000
      0.2120314975D+00  0.1000000000D+01  0.1000000000D+01
 Atom N1       Shell     4 D   1     bf   10 -    15          0.053909946308          0.639124568051          0.000000000000
      0.8000000000D+00  0.1000000000D+01
 Atom C2       Shell     5 S   6     bf   16 -    16          0.053909946308         -1.250601564835          0.000000000000
      0.3047524880D+04  0.1834737132D-02
      0.4573695180D+03  0.1403732281D-01
      0.1039486850D+03  0.6884262226D-01
      0.2921015530D+02  0.2321844432D+00
      0.9286662960D+01  0.4679413484D+00
      0.3163926960D+01  0.3623119853D+00
 Atom C2       Shell     6 SP   3    bf   17 -    20          0.053909946308         -1.250601564835          0.000000000000
      0.7868272350D+01 -0.1193324198D+00  0.6899906659D-01
      0.1881288540D+01 -0.1608541517D+00  0.3164239610D+00
      0.5442492580D+00  0.1143456438D+01  0.7443082909D+00
 Atom C2       Shell     7 SP   1    bf   21 -    24          0.053909946308         -1.250601564835          0.000000000000
      0.1687144782D+00  0.1000000000D+01  0.1000000000D+01
 Atom C2       Shell     8 D   1     bf   25 -    30          0.053909946308         -1.250601564835          0.000000000000
      0.8000000000D+00  0.1000000000D+01
 Atom H3       Shell     9 S   3     bf   31 -    31         -0.700829302002          3.029737412657          0.000000000000
      0.1873113696D+02  0.3349460434D-01
      0.2825394365D+01  0.2347269535D+00
      0.6401216923D+00  0.8137573261D+00
 Atom H3       Shell    10 S   1     bf   32 -    32         -0.700829302002          3.029737412657          0.000000000000
      0.1612777588D+00  0.1000000000D+01
 There are    24 symmetry adapted cartesian basis functions of A'  symmetry.
 There are     8 symmetry adapted cartesian basis functions of A"  symmetry.
 There are    24 symmetry adapted basis functions of A'  symmetry.
 There are     8 symmetry adapted basis functions of A"  symmetry.
    32 basis functions,    60 primitive gaussians,    32 cartesian basis functions
     7 alpha electrons        7 beta electrons
       nuclear repulsion energy        26.3981731013 Hartrees.
 NAtoms=    3 NActive=    3 NUniq=    3 SFac= 1.00D+00 NAtFMM=   60 NAOKFM=F Big=F
 Integral buffers will be    131072 words long.
 Raffenetti 1 integral format.
 Two-electron integral symmetry is turned on.
 One-electron integrals computed using PRISM.
 NBasis=    32 RedAO= T EigKep=  4.38D-03  NBF=    24     8
 NBsUse=    32 1.00D-06 EigRej= -1.00D+00 NBFU=    24     8
 ExpMin= 1.61D-01 ExpMax= 4.17D+03 ExpMxC= 6.27D+02 IAcc=1 IRadAn=         1 AccDes= 0.00D+00
 Harris functional with IExCor=  205 and IRadAn=       1 diagonalized for initial guess.
 HarFok:  IExCor=  205 AccDes= 0.00D+00 IRadAn=         1 IDoV= 1 UseB2=F ITyADJ=14
 ICtDFT=  3500011 ScaDFX=  1.000000  1.000000  1.000000  1.000000
 FoFCou: FMM=F IPFlag=           0 FMFlag=      100000 FMFlg1=           0
         NFxFlg=           0 DoJE=T BraDBF=F KetDBF=T FulRan=T
         wScrn=  0.000000 ICntrl=     500 IOpCl=  0 I1Cent=   200000004 NGrid=           0
         NMat0=    1 NMatS0=      1 NMatT0=    0 NMatD0=    1 NMtDS0=    0 NMtDT0=    0
 Petite list used in FoFCou.
 Initial guess orbital symmetries:
       Occupied  (A') (A') (A') (A') (A") (A') (A')
       Virtual   (A') (A") (A') (A') (A") (A') (A') (A') (A') (A")
                 (A') (A') (A') (A") (A') (A") (A') (A") (A') (A')
                 (A") (A') (A') (A') (A')
 The electronic state of the initial guess is 1-A'.
 Keep R1 ints in memory in symmetry-blocked form, NReq=991898.
 Requested convergence on RMS density matrix=1.00D-08 within 128 cycles.
 Requested convergence on MAX density matrix=1.00D-06.
 Requested convergence on             energy=1.00D-06.
 No special actions if energy rises.
 SCF Done:  E(RHF) =  -92.7043367201     A.U. after   12 cycles
            NFock= 12  Conv=0.42D-08     -V/T= 1.9927

 **********************************************************************

            Population analysis using the SCF density.

 **********************************************************************

 Orbital symmetries:
       Occupied  (A') (A') (A') (A') (A') (A") (A')
       Virtual   (A') (A") (A') (A') (A') (A") (A') (A') (A') (A")
                 (A') (A') (A') (A") (A') (A") (A') (A") (A') (A')
                 (A") (A') (A') (A') (A')
 The electronic state is 1-A'.
 Alpha  occ. eigenvalues --  -15.59716 -11.20806  -1.31581  -0.74786  -0.56068
 Alpha  occ. eigenvalues --   -0.55969  -0.43289
 Alpha virt. eigenvalues --    0.08895   0.28819   0.29026   0.48423   0.74695
 Alpha virt. eigenvalues --    0.75198   0.76867   0.83397   1.02465   1.04225
 Alpha virt. eigenvalues --    1.20913   1.42371   1.69118   1.74743   1.74889
 Alpha virt. eigenvalues --    2.00822   2.04484   2.38135   2.38261   2.98494
 Alpha virt. eigenvalues --    3.10152   3.12067   3.91878   4.19778   4.50761
          Condensed to atoms (all electrons):
               1          2          3
     1  N    6.382371   0.753117   0.253449
     2  C    0.753117   5.319727  -0.002752
     3  H    0.253449  -0.002752   0.290272
 Mulliken charges:
               1
     1  N   -0.388937
     2  C   -0.070093
     3  H    0.459030
 Sum of Mulliken charges =   0.00000
 Mulliken charges with hydrogens summed into heavy atoms:
               1
     1  N    0.070093
     2  C   -0.070093
 Electronic spatial extent (au):  <R**2>=             45.1358
 Charge=              0.0000 electrons
 Dipole moment (field-independent basis, Debye):
    X=             -0.8686    Y=              4.0898    Z=              0.0000  Tot=              4.1811
 Quadrupole moment (field-independent basis, Debye-Ang):
   XX=            -11.1259   YY=             -8.5790   ZZ=            -11.4785
   XY=             -1.3574   XZ=              0.0000   YZ=              0.0000
 Traceless Quadrupole moment (field-independent basis, Debye-Ang):
   XX=             -0.7314   YY=              1.8155   ZZ=             -1.0840
   XY=             -1.3574   XZ=              0.0000   YZ=              0.0000
 Octapole moment (field-independent basis, Debye-Ang**2):
  XXX=             -0.5638  YYY=             16.7977  ZZZ=              0.0000  XYY=             -2.6561
  XXY=              1.5484  XXZ=              0.0000  XZZ=             -0.1429  YZZ=              0.9933
  YYZ=              0.0000  XYZ=              0.0000
 Hexadecapole moment (field-independent basis, Debye-Ang**3):
 XXXX=            -10.5359 YYYY=            -28.2041 ZZZZ=            -10.1910 XXXY=              0.7632
 XXXZ=              0.0000 YYYX=             -2.9657 YYYZ=              0.0000 ZZZX=              0.0000
 ZZZY=              0.0000 XXYY=             -7.5660 XXZZ=             -3.4637 YYZZ=             -8.4812
 XXYZ=              0.0000 YYXZ=              0.0000 ZZXY=              0.3327
 N-N= 2.639817310127D+01 E-N=-2.707467876477D+02  KE= 9.338604197679D+01
 Symmetry A'   KE= 9.033026316930D+01
 Symmetry A"   KE= 3.055778807495D+00
 Calling FoFJK, ICntrl=      2127 FMM=F ISym2X=1 I1Cent= 0 IOpClX= 0 NMat=1 NMatS=1 NMatT=0.
 ***** Axes restored to original set *****
 -------------------------------------------------------------------
 Center     Atomic                   Forces (Hartrees/Bohr)
 Number     Number              X              Y              Z
 -------------------------------------------------------------------
      1        7           0.057540923    0.000000000   -0.809380020
      2        6          -0.007932935    0.000000000    0.672110865
      3        1          -0.049607988    0.000000000    0.137269155
 -------------------------------------------------------------------
 Cartesian Forces:  Max     0.809380020 RMS     0.354574345

 GradGradGradGradGradGradGradGradGradGradGradGradGradGradGradGradGradGrad
 Berny optimization.
 FormGI is forming the generalized inverse of G from B-inverse, IUseBI=4.
 Internal  Forces:  Max     0.670914329 RMS     0.343523394
 Search for a local minimum.
 Step number   1 out of a maximum of   20 on scan point     1 out of    31
 All quantities printed in internal units (Hartrees-Bohrs-Radians)
 Mixed Optimization -- RFO/linear search
 Second derivative matrix not updated -- first step.
 The second derivative matrix:
                          R1        R2        A1        A2
           R1           3.32740
           R2           0.00000   0.17328
           A1           0.00000   0.00000   0.16000
           A2           0.00000   0.00000   0.00000   0.16000
 ITU=  0
     Eigenvalues ---    0.17325   3.312051000.000001000.00000
 RFO step:  Lambda=-1.86264794D-01 EMin= 1.73245494D-01
 Linear search not attempted -- first point.
 Maximum step size (   0.300) exceeded in Quadratic search.
    -- Step size scaled by   0.673
 Iteration  1 RMS(Cart)=  0.07356213 RMS(Int)=  0.03525459
 Iteration  2 RMS(Cart)=  0.02871699 RMS(Int)=  0.00066341
 Iteration  3 RMS(Cart)=  0.00002078 RMS(Int)=  0.00066287
 Iteration  4 RMS(Cart)=  0.00000000 RMS(Int)=  0.00066287
 Iteration  1 RMS(Cart)=  0.00021478 RMS(Int)=  0.00051779
 Iteration  2 RMS(Cart)=  0.00016779 RMS(Int)=  0.00056030
 Iteration  3 RMS(Cart)=  0.00013107 RMS(Int)=  0.00064305
 Iteration  4 RMS(Cart)=  0.00010239 RMS(Int)=  0.00072815
 Iteration  5 RMS(Cart)=  0.00007998 RMS(Int)=  0.00080318
 Iteration  6 RMS(Cart)=  0.00006247 RMS(Int)=  0.00086564
 Iteration  7 RMS(Cart)=  0.00004880 RMS(Int)=  0.00091629
 Iteration  8 RMS(Cart)=  0.00003812 RMS(Int)=  0.00095681
 Iteration  9 RMS(Cart)=  0.00002977 RMS(Int)=  0.00098896
 Iteration 10 RMS(Cart)=  0.00002326 RMS(Int)=  0.00101436
 Iteration 11 RMS(Cart)=  0.00001816 RMS(Int)=  0.00103435
 Iteration 12 RMS(Cart)=  0.00001419 RMS(Int)=  0.00105006
 Iteration 13 RMS(Cart)=  0.00001108 RMS(Int)=  0.00106239
 Iteration 14 RMS(Cart)=  0.00000866 RMS(Int)=  0.00107204
 Iteration 15 RMS(Cart)=  0.00000676 RMS(Int)=  0.00107960
 Iteration 16 RMS(Cart)=  0.00000528 RMS(Int)=  0.00108552
 Iteration 17 RMS(Cart)=  0.00000413 RMS(Int)=  0.00109015
 Iteration 18 RMS(Cart)=  0.00000322 RMS(Int)=  0.00109377
 Iteration 19 RMS(Cart)=  0.00000252 RMS(Int)=  0.00109660
 Iteration 20 RMS(Cart)=  0.00000197 RMS(Int)=  0.00109881
 Iteration 21 RMS(Cart)=  0.00000154 RMS(Int)=  0.00110054
 Iteration 22 RMS(Cart)=  0.00000120 RMS(Int)=  0.00110189
 Iteration 23 RMS(Cart)=  0.00000094 RMS(Int)=  0.00110294
 ClnCor:  largest displacement from symmetrization is 2.22D-16 for atom     2.
 Variable       Old X    -DE/DX   Delta X   Delta X   Delta X     New X
                                 (Linear)    (Quad)   (Total)
    R1        1.88973   0.67091   0.00000   0.12831   0.12809   2.01782
    R2        2.50692  -0.14493   0.00000  -0.27018  -0.26998   2.23694
    A1        2.83579  -0.00213   0.00000  -0.02319  -0.02601   2.80978
    A2        0.17453  -0.02995   0.00000   0.00000   0.00000   0.17453
         Item               Value     Threshold  Converged?
 Maximum Force            0.667283     0.000015     NO 
 RMS     Force            0.395143     0.000010     NO 
 Maximum Displacement     0.138555     0.000060     NO 
 RMS     Displacement     0.097804     0.000040     NO 
 Predicted change in Energy=-9.145682D-02
 GradGradGradGradGradGradGradGradGradGradGradGradGradGradGradGradGradGrad

                          Input orientation:                          
 ---------------------------------------------------------------------
 Center     Atomic      Atomic             Coordinates (Angstroms)
 Number     Number       Type             X           Y           Z
 ---------------------------------------------------------------------
      1          7           0        0.004686    0.000000   -0.070544
      2          6           0        0.010339    0.000000    0.997223
      3          1           0        0.384366    0.000000   -1.191738
 ---------------------------------------------------------------------
                    Distance matrix (angstroms):
                    1          2          3
     1  N    0.000000
     2  C    1.067782   0.000000
     3  H    1.183737   2.220686   0.000000
 Stoichiometry    CHN
 Framework group  CS[SG(CHN)]
 Deg. of freedom     3
 Full point group                 CS      NOp   2
 Largest Abelian subgroup         CS      NOp   2
 Largest concise Abelian subgroup C1      NOp   1
                         Standard orientation:                         
 ---------------------------------------------------------------------
 Center     Atomic      Atomic             Coordinates (Angstroms)
 Number     Number       Type             X           Y           Z
 ---------------------------------------------------------------------
      1          7           0        0.027544    0.377680    0.000000
      2          6           0        0.027544   -0.690102    0.000000
      3          1           0       -0.358066    1.496849    0.000000
 ---------------------------------------------------------------------
 Rotational constants (GHZ):   4719.3567087     50.9143783     50.3709555
 Standard basis: 6-31G(d) (6D, 7F)
 There are    24 symmetry adapted cartesian basis functions of A'  symmetry.
 There are     8 symmetry adapted cartesian basis functions of A"  symmetry.
 There are    24 symmetry adapted basis functions of A'  symmetry.
 There are     8 symmetry adapted basis functions of A"  symmetry.
    32 basis functions,    60 primitive gaussians,    32 cartesian basis functions
     7 alpha electrons        7 beta electrons
       nuclear repulsion energy        25.3736317656 Hartrees.
 NAtoms=    3 NActive=    3 NUniq=    3 SFac= 1.00D+00 NAtFMM=   60 NAOKFM=F Big=F
 Integral buffers will be    131072 words long.
 Raffenetti 1 integral format.
 Two-electron integral symmetry is turned on.
 One-electron integrals computed using PRISM.
 NBasis=    32 RedAO= T EigKep=  5.64D-03  NBF=    24     8
 NBsUse=    32 1.00D-06 EigRej= -1.00D+00 NBFU=    24     8
 Initial guess from the checkpoint file:  "/home/maxb2/HNC.chk"
 B after Tr=     0.000000    0.000000    0.000000
         Rot=    0.999999    0.000000    0.000000   -0.001652 Ang=  -0.19 deg.
 Initial guess orbital symmetries:
       Occupied  (A') (A') (A') (A') (A') (A") (A')
       Virtual   (A') (A') (A') (A') (A') (A') (A') (A') (A') (A')
                 (A') (A') (A') (A') (A') (A') (A') (A') (A") (A")
                 (A") (A") (A") (A") (A")
 ExpMin= 1.61D-01 ExpMax= 4.17D+03 ExpMxC= 6.27D+02 IAcc=1 IRadAn=         1 AccDes= 0.00D+00
 Harris functional with IExCor=  205 and IRadAn=       1 diagonalized for initial guess.
 HarFok:  IExCor=  205 AccDes= 0.00D+00 IRadAn=         1 IDoV= 1 UseB2=F ITyADJ=14
 ICtDFT=  3500011 ScaDFX=  1.000000  1.000000  1.000000  1.000000
 FoFCou: FMM=F IPFlag=           0 FMFlag=      100000 FMFlg1=           0
         NFxFlg=           0 DoJE=T BraDBF=F KetDBF=T FulRan=T
         wScrn=  0.000000 ICntrl=     500 IOpCl=  0 I1Cent=   200000004 NGrid=           0
         NMat0=    1 NMatS0=      1 NMatT0=    0 NMatD0=    1 NMtDS0=    0 NMtDT0=    0
 Petite list used in FoFCou.
 Keep R1 ints in memory in symmetry-blocked form, NReq=991855.
 Requested convergence on RMS density matrix=1.00D-08 within 128 cycles.
 Requested convergence on MAX density matrix=1.00D-06.
 Requested convergence on             energy=1.00D-06.
 No special actions if energy rises.
 SCF Done:  E(RHF) =  -92.8022154988     A.U. after   13 cycles
            NFock= 13  Conv=0.31D-08     -V/T= 1.9983
 Calling FoFJK, ICntrl=      2127 FMM=F ISym2X=1 I1Cent= 0 IOpClX= 0 NMat=1 NMatS=1 NMatT=0.
 ***** Axes restored to original set *****
 -------------------------------------------------------------------
 Center     Atomic                   Forces (Hartrees/Bohr)
 Number     Number              X              Y              Z
 -------------------------------------------------------------------
      1        7           0.050010038    0.000000000   -0.422234557
      2        6          -0.004971232    0.000000000    0.307797813
      3        1          -0.045038806    0.000000000    0.114436744
 -------------------------------------------------------------------
 Cartesian Forces:  Max     0.422234557 RMS     0.179713196

 GradGradGradGradGradGradGradGradGradGradGradGradGradGradGradGradGradGrad
 Berny optimization.
 Using GEDIIS/GDIIS optimizer.
 FormGI is forming the generalized inverse of G from B-inverse, IUseBI=4.
 Internal  Forces:  Max     0.306980782 RMS     0.165472364
 Search for a local minimum.
 Step number   2 out of a maximum of   20 on scan point     1 out of    31
 All quantities printed in internal units (Hartrees-Bohrs-Radians)
 Mixed Optimization -- RFO/linear search
 Update second derivatives using D2CorX and points    1    2
 DE= -9.79D-02 DEPred=-9.15D-02 R= 1.07D+00
 TightC=F SS=  1.41D+00  RLast= 3.00D-01 DXNew= 5.0454D-01 8.9987D-01
 Trust test= 1.07D+00 RLast= 3.00D-01 DXMaxT set to 5.05D-01
 The second derivative matrix:
                          R1        R2        A1        A2
           R1           3.13256
           R2           0.13928   0.15061
           A1          -0.01113  -0.00054   0.16030
           A2          -0.07526   0.00472   0.00113   0.16226
 ITU=  1  0
 Use linear search instead of GDIIS.
 Linear search step of   0.532 exceeds DXMaxT=   0.505 but not scaled.
 Quartic linear search produced a step of  1.77335.
 Iteration  1 RMS(Cart)=  0.08476379 RMS(Int)=  0.14049089
 Iteration  2 RMS(Cart)=  0.07670692 RMS(Int)=  0.04000232
 Iteration  3 RMS(Cart)=  0.03231732 RMS(Int)=  0.00402980
 Iteration  4 RMS(Cart)=  0.00007316 RMS(Int)=  0.00402866
 Iteration  5 RMS(Cart)=  0.00000008 RMS(Int)=  0.00402866
 Iteration  1 RMS(Cart)=  0.00112473 RMS(Int)=  0.00337419
 Iteration  2 RMS(Cart)=  0.00094116 RMS(Int)=  0.00359767
 Iteration  3 RMS(Cart)=  0.00078741 RMS(Int)=  0.00407931
 Iteration  4 RMS(Cart)=  0.00065867 RMS(Int)=  0.00462685
 Iteration  5 RMS(Cart)=  0.00055091 RMS(Int)=  0.00515412
 Iteration  6 RMS(Cart)=  0.00046073 RMS(Int)=  0.00562993
 Iteration  7 RMS(Cart)=  0.00038528 RMS(Int)=  0.00604638
 Iteration  8 RMS(Cart)=  0.00032216 RMS(Int)=  0.00640502
 Iteration  9 RMS(Cart)=  0.00026936 RMS(Int)=  0.00671098
 Iteration 10 RMS(Cart)=  0.00022520 RMS(Int)=  0.00697048
 Iteration 11 RMS(Cart)=  0.00018828 RMS(Int)=  0.00718973
 Iteration 12 RMS(Cart)=  0.00015740 RMS(Int)=  0.00737447
 Iteration 13 RMS(Cart)=  0.00013158 RMS(Int)=  0.00752986
 Iteration 14 RMS(Cart)=  0.00011000 RMS(Int)=  0.00766038
 Iteration 15 RMS(Cart)=  0.00009195 RMS(Int)=  0.00776989
 Iteration 16 RMS(Cart)=  0.00007686 RMS(Int)=  0.00786170
 Iteration 17 RMS(Cart)=  0.00006425 RMS(Int)=  0.00793864
 Iteration 18 RMS(Cart)=  0.00005371 RMS(Int)=  0.00800307
 Iteration 19 RMS(Cart)=  0.00004489 RMS(Int)=  0.00805702
 Iteration 20 RMS(Cart)=  0.00003752 RMS(Int)=  0.00810216
 Iteration 21 RMS(Cart)=  0.00003136 RMS(Int)=  0.00813994
 Iteration 22 RMS(Cart)=  0.00002622 RMS(Int)=  0.00817155
 Iteration 23 RMS(Cart)=  0.00002191 RMS(Int)=  0.00819799
 Iteration 24 RMS(Cart)=  0.00001832 RMS(Int)=  0.00822010
 Iteration 25 RMS(Cart)=  0.00001531 RMS(Int)=  0.00823859
 Iteration 26 RMS(Cart)=  0.00001280 RMS(Int)=  0.00825405
 Iteration 27 RMS(Cart)=  0.00001070 RMS(Int)=  0.00826698
 Iteration 28 RMS(Cart)=  0.00000894 RMS(Int)=  0.00827779
 Iteration 29 RMS(Cart)=  0.00000747 RMS(Int)=  0.00828682
 Iteration 30 RMS(Cart)=  0.00000625 RMS(Int)=  0.00829438
 Iteration 31 RMS(Cart)=  0.00000522 RMS(Int)=  0.00830069
 Iteration 32 RMS(Cart)=  0.00000436 RMS(Int)=  0.00830597
 Iteration 33 RMS(Cart)=  0.00000365 RMS(Int)=  0.00831039
 Iteration 34 RMS(Cart)=  0.00000305 RMS(Int)=  0.00831408
 Iteration 35 RMS(Cart)=  0.00000255 RMS(Int)=  0.00831716
 Iteration 36 RMS(Cart)=  0.00000213 RMS(Int)=  0.00831974
 Iteration 37 RMS(Cart)=  0.00000178 RMS(Int)=  0.00832189
 Iteration 38 RMS(Cart)=  0.00000149 RMS(Int)=  0.00832369
 Iteration 39 RMS(Cart)=  0.00000124 RMS(Int)=  0.00832520
 Iteration 40 RMS(Cart)=  0.00000104 RMS(Int)=  0.00832646
 Iteration 41 RMS(Cart)=  0.00000087 RMS(Int)=  0.00832751
 ClnCor:  largest displacement from symmetrization is 1.86D-15 for atom     3.
 Variable       Old X    -DE/DX   Delta X   Delta X   Delta X     New X
                                 (Linear)    (Quad)   (Total)
    R1        2.01782   0.30698   0.22715   0.00000   0.22522   2.24303
    R2        2.23694  -0.12213  -0.47878   0.00000  -0.47630   1.76064
    A1        2.80978   0.00331  -0.04612   0.00000  -0.06578   2.74400
    A2        0.17453  -0.01901  -0.00001   0.00000   0.00000   0.17453
         Item               Value     Threshold  Converged?
 Maximum Force            0.304175     0.000015     NO 
 RMS     Force            0.189626     0.000010     NO 
 Maximum Displacement     0.248271     0.000060     NO 
 RMS     Displacement     0.174430     0.000040     NO 
 Predicted change in Energy=-4.500587D-02
 GradGradGradGradGradGradGradGradGradGradGradGradGradGradGradGradGradGrad

                          Input orientation:                          
 ---------------------------------------------------------------------
 Center     Atomic      Atomic             Coordinates (Angstroms)
 Number     Number       Type             X           Y           Z
 ---------------------------------------------------------------------
      1          7           0        0.011169    0.000000   -0.195756
      2          6           0        0.029907    0.000000    0.991057
      3          1           0        0.358314    0.000000   -1.060358
 ---------------------------------------------------------------------
                    Distance matrix (angstroms):
                    1          2          3
     1  N    0.000000
     2  C    1.186961   0.000000
     3  H    0.931690   2.077536   0.000000
 Stoichiometry    CHN
 Framework group  CS[SG(CHN)]
 Deg. of freedom     3
 Full point group                 CS      NOp   2
 Largest Abelian subgroup         CS      NOp   2
 Largest concise Abelian subgroup C1      NOp   1
                         Standard orientation:                         
 ---------------------------------------------------------------------
 Center     Atomic      Atomic             Coordinates (Angstroms)
 Number     Number       Type             X           Y           Z
 ---------------------------------------------------------------------
      1          7           0        0.025768    0.447339    0.000000
      2          6           0        0.025768   -0.739622    0.000000
      3          1           0       -0.334983    1.306354    0.000000
 ---------------------------------------------------------------------
 Rotational constants (GHZ):   4856.3816860     45.7492250     45.3222696
 Standard basis: 6-31G(d) (6D, 7F)
 There are    24 symmetry adapted cartesian basis functions of A'  symmetry.
 There are     8 symmetry adapted cartesian basis functions of A"  symmetry.
 There are    24 symmetry adapted basis functions of A'  symmetry.
 There are     8 symmetry adapted basis functions of A"  symmetry.
    32 basis functions,    60 primitive gaussians,    32 cartesian basis functions
     7 alpha electrons        7 beta electrons
       nuclear repulsion energy        24.2287731196 Hartrees.
 NAtoms=    3 NActive=    3 NUniq=    3 SFac= 1.00D+00 NAtFMM=   60 NAOKFM=F Big=F
 Integral buffers will be    131072 words long.
 Raffenetti 1 integral format.
 Two-electron integral symmetry is turned on.
 One-electron integrals computed using PRISM.
 NBasis=    32 RedAO= T EigKep=  8.87D-03  NBF=    24     8
 NBsUse=    32 1.00D-06 EigRej= -1.00D+00 NBFU=    24     8
 Initial guess from the checkpoint file:  "/home/maxb2/HNC.chk"
 B after Tr=     0.000000    0.000000    0.000000
         Rot=    0.999996    0.000000    0.000000   -0.002863 Ang=  -0.33 deg.
 Initial guess orbital symmetries:
       Occupied  (A') (A') (A') (A') (A') (A") (A')
       Virtual   (A') (A') (A') (A') (A') (A') (A') (A') (A') (A')
                 (A') (A') (A') (A') (A') (A') (A') (A') (A") (A")
                 (A") (A") (A") (A") (A")
 ExpMin= 1.61D-01 ExpMax= 4.17D+03 ExpMxC= 6.27D+02 IAcc=1 IRadAn=         1 AccDes= 0.00D+00
 Harris functional with IExCor=  205 and IRadAn=       1 diagonalized for initial guess.
 HarFok:  IExCor=  205 AccDes= 0.00D+00 IRadAn=         1 IDoV= 1 UseB2=F ITyADJ=14
 ICtDFT=  3500011 ScaDFX=  1.000000  1.000000  1.000000  1.000000
 FoFCou: FMM=F IPFlag=           0 FMFlag=      100000 FMFlg1=           0
         NFxFlg=           0 DoJE=T BraDBF=F KetDBF=T FulRan=T
         wScrn=  0.000000 ICntrl=     500 IOpCl=  0 I1Cent=   200000004 NGrid=           0
         NMat0=    1 NMatS0=      1 NMatT0=    0 NMatD0=    1 NMtDS0=    0 NMtDT0=    0
 Petite list used in FoFCou.
 Keep R1 ints in memory in symmetry-blocked form, NReq=991855.
 Requested convergence on RMS density matrix=1.00D-08 within 128 cycles.
 Requested convergence on MAX density matrix=1.00D-06.
 Requested convergence on             energy=1.00D-06.
 No special actions if energy rises.
 SCF Done:  E(RHF) =  -92.8475121046     A.U. after   13 cycles
            NFock= 13  Conv=0.62D-08     -V/T= 2.0019
 Calling FoFJK, ICntrl=      2127 FMM=F ISym2X=1 I1Cent= 0 IOpClX= 0 NMat=1 NMatS=1 NMatT=0.
 ***** Axes restored to original set *****
 -------------------------------------------------------------------
 Center     Atomic                   Forces (Hartrees/Bohr)
 Number     Number              X              Y              Z
 -------------------------------------------------------------------
      1        7          -0.016512797    0.000000000    0.137619676
      2        6          -0.005477205    0.000000000   -0.067784620
      3        1           0.021990001    0.000000000   -0.069835056
 -------------------------------------------------------------------
 Cartesian Forces:  Max     0.137619676 RMS     0.056957194

 GradGradGradGradGradGradGradGradGradGradGradGradGradGradGradGradGradGrad
 Berny optimization.
 Using GEDIIS/GDIIS optimizer.
 FormGI is forming the generalized inverse of G from B-inverse, IUseBI=4.
 Internal  Forces:  Max     0.072868362 RMS     0.050063689
 Search for a local minimum.
 Step number   3 out of a maximum of   20 on scan point     1 out of    31
 All quantities printed in internal units (Hartrees-Bohrs-Radians)
 Mixed Optimization -- RFO/linear search
 Update second derivatives using D2CorX and points    2    3
 The second derivative matrix:
                          R1        R2        A1        A2
           R1           1.42827
           R2          -0.11456   0.35458
           A1           0.02273   0.00464   0.15963
           A2          -0.04513   0.02339   0.00054   0.16256
 ITU=  0  1  0
 Use linear search instead of GDIIS.
     Eigenvalues ---    0.34161   1.419231000.000001000.00000
 RFO step:  Lambda=-1.26601617D-03 EMin= 3.41612324D-01
 Quartic linear search produced a step of -0.24046.
 Iteration  1 RMS(Cart)=  0.06150741 RMS(Int)=  0.00084911
 Iteration  2 RMS(Cart)=  0.00052830 RMS(Int)=  0.00049815
 Iteration  3 RMS(Cart)=  0.00000028 RMS(Int)=  0.00049815
 Iteration  1 RMS(Cart)=  0.00014852 RMS(Int)=  0.00040657
 Iteration  2 RMS(Cart)=  0.00012182 RMS(Int)=  0.00043550
 Iteration  3 RMS(Cart)=  0.00009993 RMS(Int)=  0.00049602
 Iteration  4 RMS(Cart)=  0.00008197 RMS(Int)=  0.00056281
 Iteration  5 RMS(Cart)=  0.00006724 RMS(Int)=  0.00062549
 Iteration  6 RMS(Cart)=  0.00005515 RMS(Int)=  0.00068075
 Iteration  7 RMS(Cart)=  0.00004524 RMS(Int)=  0.00072808
 Iteration  8 RMS(Cart)=  0.00003711 RMS(Int)=  0.00076800
 Iteration  9 RMS(Cart)=  0.00003045 RMS(Int)=  0.00080136
 Iteration 10 RMS(Cart)=  0.00002498 RMS(Int)=  0.00082910
 Iteration 11 RMS(Cart)=  0.00002049 RMS(Int)=  0.00085208
 Iteration 12 RMS(Cart)=  0.00001681 RMS(Int)=  0.00087107
 Iteration 13 RMS(Cart)=  0.00001379 RMS(Int)=  0.00088674
 Iteration 14 RMS(Cart)=  0.00001131 RMS(Int)=  0.00089964
 Iteration 15 RMS(Cart)=  0.00000928 RMS(Int)=  0.00091027
 Iteration 16 RMS(Cart)=  0.00000761 RMS(Int)=  0.00091901
 Iteration 17 RMS(Cart)=  0.00000624 RMS(Int)=  0.00092619
 Iteration 18 RMS(Cart)=  0.00000512 RMS(Int)=  0.00093209
 Iteration 19 RMS(Cart)=  0.00000420 RMS(Int)=  0.00093694
 Iteration 20 RMS(Cart)=  0.00000345 RMS(Int)=  0.00094092
 Iteration 21 RMS(Cart)=  0.00000283 RMS(Int)=  0.00094419
 Iteration 22 RMS(Cart)=  0.00000232 RMS(Int)=  0.00094688
 Iteration 23 RMS(Cart)=  0.00000190 RMS(Int)=  0.00094908
 Iteration 24 RMS(Cart)=  0.00000156 RMS(Int)=  0.00095089
 Iteration 25 RMS(Cart)=  0.00000128 RMS(Int)=  0.00095237
 Iteration 26 RMS(Cart)=  0.00000105 RMS(Int)=  0.00095359
 Iteration 27 RMS(Cart)=  0.00000086 RMS(Int)=  0.00095459
 ClnCor:  largest displacement from symmetrization is 6.94D-18 for atom     2.
 Variable       Old X    -DE/DX   Delta X   Delta X   Delta X     New X
                                 (Linear)    (Quad)   (Total)
    R1        2.24303  -0.06776  -0.05416   0.02318  -0.03077   2.21227
    R2        1.76064   0.07287   0.11453   0.04534   0.15963   1.92027
    A1        2.74400   0.01090   0.01582   0.00351   0.02164   2.76564
    A2        0.17453   0.00233   0.00000   0.00000   0.00001   0.17454
         Item               Value     Threshold  Converged?
 Maximum Force            0.072199     0.000015     NO 
 RMS     Force            0.057713     0.000010     NO 
 Maximum Displacement     0.097202     0.000060     NO 
 RMS     Displacement     0.061767     0.000040     NO 
 Predicted change in Energy=-8.157979D-03
 GradGradGradGradGradGradGradGradGradGradGradGradGradGradGradGradGradGrad

                          Input orientation:                          
 ---------------------------------------------------------------------
 Center     Atomic      Atomic             Coordinates (Angstroms)
 Number     Number       Type             X           Y           Z
 ---------------------------------------------------------------------
      1          7           0        0.007817    0.000000   -0.161924
      2          6           0        0.022746    0.000000    1.008662
      3          1           0        0.368828    0.000000   -1.111796
 ---------------------------------------------------------------------
                    Distance matrix (angstroms):
                    1          2          3
     1  N    0.000000
     2  C    1.170681   0.000000
     3  H    1.016162   2.148514   0.000000
 Stoichiometry    CHN
 Framework group  CS[SG(CHN)]
 Deg. of freedom     3
 Full point group                 CS      NOp   2
 Largest Abelian subgroup         CS      NOp   2
 Largest concise Abelian subgroup C1      NOp   1
                         Standard orientation:                         
 ---------------------------------------------------------------------
 Center     Atomic      Atomic             Coordinates (Angstroms)
 Number     Number       Type             X           Y           Z
 ---------------------------------------------------------------------
      1          7           0        0.026650    0.434207    0.000000
      2          6           0        0.026650   -0.736474    0.000000
      3          1           0       -0.346445    1.379398    0.000000
 ---------------------------------------------------------------------
 Rotational constants (GHZ):   4657.8120224     45.8444715     45.3976456
 Standard basis: 6-31G(d) (6D, 7F)
 There are    24 symmetry adapted cartesian basis functions of A'  symmetry.
 There are     8 symmetry adapted cartesian basis functions of A"  symmetry.
 There are    24 symmetry adapted basis functions of A'  symmetry.
 There are     8 symmetry adapted basis functions of A"  symmetry.
    32 basis functions,    60 primitive gaussians,    32 cartesian basis functions
     7 alpha electrons        7 beta electrons
       nuclear repulsion energy        24.1081800318 Hartrees.
 NAtoms=    3 NActive=    3 NUniq=    3 SFac= 1.00D+00 NAtFMM=   60 NAOKFM=F Big=F
 Integral buffers will be    131072 words long.
 Raffenetti 1 integral format.
 Two-electron integral symmetry is turned on.
 One-electron integrals computed using PRISM.
 NBasis=    32 RedAO= T EigKep=  8.30D-03  NBF=    24     8
 NBsUse=    32 1.00D-06 EigRej= -1.00D+00 NBFU=    24     8
 Initial guess from the checkpoint file:  "/home/maxb2/HNC.chk"
 B after Tr=     0.000000    0.000000    0.000000
         Rot=    1.000000    0.000000    0.000000    0.000780 Ang=   0.09 deg.
 Initial guess orbital symmetries:
       Occupied  (A') (A') (A') (A') (A') (A") (A')
       Virtual   (A') (A') (A') (A') (A') (A') (A') (A') (A') (A')
                 (A') (A') (A') (A') (A') (A') (A') (A') (A") (A")
                 (A") (A") (A") (A") (A")
 ExpMin= 1.61D-01 ExpMax= 4.17D+03 ExpMxC= 6.27D+02 IAcc=1 IRadAn=         1 AccDes= 0.00D+00
 Harris functional with IExCor=  205 and IRadAn=       1 diagonalized for initial guess.
 HarFok:  IExCor=  205 AccDes= 0.00D+00 IRadAn=         1 IDoV= 1 UseB2=F ITyADJ=14
 ICtDFT=  3500011 ScaDFX=  1.000000  1.000000  1.000000  1.000000
 FoFCou: FMM=F IPFlag=           0 FMFlag=      100000 FMFlg1=           0
         NFxFlg=           0 DoJE=T BraDBF=F KetDBF=T FulRan=T
         wScrn=  0.000000 ICntrl=     500 IOpCl=  0 I1Cent=   200000004 NGrid=           0
         NMat0=    1 NMatS0=      1 NMatT0=    0 NMatD0=    1 NMtDS0=    0 NMtDT0=    0
 Petite list used in FoFCou.
 Keep R1 ints in memory in symmetry-blocked form, NReq=991855.
 Requested convergence on RMS density matrix=1.00D-08 within 128 cycles.
 Requested convergence on MAX density matrix=1.00D-06.
 Requested convergence on             energy=1.00D-06.
 No special actions if energy rises.
 SCF Done:  E(RHF) =  -92.8520815774     A.U. after   12 cycles
            NFock= 12  Conv=0.21D-08     -V/T= 2.0029
 Calling FoFJK, ICntrl=      2127 FMM=F ISym2X=1 I1Cent= 0 IOpClX= 0 NMat=1 NMatS=1 NMatT=0.
 ***** Axes restored to original set *****
 -------------------------------------------------------------------
 Center     Atomic                   Forces (Hartrees/Bohr)
 Number     Number              X              Y              Z
 -------------------------------------------------------------------
      1        7           0.019102091    0.000000000    0.005250952
      2        6          -0.004506696    0.000000000   -0.030293219
      3        1          -0.014595395    0.000000000    0.025042267
 -------------------------------------------------------------------
 Cartesian Forces:  Max     0.030293219 RMS     0.015529873

 GradGradGradGradGradGradGradGradGradGradGradGradGradGradGradGradGradGrad
 Berny optimization.
 Using GEDIIS/GDIIS optimizer.
 FormGI is forming the generalized inverse of G from B-inverse, IUseBI=4.
 Internal  Forces:  Max     0.030500314 RMS     0.021250225
 Search for a local minimum.
 Step number   4 out of a maximum of   20 on scan point     1 out of    31
 All quantities printed in internal units (Hartrees-Bohrs-Radians)
 Mixed Optimization -- RFO/linear search
 Update second derivatives using D2CorX and points    2    3    4
 DE= -4.57D-03 DEPred=-8.16D-03 R= 5.60D-01
 TightC=F SS=  1.41D+00  RLast= 1.64D-01 DXNew= 8.4853D-01 4.9200D-01
 Trust test= 5.60D-01 RLast= 1.64D-01 DXMaxT set to 5.05D-01
 The second derivative matrix:
                          R1        R2        A1        A2
           R1           1.38889
           R2           0.02958   0.63931
           A1           0.03462   0.00665   0.15906
           A2          -0.03546   0.03004   0.00009   0.16239
 ITU=  1  0  1  0
 Use linear search instead of GDIIS.
     Eigenvalues ---    0.63350   1.374801000.000001000.00000
 RFO step:  Lambda=-1.18651667D-03 EMin= 6.33495836D-01
 Quartic linear search produced a step of -0.24007.
 Iteration  1 RMS(Cart)=  0.02531781 RMS(Int)=  0.00008371
 Iteration  2 RMS(Cart)=  0.00002837 RMS(Int)=  0.00007484
 Iteration  3 RMS(Cart)=  0.00000000 RMS(Int)=  0.00007484
 Iteration  1 RMS(Cart)=  0.00002227 RMS(Int)=  0.00006254
 Iteration  2 RMS(Cart)=  0.00001832 RMS(Int)=  0.00006694
 Iteration  3 RMS(Cart)=  0.00001508 RMS(Int)=  0.00007619
 Iteration  4 RMS(Cart)=  0.00001240 RMS(Int)=  0.00008645
 Iteration  5 RMS(Cart)=  0.00001021 RMS(Int)=  0.00009612
 Iteration  6 RMS(Cart)=  0.00000840 RMS(Int)=  0.00010468
 Iteration  7 RMS(Cart)=  0.00000691 RMS(Int)=  0.00011203
 Iteration  8 RMS(Cart)=  0.00000569 RMS(Int)=  0.00011825
 Iteration  9 RMS(Cart)=  0.00000468 RMS(Int)=  0.00012346
 Iteration 10 RMS(Cart)=  0.00000385 RMS(Int)=  0.00012781
 Iteration 11 RMS(Cart)=  0.00000317 RMS(Int)=  0.00013143
 Iteration 12 RMS(Cart)=  0.00000261 RMS(Int)=  0.00013443
 Iteration 13 RMS(Cart)=  0.00000214 RMS(Int)=  0.00013691
 Iteration 14 RMS(Cart)=  0.00000176 RMS(Int)=  0.00013896
 Iteration 15 RMS(Cart)=  0.00000145 RMS(Int)=  0.00014065
 Iteration 16 RMS(Cart)=  0.00000119 RMS(Int)=  0.00014205
 Iteration 17 RMS(Cart)=  0.00000098 RMS(Int)=  0.00014320
 ClnCor:  largest displacement from symmetrization is 2.26D-15 for atom     3.
 Variable       Old X    -DE/DX   Delta X   Delta X   Delta X     New X
                                 (Linear)    (Quad)   (Total)
    R1        2.21227  -0.03050   0.00739  -0.02816  -0.02074   2.19152
    R2        1.92027  -0.02842  -0.03832  -0.01042  -0.04878   1.87149
    A1        2.76564   0.00747  -0.00519   0.00149  -0.00336   2.76228
    A2        0.17454  -0.00356   0.00000   0.00000   0.00000   0.17454
         Item               Value     Threshold  Converged?
 Maximum Force            0.031195     0.000015     NO 
 RMS     Force            0.024055     0.000010     NO 
 Maximum Displacement     0.038593     0.000060     NO 
 RMS     Displacement     0.025287     0.000040     NO 
 Predicted change in Energy=-9.000868D-04
 GradGradGradGradGradGradGradGradGradGradGradGradGradGradGradGradGradGrad

                          Input orientation:                          
 ---------------------------------------------------------------------
 Center     Atomic      Atomic             Coordinates (Angstroms)
 Number     Number       Type             X           Y           Z
 ---------------------------------------------------------------------
      1          7           0        0.009846    0.000000   -0.166644
      2          6           0        0.025204    0.000000    0.992959
      3          1           0        0.364341    0.000000   -1.091373
 ---------------------------------------------------------------------
                    Distance matrix (angstroms):
                    1          2          3
     1  N    0.000000
     2  C    1.159704   0.000000
     3  H    0.990349   2.111742   0.000000
 Stoichiometry    CHN
 Framework group  CS[SG(CHN)]
 Deg. of freedom     3
 Full point group                 CS      NOp   2
 Largest Abelian subgroup         CS      NOp   2
 Largest concise Abelian subgroup C1      NOp   1
                         Standard orientation:                         
 ---------------------------------------------------------------------
 Center     Atomic      Atomic             Coordinates (Angstroms)
 Number     Number       Type             X           Y           Z
 ---------------------------------------------------------------------
      1          7           0        0.026194    0.431305    0.000000
      2          6           0        0.026194   -0.728399    0.000000
      3          1           0       -0.340517    1.351259    0.000000
 ---------------------------------------------------------------------
 Rotational constants (GHZ):   4800.2891616     46.9218299     46.4676186
 Standard basis: 6-31G(d) (6D, 7F)
 There are    24 symmetry adapted cartesian basis functions of A'  symmetry.
 There are     8 symmetry adapted cartesian basis functions of A"  symmetry.
 There are    24 symmetry adapted basis functions of A'  symmetry.
 There are     8 symmetry adapted basis functions of A"  symmetry.
    32 basis functions,    60 primitive gaussians,    32 cartesian basis functions
     7 alpha electrons        7 beta electrons
       nuclear repulsion energy        24.4086166914 Hartrees.
 NAtoms=    3 NActive=    3 NUniq=    3 SFac= 1.00D+00 NAtFMM=   60 NAOKFM=F Big=F
 Integral buffers will be    131072 words long.
 Raffenetti 1 integral format.
 Two-electron integral symmetry is turned on.
 One-electron integrals computed using PRISM.
 NBasis=    32 RedAO= T EigKep=  7.99D-03  NBF=    24     8
 NBsUse=    32 1.00D-06 EigRej= -1.00D+00 NBFU=    24     8
 Initial guess from the checkpoint file:  "/home/maxb2/HNC.chk"
 B after Tr=     0.000000    0.000000    0.000000
         Rot=    1.000000    0.000000    0.000000   -0.000130 Ang=  -0.01 deg.
 Initial guess orbital symmetries:
       Occupied  (A') (A') (A') (A') (A') (A") (A')
       Virtual   (A') (A') (A') (A') (A') (A') (A') (A') (A') (A')
                 (A') (A') (A') (A') (A') (A') (A') (A') (A") (A")
                 (A") (A") (A") (A") (A")
 ExpMin= 1.61D-01 ExpMax= 4.17D+03 ExpMxC= 6.27D+02 IAcc=1 IRadAn=         1 AccDes= 0.00D+00
 Harris functional with IExCor=  205 and IRadAn=       1 diagonalized for initial guess.
 HarFok:  IExCor=  205 AccDes= 0.00D+00 IRadAn=         1 IDoV= 1 UseB2=F ITyADJ=14
 ICtDFT=  3500011 ScaDFX=  1.000000  1.000000  1.000000  1.000000
 FoFCou: FMM=F IPFlag=           0 FMFlag=      100000 FMFlg1=           0
         NFxFlg=           0 DoJE=T BraDBF=F KetDBF=T FulRan=T
         wScrn=  0.000000 ICntrl=     500 IOpCl=  0 I1Cent=   200000004 NGrid=           0
         NMat0=    1 NMatS0=      1 NMatT0=    0 NMatD0=    1 NMtDS0=    0 NMtDT0=    0
 Petite list used in FoFCou.
 Keep R1 ints in memory in symmetry-blocked form, NReq=991855.
 Requested convergence on RMS density matrix=1.00D-08 within 128 cycles.
 Requested convergence on MAX density matrix=1.00D-06.
 Requested convergence on             energy=1.00D-06.
 No special actions if energy rises.
 SCF Done:  E(RHF) =  -92.8532059659     A.U. after   10 cycles
            NFock= 10  Conv=0.59D-08     -V/T= 2.0018
 Calling FoFJK, ICntrl=      2127 FMM=F ISym2X=1 I1Cent= 0 IOpClX= 0 NMat=1 NMatS=1 NMatT=0.
 ***** Axes restored to original set *****
 -------------------------------------------------------------------
 Center     Atomic                   Forces (Hartrees/Bohr)
 Number     Number              X              Y              Z
 -------------------------------------------------------------------
      1        7           0.011559430    0.000000000    0.002924318
      2        6          -0.004967741    0.000000000   -0.004044329
      3        1          -0.006591689    0.000000000    0.001120011
 -------------------------------------------------------------------
 Cartesian Forces:  Max     0.011559430 RMS     0.005032250

 GradGradGradGradGradGradGradGradGradGradGradGradGradGradGradGradGradGrad
 Berny optimization.
 Using GEDIIS/GDIIS optimizer.
 FormGI is forming the generalized inverse of G from B-inverse, IUseBI=4.
 Internal  Forces:  Max     0.008902415 RMS     0.005576160
 Search for a local minimum.
 Step number   5 out of a maximum of   20 on scan point     1 out of    31
 All quantities printed in internal units (Hartrees-Bohrs-Radians)
 Mixed Optimization -- RFO/linear search
 Update second derivatives using D2CorX and points    2    3    4    5
 DE= -1.12D-03 DEPred=-9.00D-04 R= 1.25D+00
 TightC=F SS=  1.41D+00  RLast= 5.31D-02 DXNew= 8.4853D-01 1.5934D-01
 Trust test= 1.25D+00 RLast= 5.31D-02 DXMaxT set to 5.05D-01
 The second derivative matrix:
                          R1        R2        A1        A2
           R1           1.34155
           R2          -0.03558   0.53195
           A1           0.03632   0.00305   0.15878
           A2          -0.06079   0.01550  -0.00097   0.16312
 ITU=  1  1  0  1  0
 Use linear search instead of GDIIS.
     Eigenvalues ---    0.52712   1.324671000.000001000.00000
 RFO step:  Lambda=-4.61048859D-06 EMin= 5.27120983D-01
 Quartic linear search produced a step of  0.11233.
 Iteration  1 RMS(Cart)=  0.00271818 RMS(Int)=  0.00000213
 Iteration  2 RMS(Cart)=  0.00000004 RMS(Int)=  0.00000213
 Iteration  1 RMS(Cart)=  0.00000020 RMS(Int)=  0.00000055
 ClnCor:  largest displacement from symmetrization is 7.89D-31 for atom     3.
 Variable       Old X    -DE/DX   Delta X   Delta X   Delta X     New X
                                 (Linear)    (Quad)   (Total)
    R1        2.19152  -0.00429  -0.00233  -0.00153  -0.00386   2.18766
    R2        1.87149  -0.00320  -0.00548   0.00157  -0.00391   1.86758
    A1        2.76228   0.00890  -0.00038   0.00032  -0.00006   2.76222
    A2        0.17454  -0.00406   0.00000   0.00000   0.00000   0.17453
         Item               Value     Threshold  Converged?
 Maximum Force            0.005108     0.000015     NO 
 RMS     Force            0.003222     0.000010     NO 
 Maximum Displacement     0.003801     0.000060     NO 
 RMS     Displacement     0.002718     0.000040     NO 
 Predicted change in Energy=-1.500433D-05
 GradGradGradGradGradGradGradGradGradGradGradGradGradGradGradGradGradGrad

                          Input orientation:                          
 ---------------------------------------------------------------------
 Center     Atomic      Atomic             Coordinates (Angstroms)
 Number     Number       Type             X           Y           Z
 ---------------------------------------------------------------------
      1          7           0        0.010083    0.000000   -0.166612
      2          6           0        0.025421    0.000000    0.990948
      3          1           0        0.363887    0.000000   -1.089393
 ---------------------------------------------------------------------
                    Distance matrix (angstroms):
                    1          2          3
     1  N    0.000000
     2  C    1.157662   0.000000
     3  H    0.988282   2.107695   0.000000
 Stoichiometry    CHN
 Framework group  CS[SG(CHN)]
 Deg. of freedom     3
 Full point group                 CS      NOp   2
 Largest Abelian subgroup         CS      NOp   2
 Largest concise Abelian subgroup C1      NOp   1
                         Standard orientation:                         
 ---------------------------------------------------------------------
 Center     Atomic      Atomic             Coordinates (Angstroms)
 Number     Number       Type             X           Y           Z
 ---------------------------------------------------------------------
      1          7           0        0.026143    0.430568    0.000000
      2          6           0        0.026143   -0.727093    0.000000
      3          1           0       -0.339857    1.348581    0.000000
 ---------------------------------------------------------------------
 Rotational constants (GHZ):   4818.5455338     47.0916005     46.6358289
 Standard basis: 6-31G(d) (6D, 7F)
 There are    24 symmetry adapted cartesian basis functions of A'  symmetry.
 There are     8 symmetry adapted cartesian basis functions of A"  symmetry.
 There are    24 symmetry adapted basis functions of A'  symmetry.
 There are     8 symmetry adapted basis functions of A"  symmetry.
    32 basis functions,    60 primitive gaussians,    32 cartesian basis functions
     7 alpha electrons        7 beta electrons
       nuclear repulsion energy        24.4531394387 Hartrees.
 NAtoms=    3 NActive=    3 NUniq=    3 SFac= 1.00D+00 NAtFMM=   60 NAOKFM=F Big=F
 Integral buffers will be    131072 words long.
 Raffenetti 1 integral format.
 Two-electron integral symmetry is turned on.
 One-electron integrals computed using PRISM.
 NBasis=    32 RedAO= T EigKep=  7.94D-03  NBF=    24     8
 NBsUse=    32 1.00D-06 EigRej= -1.00D+00 NBFU=    24     8
 Initial guess from the checkpoint file:  "/home/maxb2/HNC.chk"
 B after Tr=     0.000000    0.000000    0.000000
         Rot=    1.000000    0.000000    0.000000   -0.000002 Ang=   0.00 deg.
 Initial guess orbital symmetries:
       Occupied  (A') (A') (A') (A') (A') (A") (A')
       Virtual   (A') (A') (A') (A') (A') (A') (A') (A') (A') (A')
                 (A') (A') (A') (A') (A') (A') (A') (A') (A") (A")
                 (A") (A") (A") (A") (A")
 Keep R1 ints in memory in symmetry-blocked form, NReq=991855.
 Requested convergence on RMS density matrix=1.00D-08 within 128 cycles.
 Requested convergence on MAX density matrix=1.00D-06.
 Requested convergence on             energy=1.00D-06.
 No special actions if energy rises.
 SCF Done:  E(RHF) =  -92.8532203849     A.U. after    9 cycles
            NFock=  9  Conv=0.70D-08     -V/T= 2.0017
 Calling FoFJK, ICntrl=      2127 FMM=F ISym2X=1 I1Cent= 0 IOpClX= 0 NMat=1 NMatS=1 NMatT=0.
 ***** Axes restored to original set *****
 -------------------------------------------------------------------
 Center     Atomic                   Forces (Hartrees/Bohr)
 Number     Number              X              Y              Z
 -------------------------------------------------------------------
      1        7           0.010962479    0.000000000   -0.000128904
      2        6          -0.005017138    0.000000000    0.001084335
      3        1          -0.005945341    0.000000000   -0.000955431
 -------------------------------------------------------------------
 Cartesian Forces:  Max     0.010962479 RMS     0.004506784

 GradGradGradGradGradGradGradGradGradGradGradGradGradGradGradGradGradGrad
 Berny optimization.
 Using GEDIIS/GDIIS optimizer.
 FormGI is forming the generalized inverse of G from B-inverse, IUseBI=4.
 Internal  Forces:  Max     0.009056866 RMS     0.005044559
 Search for a local minimum.
 Step number   6 out of a maximum of   20 on scan point     1 out of    31
 All quantities printed in internal units (Hartrees-Bohrs-Radians)
 Mixed Optimization -- En-DIIS/RFO-DIIS
 Update second derivatives using D2CorX and points    2    3    4    5    6
 DE= -1.44D-05 DEPred=-1.50D-05 R= 9.61D-01
 TightC=F SS=  1.41D+00  RLast= 5.49D-03 DXNew= 8.4853D-01 1.6475D-02
 Trust test= 9.61D-01 RLast= 5.49D-03 DXMaxT set to 5.05D-01
 The second derivative matrix:
                          R1        R2        A1        A2
           R1           1.32117
           R2           0.00462   0.55317
           A1           0.03591   0.00166   0.15826
           A2          -0.06861   0.02103  -0.00084   0.16439
 ITU=  1  1  1  0  1
 Use linear search instead of GDIIS.
     Eigenvalues ---    0.54850   1.304561000.000001000.00000
 RFO step:  Lambda= 0.00000000D+00 EMin= 5.48503599D-01
 Quartic linear search produced a step of  0.00878.
 Iteration  1 RMS(Cart)=  0.00002597 RMS(Int)=  0.00000000
 Iteration  2 RMS(Cart)=  0.00000000 RMS(Int)=  0.00000000
 Iteration  1 RMS(Cart)=  0.00000016 RMS(Int)=  0.00000044
 ClnCor:  largest displacement from symmetrization is 5.55D-17 for atom     1.
 Variable       Old X    -DE/DX   Delta X   Delta X   Delta X     New X
                                 (Linear)    (Quad)   (Total)
    R1        2.18766   0.00083  -0.00003   0.00000  -0.00003   2.18763
    R2        1.86758  -0.00102  -0.00003  -0.00001  -0.00004   1.86754
    A1        2.76222   0.00906   0.00000   0.00000   0.00000   2.76222
    A2        0.17453  -0.00425   0.00000   0.00000   0.00000   0.17453
         Item               Value     Threshold  Converged?
 Maximum Force            0.000027     0.000015     NO 
 RMS     Force            0.000017     0.000010     NO 
 Maximum Displacement     0.000038     0.000060     YES
 RMS     Displacement     0.000026     0.000040     YES
 Predicted change in Energy=-5.222748D-09
 GradGradGradGradGradGradGradGradGradGradGradGradGradGradGradGradGradGrad

                          Input orientation:                          
 ---------------------------------------------------------------------
 Center     Atomic      Atomic             Coordinates (Angstroms)
 Number     Number       Type             X           Y           Z
 ---------------------------------------------------------------------
      1          7           0        0.010085    0.000000   -0.166614
      2          6           0        0.025423    0.000000    0.990930
      3          1           0        0.363883    0.000000   -1.089373
 ---------------------------------------------------------------------
                    Distance matrix (angstroms):
                    1          2          3
     1  N    0.000000
     2  C    1.157646   0.000000
     3  H    0.988259   2.107656   0.000000
 Stoichiometry    CHN
 Framework group  CS[SG(CHN)]
 Deg. of freedom     3
 Full point group                 CS      NOp   2
 Largest Abelian subgroup         CS      NOp   2
 Largest concise Abelian subgroup C1      NOp   1
                         Standard orientation:                         
 ---------------------------------------------------------------------
 Center     Atomic      Atomic             Coordinates (Angstroms)
 Number     Number       Type             X           Y           Z
 ---------------------------------------------------------------------
      1          7           0        0.026142    0.430563    0.000000
      2          6           0        0.026142   -0.727083    0.000000
      3          1           0       -0.339850    1.348553    0.000000
 ---------------------------------------------------------------------
 Rotational constants (GHZ):   4818.7205606     47.0930065     46.6372243
 Standard basis: 6-31G(d) (6D, 7F)
 There are    24 symmetry adapted cartesian basis functions of A'  symmetry.
 There are     8 symmetry adapted cartesian basis functions of A"  symmetry.
 There are    24 symmetry adapted basis functions of A'  symmetry.
 There are     8 symmetry adapted basis functions of A"  symmetry.
    32 basis functions,    60 primitive gaussians,    32 cartesian basis functions
     7 alpha electrons        7 beta electrons
       nuclear repulsion energy        24.4535166483 Hartrees.
 NAtoms=    3 NActive=    3 NUniq=    3 SFac= 1.00D+00 NAtFMM=   60 NAOKFM=F Big=F
 Integral buffers will be    131072 words long.
 Raffenetti 1 integral format.
 Two-electron integral symmetry is turned on.
 One-electron integrals computed using PRISM.
 NBasis=    32 RedAO= T EigKep=  7.94D-03  NBF=    24     8
 NBsUse=    32 1.00D-06 EigRej= -1.00D+00 NBFU=    24     8
 Initial guess from the checkpoint file:  "/home/maxb2/HNC.chk"
 B after Tr=     0.000000    0.000000    0.000000
         Rot=    1.000000    0.000000    0.000000    0.000000 Ang=   0.00 deg.
 Initial guess orbital symmetries:
       Occupied  (A') (A') (A') (A') (A') (A") (A')
       Virtual   (A') (A') (A') (A') (A') (A') (A') (A') (A') (A')
                 (A') (A') (A') (A') (A') (A') (A') (A') (A") (A")
                 (A") (A") (A") (A") (A")
 Keep R1 ints in memory in symmetry-blocked form, NReq=991855.
 Requested convergence on RMS density matrix=1.00D-08 within 128 cycles.
 Requested convergence on MAX density matrix=1.00D-06.
 Requested convergence on             energy=1.00D-06.
 No special actions if energy rises.
 SCF Done:  E(RHF) =  -92.8532203901     A.U. after    5 cycles
            NFock=  5  Conv=0.86D-08     -V/T= 2.0017
 Calling FoFJK, ICntrl=      2127 FMM=F ISym2X=1 I1Cent= 0 IOpClX= 0 NMat=1 NMatS=1 NMatT=0.
 ***** Axes restored to original set *****
 -------------------------------------------------------------------
 Center     Atomic                   Forces (Hartrees/Bohr)
 Number     Number              X              Y              Z
 -------------------------------------------------------------------
      1        7           0.010955331    0.000000000   -0.000145427
      2        6          -0.005017633    0.000000000    0.001124197
      3        1          -0.005937698    0.000000000   -0.000978771
 -------------------------------------------------------------------
 Cartesian Forces:  Max     0.010955331 RMS     0.004505492

 GradGradGradGradGradGradGradGradGradGradGradGradGradGradGradGradGradGrad
 Berny optimization.
 Using GEDIIS/GDIIS optimizer.
 FormGI is forming the generalized inverse of G from B-inverse, IUseBI=4.
 Internal  Forces:  Max     0.009058393 RMS     0.005045943
 Search for a local minimum.
 Step number   7 out of a maximum of   20 on scan point     1 out of    31
 All quantities printed in internal units (Hartrees-Bohrs-Radians)
 Mixed Optimization -- En-DIIS/RFO-DIIS
 Swapping is turned off.
 Update second derivatives using D2CorX and points    3    4    5    6    7
 DE= -5.21D-09 DEPred=-5.22D-09 R= 9.98D-01
 Trust test= 9.98D-01 RLast= 5.28D-05 DXMaxT set to 5.05D-01
 The second derivative matrix:
                          R1        R2        A1        A2
           R1           1.32580
           R2           0.00281   0.56257
           A1           0.03586   0.00481   0.15848
           A2          -0.07032   0.02089  -0.00075   0.16452
 ITU=  0  1  1  1  0
     Eigenvalues ---    0.55854   1.309061000.000001000.00000
 En-DIIS/RFO-DIIS IScMMF=        0 using points:     7    6
 RFO step:  Lambda=-3.22099472D-06.
 DidBck=T Rises=F RFO-DIIS coefs:    0.57989    0.42011
 Iteration  1 RMS(Cart)=  0.00001264 RMS(Int)=  0.00000193
 Iteration  2 RMS(Cart)=  0.00000000 RMS(Int)=  0.00000193
 Iteration  1 RMS(Cart)=  0.00000042 RMS(Int)=  0.00000118
 ClnCor:  largest displacement from symmetrization is 2.22D-16 for atom     2.
 Variable       Old X    -DE/DX   Delta X   Delta X   Delta X     New X
                                 (Linear)    (Quad)   (Total)
    R1        2.18763   0.00087   0.00001   0.00000   0.00001   2.18764
    R2        1.86754  -0.00099   0.00002   0.00000   0.00002   1.86756
    A1        2.76222   0.00906   0.00000   0.00001   0.00001   2.76223
    A2        0.17453  -0.00425   0.00000   0.00000   0.00000   0.17453
         Item               Value     Threshold  Converged?
 Maximum Force            0.000013     0.000015     YES
 RMS     Force            0.000010     0.000010     NO 
 Maximum Displacement     0.000019     0.000060     YES
 RMS     Displacement     0.000012     0.000040     YES
 Predicted change in Energy=-7.080358D-08
 GradGradGradGradGradGradGradGradGradGradGradGradGradGradGradGradGradGrad

                          Input orientation:                          
 ---------------------------------------------------------------------
 Center     Atomic      Atomic             Coordinates (Angstroms)
 Number     Number       Type             X           Y           Z
 ---------------------------------------------------------------------
      1          7           0        0.010086    0.000000   -0.166612
      2          6           0        0.025421    0.000000    0.990937
      3          1           0        0.363884    0.000000   -1.089383
 ---------------------------------------------------------------------
                    Distance matrix (angstroms):
                    1          2          3
     1  N    0.000000
     2  C    1.157651   0.000000
     3  H    0.988271   2.107674   0.000000
 Stoichiometry    CHN
 Framework group  CS[SG(CHN)]
 Deg. of freedom     3
 Full point group                 CS      NOp   2
 Largest Abelian subgroup         CS      NOp   2
 Largest concise Abelian subgroup C1      NOp   1
                         Standard orientation:                         
 ---------------------------------------------------------------------
 Center     Atomic      Atomic             Coordinates (Angstroms)
 Number     Number       Type             X           Y           Z
 ---------------------------------------------------------------------
      1          7           0        0.026142    0.430564    0.000000
      2          6           0        0.026142   -0.727087    0.000000
      3          1           0       -0.339847    1.348568    0.000000
 ---------------------------------------------------------------------
 Rotational constants (GHZ):   4818.8110386     47.0924695     46.6367061
 Standard basis: 6-31G(d) (6D, 7F)
 There are    24 symmetry adapted cartesian basis functions of A'  symmetry.
 There are     8 symmetry adapted cartesian basis functions of A"  symmetry.
 There are    24 symmetry adapted basis functions of A'  symmetry.
 There are     8 symmetry adapted basis functions of A"  symmetry.
    32 basis functions,    60 primitive gaussians,    32 cartesian basis functions
     7 alpha electrons        7 beta electrons
       nuclear repulsion energy        24.4533741420 Hartrees.
 NAtoms=    3 NActive=    3 NUniq=    3 SFac= 1.00D+00 NAtFMM=   60 NAOKFM=F Big=F
 Integral buffers will be    131072 words long.
 Raffenetti 1 integral format.
 Two-electron integral symmetry is turned on.
 One-electron integrals computed using PRISM.
 NBasis=    32 RedAO= T EigKep=  7.94D-03  NBF=    24     8
 NBsUse=    32 1.00D-06 EigRej= -1.00D+00 NBFU=    24     8
 Initial guess from the checkpoint file:  "/home/maxb2/HNC.chk"
 B after Tr=     0.000000    0.000000    0.000000
         Rot=    1.000000    0.000000    0.000000    0.000001 Ang=   0.00 deg.
 Initial guess orbital symmetries:
       Occupied  (A') (A') (A') (A') (A') (A") (A')
       Virtual   (A') (A') (A') (A') (A') (A') (A') (A') (A') (A')
                 (A') (A') (A') (A') (A') (A') (A') (A') (A") (A")
                 (A") (A") (A") (A") (A")
 Keep R1 ints in memory in symmetry-blocked form, NReq=991855.
 Requested convergence on RMS density matrix=1.00D-08 within 128 cycles.
 Requested convergence on MAX density matrix=1.00D-06.
 Requested convergence on             energy=1.00D-06.
 No special actions if energy rises.
 SCF Done:  E(RHF) =  -92.8532204609     A.U. after    5 cycles
            NFock=  5  Conv=0.40D-08     -V/T= 2.0017
 Calling FoFJK, ICntrl=      2127 FMM=F ISym2X=1 I1Cent= 0 IOpClX= 0 NMat=1 NMatS=1 NMatT=0.
 ***** Axes restored to original set *****
 -------------------------------------------------------------------
 Center     Atomic                   Forces (Hartrees/Bohr)
 Number     Number              X              Y              Z
 -------------------------------------------------------------------
      1        7           0.010958949    0.000000000   -0.000144014
      2        6          -0.005017321    0.000000000    0.001110889
      3        1          -0.005941629    0.000000000   -0.000966875
 -------------------------------------------------------------------
 Cartesian Forces:  Max     0.010958949 RMS     0.004506350

 GradGradGradGradGradGradGradGradGradGradGradGradGradGradGradGradGradGrad
 Berny optimization.
 Using GEDIIS/GDIIS optimizer.
 FormGI is forming the generalized inverse of G from B-inverse, IUseBI=4.
 Internal  Forces:  Max     0.009057540 RMS     0.005045544
 Search for a local minimum.
 Step number   8 out of a maximum of   20 on scan point     1 out of    31
 All quantities printed in internal units (Hartrees-Bohrs-Radians)
 Mixed Optimization -- En-DIIS/RFO-DIIS
 Swapping is turned off.
 Update second derivatives using D2CorX and points    4    5    8
 DE= -7.08D-08 DEPred=-7.08D-08 R= 1.00D+00
 Trust test= 1.00D+00 RLast= 2.54D-05 DXMaxT set to 5.05D-01
 The second derivative matrix:
                          R1        R2        A1        A2
           R1           1.31943
           R2           0.00643   0.55134
           A1           0.03398   0.00380   0.15836
           A2          -0.06827   0.02058  -0.00066   0.16433
 ITU=  0  0  1  1  1
     Eigenvalues ---    0.54712   1.303281000.000001000.00000
 En-DIIS/RFO-DIIS IScMMF=        0 using points:     8    7    6
 RFO step:  Lambda=-3.22015060D-06.
 DidBck=F Rises=F RFO-DIIS coefs:    0.96860    0.01520    0.01619
 Iteration  1 RMS(Cart)=  0.00000310 RMS(Int)=  0.00000193
 Iteration  2 RMS(Cart)=  0.00000000 RMS(Int)=  0.00000193
 Iteration  1 RMS(Cart)=  0.00000089 RMS(Int)=  0.00000252
 ClnCor:  largest displacement from symmetrization is 4.58D-16 for atom     3.
 Variable       Old X    -DE/DX   Delta X   Delta X   Delta X     New X
                                 (Linear)    (Quad)   (Total)
    R1        2.18764   0.00086   0.00000   0.00000   0.00000   2.18764
    R2        1.86756  -0.00101   0.00000   0.00000   0.00000   1.86756
    A1        2.76223   0.00906   0.00000   0.00001   0.00001   2.76223
    A2        0.17453  -0.00425   0.00000   0.00000   0.00000   0.17453
         Item               Value     Threshold  Converged?
 Maximum Force            0.000001     0.000015     YES
 RMS     Force            0.000001     0.000010     YES
 Maximum Displacement     0.000003     0.000060     YES
 RMS     Displacement     0.000002     0.000040     YES
 Predicted change in Energy=-5.793840D-08
 Optimization completed.
    -- Stationary point found.
                           ----------------------------
                           !   Optimized Parameters   !
                           ! (Angstroms and Degrees)  !
 --------------------------                            --------------------------
 ! Name  Definition              Value          Derivative Info.                !
 --------------------------------------------------------------------------------
 ! R1    R(1,2)                  1.1577         -DE/DX =    0.0009              !
 ! R2    R(1,3)                  0.9883         -DE/DX =   -0.001               !
 ! A1    A(2,1,3)              158.2638         -DE/DX =    0.0091              !
 ! A2    A(1,2,3)                9.9999         -DE/DX =   -0.0042              !
 --------------------------------------------------------------------------------
 Iteration  1 RMS(Cart)=  0.01490453 RMS(Int)=  0.04194415
 Iteration  2 RMS(Cart)=  0.00024156 RMS(Int)=  0.04194309
 Iteration  3 RMS(Cart)=  0.00000205 RMS(Int)=  0.04194309
 Iteration  4 RMS(Cart)=  0.00000002 RMS(Int)=  0.04194309
 Iteration  1 RMS(Cart)=  0.01234883 RMS(Int)=  0.03446096
 Iteration  2 RMS(Cart)=  0.01021520 RMS(Int)=  0.03688860
 Iteration  3 RMS(Cart)=  0.00843310 RMS(Int)=  0.04200590
 Iteration  4 RMS(Cart)=  0.00694920 RMS(Int)=  0.04767126
 Iteration  5 RMS(Cart)=  0.00571721 RMS(Int)=  0.05299318
 Iteration  6 RMS(Cart)=  0.00469710 RMS(Int)=  0.05768323
 Iteration  7 RMS(Cart)=  0.00385443 RMS(Int)=  0.06169414
 Iteration  8 RMS(Cart)=  0.00315977 RMS(Int)=  0.06506951
 Iteration  9 RMS(Cart)=  0.00258813 RMS(Int)=  0.06788326
 Iteration 10 RMS(Cart)=  0.00211841 RMS(Int)=  0.07021480
 Iteration 11 RMS(Cart)=  0.00173292 RMS(Int)=  0.07213904
 Iteration 12 RMS(Cart)=  0.00141690 RMS(Int)=  0.07372270
 Iteration 13 RMS(Cart)=  0.00115805 RMS(Int)=  0.07502343
 Iteration 14 RMS(Cart)=  0.00094617 RMS(Int)=  0.07609021
 Iteration 15 RMS(Cart)=  0.00077285 RMS(Int)=  0.07696412
 Iteration 16 RMS(Cart)=  0.00063114 RMS(Int)=  0.07767942
 Iteration 17 RMS(Cart)=  0.00051532 RMS(Int)=  0.07826450
 Iteration 18 RMS(Cart)=  0.00042069 RMS(Int)=  0.07874283
 Iteration 19 RMS(Cart)=  0.00034340 RMS(Int)=  0.07913372
 Iteration 20 RMS(Cart)=  0.00028027 RMS(Int)=  0.07945305
 Iteration 21 RMS(Cart)=  0.00022874 RMS(Int)=  0.07971386
 Iteration 22 RMS(Cart)=  0.00018666 RMS(Int)=  0.07992682
 Iteration 23 RMS(Cart)=  0.00015232 RMS(Int)=  0.08010068
 Iteration 24 RMS(Cart)=  0.00012429 RMS(Int)=  0.08024260
 Iteration 25 RMS(Cart)=  0.00010142 RMS(Int)=  0.08035844
 Iteration 26 RMS(Cart)=  0.00008275 RMS(Int)=  0.08045298
 Iteration 27 RMS(Cart)=  0.00006752 RMS(Int)=  0.08053013
 Iteration 28 RMS(Cart)=  0.00005509 RMS(Int)=  0.08059309
 Iteration 29 RMS(Cart)=  0.00004494 RMS(Int)=  0.08064446
 Iteration 30 RMS(Cart)=  0.00003667 RMS(Int)=  0.08068638
 Iteration 31 RMS(Cart)=  0.00002992 RMS(Int)=  0.08072058
 Iteration 32 RMS(Cart)=  0.00002441 RMS(Int)=  0.08074849
 Iteration 33 RMS(Cart)=  0.00001991 RMS(Int)=  0.08077126
 Iteration 34 RMS(Cart)=  0.00001625 RMS(Int)=  0.08078984
 Iteration 35 RMS(Cart)=  0.00001325 RMS(Int)=  0.08080499
 Iteration 36 RMS(Cart)=  0.00001081 RMS(Int)=  0.08081736
 Iteration 37 RMS(Cart)=  0.00000882 RMS(Int)=  0.08082745
 Iteration 38 RMS(Cart)=  0.00000720 RMS(Int)=  0.08083568
 Iteration 39 RMS(Cart)=  0.00000587 RMS(Int)=  0.08084239
 Iteration 40 RMS(Cart)=  0.00000479 RMS(Int)=  0.08084787
 Iteration 41 RMS(Cart)=  0.00000391 RMS(Int)=  0.08085234
 Iteration 42 RMS(Cart)=  0.00000319 RMS(Int)=  0.08085598
 Iteration 43 RMS(Cart)=  0.00000260 RMS(Int)=  0.08085896
 Iteration 44 RMS(Cart)=  0.00000212 RMS(Int)=  0.08086139
 Iteration 45 RMS(Cart)=  0.00000173 RMS(Int)=  0.08086337
 Iteration 46 RMS(Cart)=  0.00000141 RMS(Int)=  0.08086498
 Iteration 47 RMS(Cart)=  0.00000115 RMS(Int)=  0.08086630
 Iteration 48 RMS(Cart)=  0.00000094 RMS(Int)=  0.08086737
 GradGradGradGradGradGradGradGradGradGradGradGradGradGradGradGradGradGrad

                          Input orientation:                          
 ---------------------------------------------------------------------
 Center     Atomic      Atomic             Coordinates (Angstroms)
 Number     Number       Type             X           Y           Z
 ---------------------------------------------------------------------
      1          7           0       -0.057551    0.000000   -0.170358
      2          6           0        0.059553    0.000000    0.969345
      3          1           0        0.397389    0.000000   -1.064045
 ---------------------------------------------------------------------
                    Distance matrix (angstroms):
                    1          2          3
     1  N    0.000000
     2  C    1.145704   0.000000
     3  H    1.002820   2.061264   0.000000
 Stoichiometry    CHN
 Framework group  CS[SG(CHN)]
 Deg. of freedom     3
 Full point group                 CS      NOp   2
 Largest Abelian subgroup         CS      NOp   2
 Largest concise Abelian subgroup C1      NOp   1
                         Standard orientation:                         
 ---------------------------------------------------------------------
 Center     Atomic      Atomic             Coordinates (Angstroms)
 Number     Number       Type             X           Y           Z
 ---------------------------------------------------------------------
      1          7           0        0.038850    0.430837    0.000000
      2          6           0        0.038850   -0.714867    0.000000
      3          1           0       -0.505053    1.273343    0.000000
 ---------------------------------------------------------------------
 Rotational constants (GHZ):   2150.2426858     48.7874819     47.7050873
 Standard basis: 6-31G(d) (6D, 7F)
 There are    24 symmetry adapted cartesian basis functions of A'  symmetry.
 There are     8 symmetry adapted cartesian basis functions of A"  symmetry.
 There are    24 symmetry adapted basis functions of A'  symmetry.
 There are     8 symmetry adapted basis functions of A"  symmetry.
    32 basis functions,    60 primitive gaussians,    32 cartesian basis functions
     7 alpha electrons        7 beta electrons
       nuclear repulsion energy        24.6331140155 Hartrees.
 NAtoms=    3 NActive=    3 NUniq=    3 SFac= 1.00D+00 NAtFMM=   60 NAOKFM=F Big=F
 Integral buffers will be    131072 words long.
 Raffenetti 1 integral format.
 Two-electron integral symmetry is turned on.
 One-electron integrals computed using PRISM.
 NBasis=    32 RedAO= T EigKep=  8.01D-03  NBF=    24     8
[...]
 No special actions if energy rises.
 SCF Done:  E(RHF) =  -92.8735906160     A.U. after    9 cycles
            NFock=  9  Conv=0.49D-08     -V/T= 2.0021
 Calling FoFJK, ICntrl=      2127 FMM=F ISym2X=1 I1Cent= 0 IOpClX= 0 NMat=1 NMatS=1 NMatT=0.
 ***** Axes restored to original set *****
 -------------------------------------------------------------------
 Center     Atomic                   Forces (Hartrees/Bohr)
 Number     Number              X              Y              Z
 -------------------------------------------------------------------
      1        7           0.001473504    0.000000000    0.007635381
      2        6          -0.004440947    0.000000000   -0.015405710
      3        1           0.002967443    0.000000000    0.007770329
 -------------------------------------------------------------------
 Cartesian Forces:  Max     0.015405710 RMS     0.006554997

 GradGradGradGradGradGradGradGradGradGradGradGradGradGradGradGradGradGrad
 Berny optimization.
 Using GEDIIS/GDIIS optimizer.
 FormGI is forming the generalized inverse of G from B-inverse, IUseBI=4.
 Internal  Forces:  Max     0.013481594 RMS     0.007499971
 Search for a local minimum.
 Step number   2 out of a maximum of   20 on scan point    31 out of    31
 All quantities printed in internal units (Hartrees-Bohrs-Radians)
 Mixed Optimization -- En-DIIS/RFO-DIIS
 Update second derivatives using D2CorX and points    1    2
 DE= -8.06D-05 DEPred=-8.33D-05 R= 9.67D-01
 TightC=F SS=  1.41D+00  RLast= 2.00D-02 DXNew= 2.1502D-01 5.9870D-02
 Trust test= 9.67D-01 RLast= 2.00D-02 DXMaxT set to 1.28D-01
 The second derivative matrix:
                          R1        R2        A1        A2
           R1           2.01824
           R2          -0.47064   0.46824
           A1          -0.20749   0.06014   0.33286
           A2           0.02838  -0.05581  -0.07680   0.18129
 ITU=  1  0
 Use linear search instead of GDIIS.
     Eigenvalues ---    0.33657   2.167291000.000001000.00000
 RFO step:  Lambda= 0.00000000D+00 EMin= 3.36566025D-01
 Quartic linear search produced a step of -0.02273.
 Iteration  1 RMS(Cart)=  0.00017457 RMS(Int)=  0.00000002
 Iteration  2 RMS(Cart)=  0.00000000 RMS(Int)=  0.00000002
 Iteration  1 RMS(Cart)=  0.00000006 RMS(Int)=  0.00000004
 ClnCor:  largest displacement from symmetrization is 2.29D-16 for atom     1.
 Variable       Old X    -DE/DX   Delta X   Delta X   Delta X     New X
                                 (Linear)    (Quad)   (Total)
    R1        2.14117  -0.00006  -0.00002   0.00005   0.00002   2.14119
    R2        4.12444  -0.00004  -0.00045   0.00004  -0.00041   4.12403
    A1        0.09277  -0.00658  -0.00001   0.00000  -0.00001   0.09276
    A2        2.94961   0.01348   0.00000   0.00000   0.00000   2.94961
         Item               Value     Threshold  Converged?
 Maximum Force            0.000247     0.000015     NO 
 RMS     Force            0.000184     0.000010     NO 
 Maximum Displacement     0.000268     0.000060     NO 
 RMS     Displacement     0.000175     0.000040     NO 
 Predicted change in Energy=-4.586596D-08
 GradGradGradGradGradGradGradGradGradGradGradGradGradGradGradGradGradGrad

                          Input orientation:                          
 ---------------------------------------------------------------------
 Center     Atomic      Atomic             Coordinates (Angstroms)
 Number     Number       Type             X           Y           Z
 ---------------------------------------------------------------------
      1          7           0       -0.934429    0.000000    0.193220
      2          6           0        0.176765    0.000000   -0.028349
      3          1           0        1.157055    0.000000   -0.429929
 ---------------------------------------------------------------------
                    Distance matrix (angstroms):
                    1          2          3
     1  N    0.000000
     2  C    1.133070   0.000000
     3  H    2.182343   1.059356   0.000000
 Stoichiometry    CHN
 Framework group  CS[SG(CHN)]
 Deg. of freedom     3
 Full point group                 CS      NOp   2
 Largest Abelian subgroup         CS      NOp   2
 Largest concise Abelian subgroup C1      NOp   1
                         Standard orientation:                         
 ---------------------------------------------------------------------
 Center     Atomic      Atomic             Coordinates (Angstroms)
 Number     Number       Type             X           Y           Z
 ---------------------------------------------------------------------
      1          7           0        0.014438    0.640813    0.000000
      2          6           0        0.014438   -0.492257    0.000000
      3          1           0       -0.187696   -1.532149    0.000000
 ---------------------------------------------------------------------
 Rotational constants (GHZ):  16822.6746542     46.1629772     46.0366484
 Standard basis: 6-31G(d) (6D, 7F)
 There are    24 symmetry adapted cartesian basis functions of A'  symmetry.
 There are     8 symmetry adapted cartesian basis functions of A"  symmetry.
 There are    24 symmetry adapted basis functions of A'  symmetry.
 There are     8 symmetry adapted basis functions of A"  symmetry.
    32 basis functions,    60 primitive gaussians,    32 cartesian basis functions
     7 alpha electrons        7 beta electrons
       nuclear repulsion energy        24.3097823428 Hartrees.
 NAtoms=    3 NActive=    3 NUniq=    3 SFac= 1.00D+00 NAtFMM=   60 NAOKFM=F Big=F
 Integral buffers will be    131072 words long.
 Raffenetti 1 integral format.
 Two-electron integral symmetry is turned on.
 One-electron integrals computed using PRISM.
 NBasis=    32 RedAO= T EigKep=  4.38D-03  NBF=    24     8
 NBsUse=    32 1.00D-06 EigRej= -1.00D+00 NBFU=    24     8
 Initial guess from the checkpoint file:  "/home/maxb2/HNC.chk"
 B after Tr=     0.000000    0.000000    0.000000
         Rot=    1.000000    0.000000    0.000000   -0.000002 Ang=   0.00 deg.
 Initial guess orbital symmetries:
       Occupied  (A') (A') (A') (A') (A') (A") (A')
       Virtual   (A') (A') (A') (A') (A') (A') (A') (A') (A') (A')
                 (A') (A') (A') (A') (A') (A') (A') (A') (A") (A")
                 (A") (A") (A") (A") (A")
 Keep R1 ints in memory in symmetry-blocked form, NReq=991840.
 Requested convergence on RMS density matrix=1.00D-08 within 128 cycles.
 Requested convergence on MAX density matrix=1.00D-06.
 Requested convergence on             energy=1.00D-06.
 No special actions if energy rises.
 SCF Done:  E(RHF) =  -92.8735906631     A.U. after    6 cycles
            NFock=  6  Conv=0.77D-08     -V/T= 2.0021
 Calling FoFJK, ICntrl=      2127 FMM=F ISym2X=1 I1Cent= 0 IOpClX= 0 NMat=1 NMatS=1 NMatT=0.
 ***** Axes restored to original set *****
 -------------------------------------------------------------------
 Center     Atomic                   Forces (Hartrees/Bohr)
 Number     Number              X              Y              Z
 -------------------------------------------------------------------
      1        7           0.001515949    0.000000000    0.007627239
      2        6          -0.004669364    0.000000000   -0.015323862
      3        1           0.003153415    0.000000000    0.007696623
 -------------------------------------------------------------------
 Cartesian Forces:  Max     0.015323862 RMS     0.006551324

 GradGradGradGradGradGradGradGradGradGradGradGradGradGradGradGradGradGrad
 Berny optimization.
 Using GEDIIS/GDIIS optimizer.
 FormGI is forming the generalized inverse of G from B-inverse, IUseBI=4.
 Internal  Forces:  Max     0.013457073 RMS     0.007484474
 Search for a local minimum.
 Step number   3 out of a maximum of   20 on scan point    31 out of    31
 All quantities printed in internal units (Hartrees-Bohrs-Radians)
 Mixed Optimization -- En-DIIS/RFO-DIIS
 Swapping is turned off.
 Update second derivatives using D2CorX and points    1    2    3
 DE= -4.71D-08 DEPred=-4.59D-08 R= 1.03D+00
 Trust test= 1.03D+00 RLast= 4.14D-04 DXMaxT set to 1.28D-01
 The second derivative matrix:
                          R1        R2        A1        A2
           R1           2.01487
           R2          -0.46186   0.45600
           A1          -0.19534   0.04932   0.32981
           A2           0.02874  -0.05550  -0.07567   0.18139
 ITU=  0  1  0
     Eigenvalues ---    0.32934   2.157281000.000001000.00000
 En-DIIS/RFO-DIIS IScMMF=        0 using points:     3    2
 RFO step:  Lambda=-7.08571232D-06.
 DidBck=F Rises=F RFO-DIIS coefs:    1.00387   -0.00387
 Iteration  1 RMS(Cart)=  0.00000185 RMS(Int)=  0.00000295
 Iteration  2 RMS(Cart)=  0.00000000 RMS(Int)=  0.00000295
 Iteration  1 RMS(Cart)=  0.00000088 RMS(Int)=  0.00000056
 ClnCor:  largest displacement from symmetrization is 1.11D-16 for atom     3.
 Variable       Old X    -DE/DX   Delta X   Delta X   Delta X     New X
                                 (Linear)    (Quad)   (Total)
    R1        2.14119  -0.00030   0.00000   0.00000   0.00000   2.14119
    R2        4.12403   0.00016   0.00000   0.00001   0.00000   4.12404
    A1        0.09276  -0.00655   0.00000  -0.00001   0.00000   0.09276
    A2        2.94961   0.01346   0.00000   0.00000   0.00000   2.94961
         Item               Value     Threshold  Converged?
 Maximum Force            0.000004     0.000015     YES
 RMS     Force            0.000003     0.000010     YES
 Maximum Displacement     0.000002     0.000060     YES
 RMS     Displacement     0.000002     0.000040     YES
 Predicted change in Energy=-8.711386D-09
 Optimization completed.
    -- Stationary point found.
                           ----------------------------
                           !   Optimized Parameters   !
                           ! (Angstroms and Degrees)  !
 --------------------------                            --------------------------
 ! Name  Definition              Value          Derivative Info.                !
 --------------------------------------------------------------------------------
 ! R1    R(1,2)                  1.1331         -DE/DX =   -0.0003              !
 ! R2    R(1,3)                  2.1823         -DE/DX =    0.0002              !
 ! A1    A(2,1,3)                5.3145         -DE/DX =   -0.0065              !
 ! A2    A(1,2,3)              169.0            -DE/DX =    0.0135              !
 --------------------------------------------------------------------------------
 GradGradGradGradGradGradGradGradGradGradGradGradGradGradGradGradGradGrad

 Summary of Optimized Potential Surface Scan
                           1         2         3         4         5
     Eigenvalues --   -92.85322 -92.85044 -92.84657 -92.84168 -92.83590
           R1           1.15765   1.16196   1.16740   1.17316   1.17808
           R2           0.98827   0.99260   0.99921   1.00872   1.02200
           A1         158.26384 146.70795 135.12872 123.56931 112.13500
           A2           9.99988  15.29976  20.59977  25.89979  31.19978
                           6         7         8         9        10
     Eigenvalues --   -92.82950 -92.82290 -92.81652 -92.81044 -92.80456
           R1           1.18106   1.18155   1.17987   1.17695   1.17398
           R2           1.03995   1.06360   1.09522   1.13882   1.19547
           A1         101.00511  90.43052  80.79306  72.63417  66.19464
           A2          36.49980  41.79984  47.09986  52.39989  57.69989
                          11        12        13        14        15
     Eigenvalues --   -92.79919 -92.79498 -92.79250 -92.79203 -92.79353
           R1           1.17182   1.17053   1.16970   1.16884   1.16759
           R2           1.26119   1.33130   1.40261   1.47318   1.54185
           A1          61.11992  56.92212  53.26870  49.97006  46.91499
           A2          62.99988  68.29991  73.59994  78.90003  84.20004
                          16        17        18        19        20
     Eigenvalues --   -92.79677 -92.80143 -92.80711 -92.81348 -92.82022
           R1           1.16579   1.16344   1.16067   1.15762   1.15448
           R2           1.60798   1.67119   1.73124   1.78801   1.84139
           A1          44.03309  41.27328  38.59743  35.97711  33.39183
           A2          89.50005  94.80005 100.10004 105.40004 110.70003
                          21        22        23        24        25
     Eigenvalues --   -92.82706 -92.83382 -92.84032 -92.84645 -92.85213
           R1           1.15138   1.14842   1.14566   1.14314   1.14089
           R2           1.89131   1.93770   1.98043   2.01947   2.05469
           A1          30.82746  28.27470  25.72723  23.18164  20.63551
           A2         116.00002 121.30000 126.60001 131.90000 137.20001
                          26        27        28        29        30
     Eigenvalues --   -92.85728 -92.86185 -92.86579 -92.86908 -92.87169
           R1           1.13892   1.13722   1.13579   1.13463   1.13372
           R2           2.08607   2.11350   2.13691   2.15622   2.17138
           A1          18.08785  15.53789  12.98545  10.43054   7.87345
           A2         142.50000 147.80000 153.10002 158.40001 163.70000
                          31
     Eigenvalues --   -92.87359
           R1           1.13307
           R2           2.18234
           A1           5.31451
           A2         169.00000
                          Input orientation:                          
 ---------------------------------------------------------------------
 Center     Atomic      Atomic             Coordinates (Angstroms)
 Number     Number       Type             X           Y           Z
 ---------------------------------------------------------------------
      1          7           0       -0.934429    0.000000    0.193220
      2          6           0        0.176765    0.000000   -0.028349
      3          1           0        1.157055    0.000000   -0.429929
 ---------------------------------------------------------------------
                    Distance matrix (angstroms):
                    1          2          3
     1  N    0.000000
     2  C    1.133070   0.000000
     3  H    2.182343   1.059356   0.000000
 Stoichiometry    CHN
 Framework group  CS[SG(CHN)]
 Deg. of freedom     3
 Full point group                 CS      NOp   2
 Largest Abelian subgroup         CS      NOp   2
 Largest concise Abelian subgroup C1      NOp   1
                         Standard orientation:                         
 ---------------------------------------------------------------------
 Center     Atomic      Atomic             Coordinates (Angstroms)
 Number     Number       Type             X           Y           Z
 ---------------------------------------------------------------------
      1          7           0        0.014438    0.640813    0.000000
      2          6           0        0.014438   -0.492257    0.000000
      3          1           0       -0.187696   -1.532149    0.000000
 ---------------------------------------------------------------------
 Rotational constants (GHZ):  16822.6746542     46.1629772     46.0366484

 **********************************************************************

            Population analysis using the SCF density.

 **********************************************************************

 Orbital symmetries:
       Occupied  (A') (A') (A') (A') (A') (A") (A')
       Virtual   (A') (A") (A') (A') (A") (A') (A') (A') (A') (A")
                 (A') (A') (A') (A") (A') (A") (A') (A") (A') (A')
                 (A") (A') (A') (A') (A')
 The electronic state is 1-A'.
 Alpha  occ. eigenvalues --  -15.59789 -11.28821  -1.24307  -0.80687  -0.57426
 Alpha  occ. eigenvalues --   -0.49722  -0.49678
 Alpha virt. eigenvalues --    0.18770   0.20407   0.24929   0.42312   0.73730
 Alpha virt. eigenvalues --    0.73741   0.83349   0.89969   1.02996   1.04108
 Alpha virt. eigenvalues --    1.06820   1.41477   1.63625   1.76829   1.76926
 Alpha virt. eigenvalues --    1.84269   1.89942   2.27631   2.27664   2.86949
 Alpha virt. eigenvalues --    2.92152   3.01273   3.42864   4.23843   4.52866
          Condensed to atoms (all electrons):
               1          2          3
     1  N    6.461985   0.922724  -0.024249
     2  C    0.922724   4.669421   0.354336
     3  H   -0.024249   0.354336   0.362972
 Mulliken charges:
               1
     1  N   -0.360460
     2  C    0.053519
     3  H    0.306940
 Sum of Mulliken charges =   0.00000
 Mulliken charges with hydrogens summed into heavy atoms:
               1
     1  N   -0.360460
     2  C    0.360460
 Electronic spatial extent (au):  <R**2>=             48.2871
 Charge=              0.0000 electrons
 Dipole moment (field-independent basis, Debye):
    X=             -0.2602    Y=             -3.1694    Z=              0.0000  Tot=              3.1800
 Quadrupole moment (field-independent basis, Debye-Ang):
   XX=            -11.5138   YY=             -9.6147   ZZ=            -11.5716
   XY=              0.3425   XZ=              0.0000   YZ=              0.0000
 Traceless Quadrupole moment (field-independent basis, Debye-Ang):
   XX=             -0.6138   YY=              1.2853   ZZ=             -0.6716
   XY=              0.3425   XZ=              0.0000   YZ=              0.0000
 Octapole moment (field-independent basis, Debye-Ang**2):
  XXX=             -0.2639  YYY=             -7.2387  ZZZ=              0.0000  XYY=             -0.8056
  XXY=             -0.3929  XXZ=              0.0000  XZZ=             -0.0834  YZZ=             -0.3091
  YYZ=              0.0000  XYZ=              0.0000
 Hexadecapole moment (field-independent basis, Debye-Ang**3):
 XXXX=            -10.7777 YYYY=            -33.9425 ZZZZ=            -10.6548 XXXY=             -0.4924
 XXXZ=              0.0000 YYYX=              0.6344 YYYZ=              0.0000 ZZZX=              0.0000
 ZZZY=              0.0000 XXYY=             -8.3242 XXZZ=             -3.5726 YYZZ=             -8.4724
 XXYZ=              0.0000 YYXZ=              0.0000 ZZXY=             -0.1719
 N-N= 2.430978234278D+01 E-N=-2.660338871509D+02  KE= 9.267573792928D+01
 Symmetry A'   KE= 8.996593258558D+01
 Symmetry A"   KE= 2.709805343697D+00
 B after Tr=     0.428641    0.000000    1.097869
         Rot=    0.863264    0.000000    0.504753    0.000000 Ang=  60.63 deg.
 Final structure in terms of initial Z-matrix:
 N
 C,1,B1
 H,2,B2,1,A1
      Variables:
 B1=1.13306954
 B2=1.05935596
 A1=168.99999805
 1\1\GINC-TC-NODE166\Scan\RHF\6-31G(d)\C1H1N1\MAXB2\26-Sep-2016\0\\# op
 t=(modredundant,tight) RHF/6-31g* gfp\\HNC-HCN\\0,1\N,-0.8239172942,0.
 ,-0.1032885146\C,0.2872774615,0.,-0.3248574692\H,1.2675671913,0.,-0.72
 64382183\\Version=ES64L-G09RevD.01\State=1-A'\HF=-92.8532205,-92.85043
 92,-92.8465684,-92.8416807,-92.8359043,-92.8294985,-92.8228961,-92.816
 5199,-92.8104413,-92.8045592,-92.7991865,-92.7949784,-92.7925015,-92.7
 920252,-92.7935257,-92.7967726,-92.8014263,-92.8071144,-92.8134816,-92
 .8202164,-92.827062,-92.833815,-92.840319,-92.8464549,-92.8521319,-92.
 857281,-92.8618488,-92.8657939,-92.8690833,-92.8716901,-92.8735907\RMS
 D=3.992e-09,5.858e-09,5.611e-09,5.647e-09,2.823e-09,4.412e-09,3.795e-0
 9,3.874e-09,3.268e-09,3.642e-09,5.375e-09,6.392e-09,3.882e-09,4.378e-0
 9,4.313e-09,7.208e-09,7.867e-09,6.864e-09,6.073e-09,3.832e-09,2.859e-0
 9,3.605e-09,2.471e-09,9.134e-09,5.115e-09,5.691e-09,9.562e-09,4.919e-0
 9,8.312e-09,7.371e-09,7.655e-09\PG=CS [SG(C1H1N1)]\\@


 THOSE WHO ASPIRE NOT TO GUESS AND DIVINE,
 BUT TO DISCOVER AND KNOW, WHO PROPOSE NOT TO DEVISE 
 MIMIC AND FABULOUS WORLDS OF THEIR OWN, BUT TO 
 EXAMINE AND DISSECT THE NATURE OF THIS VERY WORLD 
 ITSELF, MUST GO TO THE FACTS THEMSELVES FOR EVERYTHING.

                               -- FRANCIS BACON, 1620
 Job cpu time:       0 days  0 hours  5 minutes 41.8 seconds.
 File lengths (MBytes):  RWF=     77 Int=      0 D2E=      0 Chk=      3 Scr=      1
 Normal termination of Gaussian 09 at Mon Sep 26 16:22:19 2016.
