 Entering Gaussian System, Link 0=g09
 Initial command:
 /cluster/software/gaussian/gaussian-09-D.01/g09/l1.exe "/local/scratch/epktb/Gau-29254.inp" -scrdir="/local/scratch/epktb/"
 Entering Link 1 = /cluster/software/gaussian/gaussian-09-D.01/g09/l1.exe PID=     29255.
  
 Copyright (c) 1988,1990,1992,1993,1995,1998,2003,2009,2013,
            Gaussian, Inc.  All Rights Reserved.
  
 This is part of the Gaussian(R) 09 program.  It is based on
 the Gaussian(R) 03 system (copyright 2003, Gaussian, Inc.),
 the Gaussian(R) 98 system (copyright 1998, Gaussian, Inc.),
 the Gaussian(R) 94 system (copyright 1995, Gaussian, Inc.),
 the Gaussian 92(TM) system (copyright 1992, Gaussian, Inc.),
 the Gaussian 90(TM) system (copyright 1990, Gaussian, Inc.),
 the Gaussian 88(TM) system (copyright 1988, Gaussian, Inc.),
 the Gaussian 86(TM) system (copyright 1986, Carnegie Mellon
 University), and the Gaussian 82(TM) system (copyright 1983,
 Carnegie Mellon University). Gaussian is a federally registered
 trademark of Gaussian, Inc.
  
 This software contains proprietary and confidential information,
 including trade secrets, belonging to Gaussian, Inc.
  
 This software is provided under written license and may be
 used, copied, transmitted, or stored only in accord with that
 written license.
  
 The following legend is applicable only to US Government
 contracts under FAR:
  
                    RESTRICTED RIGHTS LEGEND
  
 Use, reproduction and disclosure by the US Government is
 subject to restrictions as set forth in subparagraphs (a)
 and (c) of the Commercial Computer Software - Restricted
 Rights clause in FAR 52.227-19.
  
 Gaussian, Inc.
 340 Quinnipiac St., Bldg. 40, Wallingford CT 06492
  
  
 ---------------------------------------------------------------
 Warning -- This program may not be used in any manner that
 competes with the business of Gaussian, Inc. or will provide
 assistance to any competitor of Gaussian, Inc.  The licensee
 of this program is prohibited from giving any competitor of
 Gaussian, Inc. access to this program.  By using this program,
 the user acknowledges that Gaussian, Inc. is engaged in the
 business of creating and licensing software in the field of
 computational chemistry and represents and warrants to the
 licensee that it is not a competitor of Gaussian, Inc. and that
 it will not use this program in any manner prohibited above.
 ---------------------------------------------------------------
  

 Cite this work as:
 Gaussian 09, Revision D.01,
 M. J. Frisch, G. W. Trucks, H. B. Schlegel, G. E. Scuseria, 
 M. A. Robb, J. R. Cheeseman, G. Scalmani, V. Barone, B. Mennucci, 
 G. A. Petersson, H. Nakatsuji, M. Caricato, X. Li, H. P. Hratchian, 
 A. F. Izmaylov, J. Bloino, G. Zheng, J. L. Sonnenberg, M. Hada, 
 M. Ehara, K. Toyota, R. Fukuda, J. Hasegawa, M. Ishida, T. Nakajima, 
 Y. Honda, O. Kitao, H. Nakai, T. Vreven, J. A. Montgomery, Jr., 
 J. E. Peralta, F. Ogliaro, M. Bearpark, J. J. Heyd, E. Brothers, 
 K. N. Kudin, V. N. Staroverov, T. Keith, R. Kobayashi, J. Normand, 
 K. Raghavachari, A. Rendell, J. C. Burant, S. S. Iyengar, J. Tomasi, 
 M. Cossi, N. Rega, J. M. Millam, M. Klene, J. E. Knox, J. B. Cross, 
 V. Bakken, C. Adamo, J. Jaramillo, R. Gomperts, R. E. Stratmann, 
 O. Yazyev, A. J. Austin, R. Cammi, C. Pomelli, J. W. Ochterski, 
 R. L. Martin, K. Morokuma, V. G. Zakrzewski, G. A. Voth, 
 P. Salvador, J. J. Dannenberg, S. Dapprich, A. D. Daniels, 
 O. Farkas, J. B. Foresman, J. V. Ortiz, J. Cioslowski, 
 and D. J. Fox, Gaussian, Inc., Wallingford CT, 2013.
 
 ******************************************
 Gaussian 09:  ES64L-G09RevD.01 24-Apr-2013
                27-Sep-2016 
 ******************************************
 %rwf=/home/epktb/scratch/dzp-HNC/
 %int=/home/epktb/scratch/dzp-HNC/
 %d2e=/home/epktb/scratch/dzp-HNC/
 %nosave
 %mem=6GB
 %nprocshared=3
 Will use up to    3 processors via shared memory.
 %chk=/home/epktb/dzp-HNC
 -------------------------
 # opt=(tight) RHF/Gen gfp
 -------------------------
 1/7=10,18=20,19=15,38=1/1,3;
 2/9=110,12=2,17=6,18=5,40=1/2;
 3/5=7,11=1,16=1,24=100,25=1,30=1,71=1,116=1/1,2,3;
 4//1;
 5/5=2,38=5/2;
 6/7=2,8=2,9=2,10=2,28=1/1;
 7//1,2,3,16;
 1/7=10,18=20,19=15/3(2);
 2/9=110/2;
 99//99;
 2/9=110/2;
 3/5=7,6=1,11=1,16=1,25=1,30=1,71=1,82=7,116=1/1,2,3;
 4/5=5,16=3,69=1/1;
 5/5=2,38=5/2;
 7//1,2,3,16;
 1/7=10,18=20,19=15/3(-5);
 2/9=110/2;
 6/7=2,8=2,9=2,10=2,19=2,28=1/1;
 99/9=1/99;
 -------
 HNC-HCN
 -------
 Symbolic Z-matrix:
 Charge =  0 Multiplicity = 1
 N
 C                    1    B1
 H                    2    B2       1    A1
       Variables:
  B1                    1.                       
  B2                    2.3                      
  A1                    5.                       
 
 Add virtual bond connecting atoms H3         and N1         Dist= 2.47D+00.

 GradGradGradGradGradGradGradGradGradGradGradGradGradGradGradGradGradGrad
 Berny optimization.
 Initialization pass.
                           ----------------------------
                           !    Initial Parameters    !
                           ! (Angstroms and Degrees)  !
 --------------------------                            --------------------------
 ! Name  Definition              Value          Derivative Info.                !
 --------------------------------------------------------------------------------
 ! R1    R(1,2)                  1.0            estimate D2E/DX2                !
 ! R2    R(1,3)                  1.3067         estimate D2E/DX2                !
 ! A1    L(2,1,3,-2,-1)        188.8244         estimate D2E/DX2                !
 ! A2    L(2,1,3,-1,-2)        180.0            estimate D2E/DX2                !
 --------------------------------------------------------------------------------
 Trust Radius=3.00D-01 FncErr=1.00D-07 GrdErr=1.00D-07
 Number of steps in this run=     20 maximum allowed number of steps=    100.
 GradGradGradGradGradGradGradGradGradGradGradGradGradGradGradGradGradGrad

                          Input orientation:                          
 ---------------------------------------------------------------------
 Center     Atomic      Atomic             Coordinates (Angstroms)
 Number     Number       Type             X           Y           Z
 ---------------------------------------------------------------------
      1          7           0        0.000000    0.000000    0.000000
      2          6           0        0.000000    0.000000    1.000000
      3          1           0        0.200458    0.000000   -1.291248
 ---------------------------------------------------------------------
                    Distance matrix (angstroms):
                    1          2          3
     1  N    0.000000
     2  C    1.000000   0.000000
     3  H    1.306715   2.300000   0.000000
 Stoichiometry    CHN
 Framework group  CS[SG(CHN)]
 Deg. of freedom     3
 Full point group                 CS      NOp   2
 Largest Abelian subgroup         CS      NOp   2
 Largest concise Abelian subgroup C1      NOp   1
                         Standard orientation:                         
 ---------------------------------------------------------------------
 Center     Atomic      Atomic             Coordinates (Angstroms)
 Number     Number       Type             X           Y           Z
 ---------------------------------------------------------------------
      1          7           0        0.014318    0.336339    0.000000
      2          6           0        0.014318   -0.663661    0.000000
      3          1           0       -0.186140    1.627587    0.000000
 ---------------------------------------------------------------------
 Rotational constants (GHZ):  18966.4404569     53.4502989     53.3000911
 General basis read from cards:  (5D, 7F)
 AO basis set (Overlap normalization):
 Atom N1       Shell     1 S   6     bf    1 -     1          0.027057936772          0.635589433930          0.000000000000
      0.5909440000D+04  0.2004000152D-02
      0.8874510000D+03  0.1531000116D-01
      0.2047490000D+03  0.7429300562D-01
      0.5983760000D+02  0.2533640192D+00
      0.1999810000D+02  0.6005760454D+00
      0.2686000000D+01  0.2451110185D+00
 Atom N1       Shell     2 S   1     bf    2 -     2          0.027057936772          0.635589433930          0.000000000000
      0.7192700000D+01  0.1000000000D+01
 Atom N1       Shell     3 S   1     bf    3 -     3          0.027057936772          0.635589433930          0.000000000000
      0.7000000000D+00  0.1000000000D+01
 Atom N1       Shell     4 S   1     bf    4 -     4          0.027057936772          0.635589433930          0.000000000000
      0.2133000000D+00  0.1000000000D+01
 Atom N1       Shell     5 P   4     bf    5 -     7          0.027057936772          0.635589433930          0.000000000000
      0.2678600000D+02  0.1825699251D-01
      0.5956400000D+01  0.1164069523D+00
      0.1707400000D+01  0.3901108400D+00
      0.5314000000D+00  0.6372207387D+00
 Atom N1       Shell     6 P   1     bf    8 -    10          0.027057936772          0.635589433930          0.000000000000
      0.1654000000D+00  0.1000000000D+01
 Atom N1       Shell     7 P   1     bf   11 -    13          0.027057936772          0.635589433930          0.000000000000
      0.4800000000D-01  0.1000000000D+01
 Atom N1       Shell     8 D   1     bf   14 -    18          0.027057936772          0.635589433930          0.000000000000
      0.8000000000D+00  0.1000000000D+01
 Atom C2       Shell     9 S   6     bf   19 -    19          0.027057936772         -1.254136698956          0.000000000000
      0.4232610000D+04  0.2029000503D-02
      0.6348820000D+03  0.1553500385D-01
      0.1460970000D+03  0.7541101870D-01
      0.4249740000D+02  0.2571210638D+00
      0.1418920000D+02  0.5965551480D+00
      0.1966600000D+01  0.2425170602D+00
 Atom C2       Shell    10 S   1     bf   20 -    20          0.027057936772         -1.254136698956          0.000000000000
      0.5147700000D+01  0.1000000000D+01
 Atom C2       Shell    11 S   1     bf   21 -    21          0.027057936772         -1.254136698956          0.000000000000
      0.4962000000D+00  0.1000000000D+01
 Atom C2       Shell    12 S   1     bf   22 -    22          0.027057936772         -1.254136698956          0.000000000000
      0.1533000000D+00  0.1000000000D+01
 Atom C2       Shell    13 P   4     bf   23 -    25          0.027057936772         -1.254136698956          0.000000000000
      0.1815570000D+02  0.1853400257D-01
      0.3986400000D+01  0.1154420160D+00
      0.1142900000D+01  0.3862060535D+00
      0.3594000000D+00  0.6400890887D+00
 Atom C2       Shell    14 P   1     bf   26 -    28          0.027057936772         -1.254136698956          0.000000000000
      0.1146000000D+00  0.1000000000D+01
 Atom C2       Shell    15 P   1     bf   29 -    31          0.027057936772         -1.254136698956          0.000000000000
      0.3400000000D-01  0.1000000000D+01
 Atom C2       Shell    16 D   1     bf   32 -    36          0.027057936772         -1.254136698956          0.000000000000
      0.7500000000D+00  0.1000000000D+01
 Atom H3       Shell    17 S   3     bf   37 -    37         -0.351753178041          3.075694156224          0.000000000000
      0.1924060000D+02  0.3282807697D-01
      0.2899200000D+01  0.2312085421D+00
      0.6534000000D+00  0.8172399161D+00
 Atom H3       Shell    18 S   1     bf   38 -    38         -0.351753178041          3.075694156224          0.000000000000
      0.1776000000D+00  0.1000000000D+01
 Atom H3       Shell    19 S   1     bf   39 -    39         -0.351753178041          3.075694156224          0.000000000000
      0.4827300000D-01  0.1000000000D+01
 Atom H3       Shell    20 P   1     bf   40 -    42         -0.351753178041          3.075694156224          0.000000000000
      0.1000000000D+01  0.1000000000D+01
 There are    33 symmetry adapted cartesian basis functions of A'  symmetry.
 There are    11 symmetry adapted cartesian basis functions of A"  symmetry.
 There are    31 symmetry adapted basis functions of A'  symmetry.
 There are    11 symmetry adapted basis functions of A"  symmetry.
    42 basis functions,    74 primitive gaussians,    44 cartesian basis functions
     7 alpha electrons        7 beta electrons
       nuclear repulsion energy        26.4406778425 Hartrees.
 NAtoms=    3 NActive=    3 NUniq=    3 SFac= 1.00D+00 NAtFMM=   60 NAOKFM=F Big=F
 Integral buffers will be    131072 words long.
 Raffenetti 1 integral format.
 Two-electron integral symmetry is turned on.
 One-electron integrals computed using PRISM.
 NBasis=    42 RedAO= T EigKep=  7.58D-03  NBF=    31    11
 NBsUse=    42 1.00D-06 EigRej= -1.00D+00 NBFU=    31    11
 ExpMin= 3.40D-02 ExpMax= 5.91D+03 ExpMxC= 8.87D+02 IAcc=3 IRadAn=         5 AccDes= 0.00D+00
 Harris functional with IExCor=  205 and IRadAn=       5 diagonalized for initial guess.
 HarFok:  IExCor=  205 AccDes= 0.00D+00 IRadAn=         5 IDoV= 1 UseB2=F ITyADJ=14
 ICtDFT=  3500011 ScaDFX=  1.000000  1.000000  1.000000  1.000000
 FoFCou: FMM=F IPFlag=           0 FMFlag=      100000 FMFlg1=           0
         NFxFlg=           0 DoJE=T BraDBF=F KetDBF=T FulRan=T
         wScrn=  0.000000 ICntrl=     500 IOpCl=  0 I1Cent=   200000004 NGrid=           0
         NMat0=    1 NMatS0=      1 NMatT0=    0 NMatD0=    1 NMtDS0=    0 NMtDT0=    0
 Petite list used in FoFCou.
 Initial guess orbital symmetries:
       Occupied  (A') (A') (A') (A') (A") (A') (A')
       Virtual   (A') (A") (A') (A') (A") (A') (A') (A') (A") (A')
                 (A') (A") (A') (A') (A") (A') (A') (A') (A') (A')
                 (A") (A') (A") (A') (A") (A') (A') (A") (A') (A')
                 (A") (A') (A') (A') (A')
 The electronic state of the initial guess is 1-A'.
 Keep R1 ints in memory in symmetry-blocked form, NReq=1271684.
 Requested convergence on RMS density matrix=1.00D-08 within 128 cycles.
 Requested convergence on MAX density matrix=1.00D-06.
 Requested convergence on             energy=1.00D-06.
 No special actions if energy rises.
 SCF Done:  E(RHF) =  -92.7324560781     A.U. after   11 cycles
            NFock= 11  Conv=0.49D-08     -V/T= 1.9933

 **********************************************************************

            Population analysis using the SCF density.

 **********************************************************************

 Orbital symmetries:
       Occupied  (A') (A') (A') (A') (A') (A") (A')
       Virtual   (A') (A') (A") (A') (A') (A") (A') (A') (A") (A')
                 (A') (A') (A") (A') (A") (A') (A') (A') (A') (A')
                 (A") (A') (A") (A') (A') (A") (A') (A") (A') (A')
                 (A") (A') (A') (A') (A')
 The electronic state is 1-A'.
 Alpha  occ. eigenvalues --  -15.60911 -11.23717  -1.32838  -0.76967  -0.57246
 Alpha  occ. eigenvalues --   -0.57222  -0.44396
 Alpha virt. eigenvalues --    0.03713   0.09148   0.09163   0.11223   0.14043
 Alpha virt. eigenvalues --    0.14665   0.15470   0.24386   0.27783   0.28288
 Alpha virt. eigenvalues --    0.43338   0.63067   0.63071   0.75875   0.87910
 Alpha virt. eigenvalues --    0.88274   0.95428   1.13364   1.42563   1.58805
 Alpha virt. eigenvalues --    1.67992   1.68048   1.80174   1.81465   2.18353
 Alpha virt. eigenvalues --    2.19063   2.32117   2.32345   2.40648   3.01204
 Alpha virt. eigenvalues --    3.10379   3.18241   4.05470  24.06765  33.32834
          Condensed to atoms (all electrons):
               1          2          3
     1  N    6.099315   0.971709   0.231364
     2  C    0.971709   5.119516  -0.041886
     3  H    0.231364  -0.041886   0.458792
 Mulliken charges:
               1
     1  N   -0.302389
     2  C   -0.049340
     3  H    0.351729
 Sum of Mulliken charges =   0.00000
 Mulliken charges with hydrogens summed into heavy atoms:
               1
     1  N    0.049340
     2  C   -0.049340
 Electronic spatial extent (au):  <R**2>=             46.1097
 Charge=              0.0000 electrons
 Dipole moment (field-independent basis, Debye):
    X=             -0.4291    Y=              4.4368    Z=              0.0000  Tot=              4.4575
 Quadrupole moment (field-independent basis, Debye-Ang):
   XX=            -11.8542   YY=             -8.8262   ZZ=            -11.9387
   XY=             -0.7061   XZ=              0.0000   YZ=              0.0000
 Traceless Quadrupole moment (field-independent basis, Debye-Ang):
   XX=             -0.9812   YY=              2.0468   ZZ=             -1.0657
   XY=             -0.7061   XZ=              0.0000   YZ=              0.0000
 Octapole moment (field-independent basis, Debye-Ang**2):
  XXX=             -0.2743  YYY=             19.0325  ZZZ=              0.0000  XYY=             -1.3458
  XXY=              1.6557  XXZ=              0.0000  XZZ=             -0.0857  YZZ=              1.5153
  YYZ=              0.0000  XYZ=              0.0000
 Hexadecapole moment (field-independent basis, Debye-Ang**3):
 XXXX=            -12.7076 YYYY=            -31.9260 ZZZZ=            -12.5725 XXXY=              0.4640
 XXXZ=              0.0000 YYYX=             -1.6209 YYYZ=              0.0000 ZZZX=              0.0000
 ZZZY=              0.0000 XXYY=             -9.4621 XXZZ=             -4.2139 YYZZ=             -9.6934
 XXYZ=              0.0000 YYXZ=              0.0000 ZZXY=              0.1647
 N-N= 2.644067784255D+01 E-N=-2.706397977293D+02  KE= 9.335946544585D+01
 Symmetry A'   KE= 9.031601192372D+01
 Symmetry A"   KE= 3.043453522132D+00
 Calling FoFJK, ICntrl=      2127 FMM=F ISym2X=1 I1Cent= 0 IOpClX= 0 NMat=1 NMatS=1 NMatT=0.
 ***** Axes restored to original set *****
 -------------------------------------------------------------------
 Center     Atomic                   Forces (Hartrees/Bohr)
 Number     Number              X              Y              Z
 -------------------------------------------------------------------
      1        7           0.031067802    0.000000000   -0.812928721
      2        6          -0.004936713    0.000000000    0.669232888
      3        1          -0.026131088    0.000000000    0.143695833
 -------------------------------------------------------------------
 Cartesian Forces:  Max     0.812928721 RMS     0.354502260

 GradGradGradGradGradGradGradGradGradGradGradGradGradGradGradGradGradGrad
 Berny optimization.
 FormGI is forming the generalized inverse of G from B-inverse, IUseBI=4.
 Internal  Forces:  Max     0.429486138 RMS     0.292834131
 Search for a local minimum.
 Step number   1 out of a maximum of   20
 All quantities printed in internal units (Hartrees-Bohrs-Radians)
 Mixed Optimization -- RFO/linear search
 Second derivative matrix not updated -- first step.
 The second derivative matrix:
                          R1        R2        A1        A2
           R1           3.32740
           R2           0.00000   0.18268
           A1           0.00000   0.00000   0.00230
           A2           0.00000   0.00000   0.00000   0.00230
 ITU=  0
     Eigenvalues ---    0.00230   0.02966   1.88403
 RFO step:  Lambda=-1.78277090D-01 EMin= 2.30000000D-03
 Linear search not attempted -- first point.
 Maximum step size (   0.300) exceeded in Quadratic search.
    -- Step size scaled by   0.791
 Iteration  1 RMS(Cart)=  0.09322208 RMS(Int)=  0.01057292
 Iteration  2 RMS(Cart)=  0.00965761 RMS(Int)=  0.00000628
 Iteration  3 RMS(Cart)=  0.00000553 RMS(Int)=  0.00000001
 Iteration  4 RMS(Cart)=  0.00000000 RMS(Int)=  0.00000000
 ClnCor:  largest displacement from symmetrization is 4.44D-16 for atom     3.
 Variable       Old X    -DE/DX   Delta X   Delta X   Delta X     New X
                                 (Linear)    (Quad)   (Total)
    R1        1.88973   0.42949   0.00000   0.16150   0.16150   2.05123
    R2        2.46933  -0.38674   0.00000  -0.21696  -0.21696   2.25237
    A1        3.29561   0.09477   0.00000  -0.12979  -0.12979   3.16582
    A2        3.14159   0.00000   0.00000   0.00000   0.00000   3.14159
         Item               Value     Threshold  Converged?
 Maximum Force            0.429486     0.000015     NO 
 RMS     Force            0.292834     0.000010     NO 
 Maximum Displacement     0.118189     0.000060     NO 
 RMS     Displacement     0.097253     0.000040     NO 
 Predicted change in Energy=-9.325752D-02
 GradGradGradGradGradGradGradGradGradGradGradGradGradGradGradGradGradGrad

                          Input orientation:                          
 ---------------------------------------------------------------------
 Center     Atomic      Atomic             Coordinates (Angstroms)
 Number     Number       Type             X           Y           Z
 ---------------------------------------------------------------------
      1          7           0        0.054563    0.000000   -0.062543
      2          6           0       -0.027053    0.000000    1.019847
      3          1           0        0.172948    0.000000   -1.248552
 ---------------------------------------------------------------------
                    Distance matrix (angstroms):
                    1          2          3
     1  N    0.000000
     2  C    1.085463   0.000000
     3  H    1.191903   2.277199   0.000000
 Stoichiometry    CHN
 Framework group  CS[SG(CHN)]
 Deg. of freedom     3
 Full point group                 CS      NOp   2
 Largest Abelian subgroup         CS      NOp   2
 Largest concise Abelian subgroup C1      NOp   1
                         Standard orientation:                         
 ---------------------------------------------------------------------
 Center     Atomic      Atomic             Coordinates (Angstroms)
 Number     Number       Type             X           Y           Z
 ---------------------------------------------------------------------
      1          7           0        0.002063    0.380087    0.000000
      2          6           0        0.002063   -0.705375    0.000000
      3          1           0       -0.026813    1.571641    0.000000
 ---------------------------------------------------------------------
 Rotational constants (GHZ): 852779.6069436     48.6252711     48.6224987
 Basis read from rwf:  (5D, 7F)
 There are    33 symmetry adapted cartesian basis functions of A'  symmetry.
 There are    11 symmetry adapted cartesian basis functions of A"  symmetry.
 There are    31 symmetry adapted basis functions of A'  symmetry.
 There are    11 symmetry adapted basis functions of A"  symmetry.
    42 basis functions,    74 primitive gaussians,    44 cartesian basis functions
     7 alpha electrons        7 beta electrons
       nuclear repulsion energy        24.9776664912 Hartrees.
 NAtoms=    3 NActive=    3 NUniq=    3 SFac= 1.00D+00 NAtFMM=   60 NAOKFM=F Big=F
 Integral buffers will be    131072 words long.
 Raffenetti 1 integral format.
 Two-electron integral symmetry is turned on.
 One-electron integrals computed using PRISM.
 NBasis=    42 RedAO= T EigKep=  7.90D-03  NBF=    31    11
 NBsUse=    42 1.00D-06 EigRej= -1.00D+00 NBFU=    31    11
 Initial guess from the checkpoint file:  "/home/epktb/dzp-HNC.chk"
 B after Tr=     0.000000    0.000000    0.000000
         Rot=    0.999772    0.000000    0.000000    0.021371 Ang=   2.45 deg.
 Initial guess orbital symmetries:
       Occupied  (A') (A') (A') (A') (A') (A") (A')
       Virtual   (A') (A') (A') (A') (A') (A') (A') (A') (A') (A')
                 (A') (A') (A') (A') (A') (A') (A') (A') (A') (A')
                 (A') (A') (A') (A') (A') (A") (A") (A") (A") (A")
                 (A") (A") (A") (A") (A")
 ExpMin= 3.40D-02 ExpMax= 5.91D+03 ExpMxC= 8.87D+02 IAcc=3 IRadAn=         5 AccDes= 0.00D+00
 Harris functional with IExCor=  205 and IRadAn=       5 diagonalized for initial guess.
 HarFok:  IExCor=  205 AccDes= 0.00D+00 IRadAn=         5 IDoV= 1 UseB2=F ITyADJ=14
 ICtDFT=  3500011 ScaDFX=  1.000000  1.000000  1.000000  1.000000
 FoFCou: FMM=F IPFlag=           0 FMFlag=      100000 FMFlg1=           0
         NFxFlg=           0 DoJE=T BraDBF=F KetDBF=T FulRan=T
         wScrn=  0.000000 ICntrl=     500 IOpCl=  0 I1Cent=   200000004 NGrid=           0
         NMat0=    1 NMatS0=      1 NMatT0=    0 NMatD0=    1 NMtDS0=    0 NMtDT0=    0
 Petite list used in FoFCou.
 Keep R1 ints in memory in symmetry-blocked form, NReq=1271656.
 Requested convergence on RMS density matrix=1.00D-08 within 128 cycles.
 Requested convergence on MAX density matrix=1.00D-06.
 Requested convergence on             energy=1.00D-06.
 No special actions if energy rises.
 SCF Done:  E(RHF) =  -92.8328369500     A.U. after   13 cycles
            NFock= 13  Conv=0.36D-08     -V/T= 1.9998
 Calling FoFJK, ICntrl=      2127 FMM=F ISym2X=1 I1Cent= 0 IOpClX= 0 NMat=1 NMatS=1 NMatT=0.
 ***** Axes restored to original set *****
 -------------------------------------------------------------------
 Center     Atomic                   Forces (Hartrees/Bohr)
 Number     Number              X              Y              Z
 -------------------------------------------------------------------
      1        7           0.030931598    0.000000000   -0.356332652
      2        6          -0.017961327    0.000000000    0.231213947
      3        1          -0.012970272    0.000000000    0.125118705
 -------------------------------------------------------------------
 Cartesian Forces:  Max     0.356332652 RMS     0.148149751

 GradGradGradGradGradGradGradGradGradGradGradGradGradGradGradGradGradGrad
 Berny optimization.
 Using GEDIIS/GDIIS optimizer.
 FormGI is forming the generalized inverse of G from B-inverse, IUseBI=4.
 Internal  Forces:  Max     0.178960463 RMS     0.126474300
 Search for a local minimum.
 Step number   2 out of a maximum of   20
 All quantities printed in internal units (Hartrees-Bohrs-Radians)
 Mixed Optimization -- RFO/linear search
 Update second derivatives using D2CorX and points    1    2
 DE= -1.00D-01 DEPred=-9.33D-02 R= 1.08D+00
 TightC=F SS=  1.41D+00  RLast= 3.00D-01 DXNew= 5.0454D-01 9.0000D-01
 Trust test= 1.08D+00 RLast= 3.00D-01 DXMaxT set to 5.05D-01
 The second derivative matrix:
                          R1        R2        A1        A2
           R1           1.15326
           R2          -0.48423   0.75355
           A1           0.31427  -0.25965   0.11698
           A2           0.00000   0.00000   0.00000   0.00230
 ITU=  1  0
 Use linear search instead of GDIIS.
 Linear search step of   0.600 exceeds DXMaxT=   0.505 but not scaled.
 Quartic linear search produced a step of  2.00000.
 Iteration  1 RMS(Cart)=  0.11974834 RMS(Int)=  0.13796585
 Iteration  2 RMS(Cart)=  0.07695428 RMS(Int)=  0.02310581
 Iteration  3 RMS(Cart)=  0.01880751 RMS(Int)=  0.00000880
 Iteration  4 RMS(Cart)=  0.00000778 RMS(Int)=  0.00000000
 Iteration  5 RMS(Cart)=  0.00000000 RMS(Int)=  0.00000000
 ClnCor:  largest displacement from symmetrization is 8.88D-16 for atom     3.
 Variable       Old X    -DE/DX   Delta X   Delta X   Delta X     New X
                                 (Linear)    (Quad)   (Total)
    R1        2.05123   0.17896   0.32300   0.00000   0.32300   2.37423
    R2        2.25237  -0.17874  -0.43393   0.00000  -0.43393   1.81844
    A1        3.16582   0.00287  -0.25957   0.00000  -0.25957   2.90625
    A2        3.14159   0.00000   0.00000   0.00000   0.00000   3.14159
         Item               Value     Threshold  Converged?
 Maximum Force            0.178960     0.000015     NO 
 RMS     Force            0.126474     0.000010     NO 
 Maximum Displacement     0.236312     0.000060     NO 
 RMS     Displacement     0.196186     0.000040     NO 
 Predicted change in Energy=-1.269942D-02
 GradGradGradGradGradGradGradGradGradGradGradGradGradGradGradGradGradGrad

                          Input orientation:                          
 ---------------------------------------------------------------------
 Center     Atomic      Atomic             Coordinates (Angstroms)
 Number     Number       Type             X           Y           Z
 ---------------------------------------------------------------------
      1          7           0        0.160760    0.000000   -0.187594
      2          6           0       -0.080705    0.000000    1.045373
      3          1           0        0.120404    0.000000   -1.149027
 ---------------------------------------------------------------------
                    Distance matrix (angstroms):
                    1          2          3
     1  N    0.000000
     2  C    1.256388   0.000000
     3  H    0.962279   2.203595   0.000000
 Stoichiometry    CHN
 Framework group  CS[SG(CHN)]
 Deg. of freedom     3
 Full point group                 CS      NOp   2
 Largest Abelian subgroup         CS      NOp   2
 Largest concise Abelian subgroup C1      NOp   1
                         Standard orientation:                         
 ---------------------------------------------------------------------
 Center     Atomic      Atomic             Coordinates (Angstroms)
 Number     Number       Type             X           Y           Z
 ---------------------------------------------------------------------
      1          7           0       -0.016027    0.471613    0.000000
      2          6           0       -0.016027   -0.784776    0.000000
      3          1           0        0.208354    1.407366    0.000000
 ---------------------------------------------------------------------
 Rotational constants (GHZ):  12615.2541214     40.6320269     40.5015768
 Basis read from rwf:  (5D, 7F)
 There are    33 symmetry adapted cartesian basis functions of A'  symmetry.
 There are    11 symmetry adapted cartesian basis functions of A"  symmetry.
 There are    31 symmetry adapted basis functions of A'  symmetry.
 There are    11 symmetry adapted basis functions of A"  symmetry.
    42 basis functions,    74 primitive gaussians,    44 cartesian basis functions
     7 alpha electrons        7 beta electrons
       nuclear repulsion energy        22.9802460584 Hartrees.
 NAtoms=    3 NActive=    3 NUniq=    3 SFac= 1.00D+00 NAtFMM=   60 NAOKFM=F Big=F
 Integral buffers will be    131072 words long.
 Raffenetti 1 integral format.
 Two-electron integral symmetry is turned on.
 One-electron integrals computed using PRISM.
 NBasis=    42 RedAO= T EigKep=  9.38D-03  NBF=    31    11
 NBsUse=    42 1.00D-06 EigRej= -1.00D+00 NBFU=    31    11
 Initial guess from the checkpoint file:  "/home/epktb/dzp-HNC.chk"
 B after Tr=     0.000000    0.000000    0.000000
         Rot=    0.000000    0.022944    0.999737    0.000000 Ang= 180.00 deg.
 Initial guess orbital symmetries:
       Occupied  (A') (A') (A') (A') (A') (A") (A')
       Virtual   (A') (A') (A') (A') (A') (A') (A') (A') (A') (A')
                 (A') (A') (A') (A') (A') (A') (A') (A') (A') (A')
                 (A') (A') (A') (A') (A') (A") (A") (A") (A") (A")
                 (A") (A") (A") (A") (A")
 ExpMin= 3.40D-02 ExpMax= 5.91D+03 ExpMxC= 8.87D+02 IAcc=3 IRadAn=         5 AccDes= 0.00D+00
 Harris functional with IExCor=  205 and IRadAn=       5 diagonalized for initial guess.
 HarFok:  IExCor=  205 AccDes= 0.00D+00 IRadAn=         5 IDoV= 1 UseB2=F ITyADJ=14
 ICtDFT=  3500011 ScaDFX=  1.000000  1.000000  1.000000  1.000000
 FoFCou: FMM=F IPFlag=           0 FMFlag=      100000 FMFlg1=           0
         NFxFlg=           0 DoJE=T BraDBF=F KetDBF=T FulRan=T
         wScrn=  0.000000 ICntrl=     500 IOpCl=  0 I1Cent=   200000004 NGrid=           0
         NMat0=    1 NMatS0=      1 NMatT0=    0 NMatD0=    1 NMtDS0=    0 NMtDT0=    0
 Petite list used in FoFCou.
 Keep R1 ints in memory in symmetry-blocked form, NReq=1271572.
 Requested convergence on RMS density matrix=1.00D-08 within 128 cycles.
 Requested convergence on MAX density matrix=1.00D-06.
 Requested convergence on             energy=1.00D-06.
 No special actions if energy rises.
 SCF Done:  E(RHF) =  -92.8564333173     A.U. after   14 cycles
            NFock= 14  Conv=0.21D-08     -V/T= 2.0050
 Calling FoFJK, ICntrl=      2127 FMM=F ISym2X=1 I1Cent= 0 IOpClX= 0 NMat=1 NMatS=1 NMatT=0.
 ***** Axes restored to original set *****
 -------------------------------------------------------------------
 Center     Atomic                   Forces (Hartrees/Bohr)
 Number     Number              X              Y              Z
 -------------------------------------------------------------------
      1        7          -0.036603574    0.000000000    0.214343812
      2        6           0.036646363    0.000000000   -0.181865631
      3        1          -0.000042789    0.000000000   -0.032478181
 -------------------------------------------------------------------
 Cartesian Forces:  Max     0.214343812 RMS     0.095891136

 GradGradGradGradGradGradGradGradGradGradGradGradGradGradGradGradGradGrad
 Berny optimization.
 Using GEDIIS/GDIIS optimizer.
 FormGI is forming the generalized inverse of G from B-inverse, IUseBI=4.
 Internal  Forces:  Max     0.117831489 RMS     0.079343521
 Search for a local minimum.
 Step number   3 out of a maximum of   20
 All quantities printed in internal units (Hartrees-Bohrs-Radians)
 Mixed Optimization -- RFO/linear search
 Update second derivatives using D2CorX and points    2    3
 The second derivative matrix:
                          R1        R2        A1        A2
           R1           0.69177
           R2          -0.14312   0.50978
           A1          -0.04332   0.04208   0.00748
           A2           0.00000   0.00000   0.00000   0.00230
 ITU=  0  1  0
 Use linear search instead of GDIIS.
     Eigenvalues ---    0.00230   0.04959   0.75441
 RFO step:  Lambda=-1.00171533D-02 EMin= 2.30000000D-03
 Quartic linear search produced a step of -0.39204.
 Iteration  1 RMS(Cart)=  0.10350829 RMS(Int)=  0.13928131
 Iteration  2 RMS(Cart)=  0.08232021 RMS(Int)=  0.03970156
 Iteration  3 RMS(Cart)=  0.03375381 RMS(Int)=  0.00111867
 Iteration  4 RMS(Cart)=  0.00108172 RMS(Int)=  0.00000014
 Iteration  5 RMS(Cart)=  0.00000012 RMS(Int)=  0.00000000
 ClnCor:  largest displacement from symmetrization is 3.57D-15 for atom     3.
 Variable       Old X    -DE/DX   Delta X   Delta X   Delta X     New X
                                 (Linear)    (Quad)   (Total)
    R1        2.37423  -0.11783  -0.12663  -0.05592  -0.18255   2.19168
    R2        1.81844   0.09962   0.17012  -0.13983   0.03028   1.84872
    A1        2.90625   0.03706   0.10176   0.38018   0.48194   3.38819
    A2        3.14159   0.00000   0.00000   0.00000   0.00000   3.14159
         Item               Value     Threshold  Converged?
 Maximum Force            0.117831     0.000015     NO 
 RMS     Force            0.079344     0.000010     NO 
 Maximum Displacement     0.329937     0.000060     NO 
 RMS     Displacement     0.210925     0.000040     NO 
 Predicted change in Energy=-2.454197D-02
 GradGradGradGradGradGradGradGradGradGradGradGradGradGradGradGradGradGrad

                          Input orientation:                          
 ---------------------------------------------------------------------
 Center     Atomic      Atomic             Coordinates (Angstroms)
 Number     Number       Type             X           Y           Z
 ---------------------------------------------------------------------
      1          7           0       -0.013835    0.000000   -0.166235
      2          6           0        0.003651    0.000000    0.993423
      3          1           0        0.210642    0.000000   -1.118436
 ---------------------------------------------------------------------
                    Distance matrix (angstroms):
                    1          2          3
     1  N    0.000000
     2  C    1.159789   0.000000
     3  H    0.978303   2.121978   0.000000
 Stoichiometry    CHN
 Framework group  CS[SG(CHN)]
 Deg. of freedom     3
 Full point group                 CS      NOp   2
 Largest Abelian subgroup         CS      NOp   2
 Largest concise Abelian subgroup C1      NOp   1
                         Standard orientation:                         
 ---------------------------------------------------------------------
 Center     Atomic      Atomic             Coordinates (Angstroms)
 Number     Number       Type             X           Y           Z
 ---------------------------------------------------------------------
      1          7           0        0.017058    0.429288    0.000000
      2          6           0        0.017058   -0.730502    0.000000
      3          1           0       -0.221751    1.377996    0.000000
 ---------------------------------------------------------------------
 Rotational constants (GHZ):  11390.1279431     46.6224896     46.4324307
 Basis read from rwf:  (5D, 7F)
 There are    33 symmetry adapted cartesian basis functions of A'  symmetry.
 There are    11 symmetry adapted cartesian basis functions of A"  symmetry.
 There are    31 symmetry adapted basis functions of A'  symmetry.
 There are    11 symmetry adapted basis functions of A"  symmetry.
    42 basis functions,    74 primitive gaussians,    44 cartesian basis functions
     7 alpha electrons        7 beta electrons
       nuclear repulsion energy        24.4460129996 Hartrees.
 NAtoms=    3 NActive=    3 NUniq=    3 SFac= 1.00D+00 NAtFMM=   60 NAOKFM=F Big=F
 Integral buffers will be    131072 words long.
 Raffenetti 1 integral format.
 Two-electron integral symmetry is turned on.
 One-electron integrals computed using PRISM.
 NBasis=    42 RedAO= T EigKep=  8.01D-03  NBF=    31    11
 NBsUse=    42 1.00D-06 EigRej= -1.00D+00 NBFU=    31    11
 Initial guess from the checkpoint file:  "/home/epktb/dzp-HNC.chk"
 B after Tr=     0.000000    0.000000    0.000000
         Rot=    0.000000   -0.001964    0.999998    0.000000 Ang=-180.00 deg.
 Initial guess orbital symmetries:
       Occupied  (A') (A') (A') (A') (A') (A") (A')
       Virtual   (A') (A') (A') (A') (A') (A') (A') (A') (A') (A')
                 (A') (A') (A') (A') (A') (A') (A') (A') (A') (A')
                 (A') (A') (A') (A') (A') (A") (A") (A") (A") (A")
                 (A") (A") (A") (A") (A")
 ExpMin= 3.40D-02 ExpMax= 5.91D+03 ExpMxC= 8.87D+02 IAcc=3 IRadAn=         5 AccDes= 0.00D+00
 Harris functional with IExCor=  205 and IRadAn=       5 diagonalized for initial guess.
 HarFok:  IExCor=  205 AccDes= 0.00D+00 IRadAn=         5 IDoV= 1 UseB2=F ITyADJ=14
 ICtDFT=  3500011 ScaDFX=  1.000000  1.000000  1.000000  1.000000
 FoFCou: FMM=F IPFlag=           0 FMFlag=      100000 FMFlg1=           0
         NFxFlg=           0 DoJE=T BraDBF=F KetDBF=T FulRan=T
         wScrn=  0.000000 ICntrl=     500 IOpCl=  0 I1Cent=   200000004 NGrid=           0
         NMat0=    1 NMatS0=      1 NMatT0=    0 NMatD0=    1 NMtDS0=    0 NMtDT0=    0
 Petite list used in FoFCou.
 Keep R1 ints in memory in symmetry-blocked form, NReq=1271642.
 Requested convergence on RMS density matrix=1.00D-08 within 128 cycles.
 Requested convergence on MAX density matrix=1.00D-06.
 Requested convergence on             energy=1.00D-06.
 No special actions if energy rises.
 SCF Done:  E(RHF) =  -92.8760307703     A.U. after   10 cycles
            NFock= 10  Conv=0.81D-08     -V/T= 2.0014
 Calling FoFJK, ICntrl=      2127 FMM=F ISym2X=1 I1Cent= 0 IOpClX= 0 NMat=1 NMatS=1 NMatT=0.
 ***** Axes restored to original set *****
 -------------------------------------------------------------------
 Center     Atomic                   Forces (Hartrees/Bohr)
 Number     Number              X              Y              Z
 -------------------------------------------------------------------
      1        7           0.006265227    0.000000000    0.015135636
      2        6          -0.004037770    0.000000000   -0.004039570
      3        1          -0.002227456    0.000000000   -0.011096066
 -------------------------------------------------------------------
 Cartesian Forces:  Max     0.015135636 RMS     0.006904479

 GradGradGradGradGradGradGradGradGradGradGradGradGradGradGradGradGradGrad
 Berny optimization.
 Using GEDIIS/GDIIS optimizer.
 FormGI is forming the generalized inverse of G from B-inverse, IUseBI=4.
 Internal  Forces:  Max     0.008743935 RMS     0.006139614
 Search for a local minimum.
 Step number   4 out of a maximum of   20
 All quantities printed in internal units (Hartrees-Bohrs-Radians)
 Mixed Optimization -- RFO/linear search
 Update second derivatives using D2CorX and points    2    3    4
 DE= -1.96D-02 DEPred=-2.45D-02 R= 7.99D-01
 TightC=F SS=  1.41D+00  RLast= 5.16D-01 DXNew= 8.4853D-01 1.5487D+00
 Trust test= 7.99D-01 RLast= 5.16D-01 DXMaxT set to 8.49D-01
 The second derivative matrix:
                          R1        R2        A1        A2
           R1           0.29077
           R2          -0.23047   0.54802
           A1          -0.10174   0.07321   0.04724
           A2           0.00000   0.00000   0.00000   0.00230
 ITU=  1  0  1  0
 Use linear search instead of GDIIS.
     Eigenvalues ---    0.00230   0.01031   0.68951
 RFO step:  Lambda=-5.64936388D-03 EMin= 2.30000000D-03
 Quartic linear search produced a step of -0.03534.
 Iteration  1 RMS(Cart)=  0.11068350 RMS(Int)=  0.17076813
 Iteration  2 RMS(Cart)=  0.08026309 RMS(Int)=  0.06897487
 Iteration  3 RMS(Cart)=  0.05469676 RMS(Int)=  0.00319358
 Iteration  4 RMS(Cart)=  0.00314164 RMS(Int)=  0.00000041
 Iteration  5 RMS(Cart)=  0.00000032 RMS(Int)=  0.00000000
 ClnCor:  largest displacement from symmetrization is 1.78D-15 for atom     3.
 Variable       Old X    -DE/DX   Delta X   Delta X   Delta X     New X
                                 (Linear)    (Quad)   (Total)
    R1        2.19168  -0.00874   0.00645  -0.23870  -0.23225   1.95944
    R2        1.84872   0.00567  -0.00107  -0.01474  -0.01581   1.83291
    A1        3.38819  -0.00650  -0.01703  -0.53024  -0.54727   2.84092
    A2        3.14159   0.00000   0.00000   0.00000   0.00000   3.14159
         Item               Value     Threshold  Converged?
 Maximum Force            0.008744     0.000015     NO 
 RMS     Force            0.006140     0.000010     NO 
 Maximum Displacement     0.344712     0.000060     NO 
 RMS     Displacement     0.239310     0.000040     NO 
 Predicted change in Energy=-3.655041D-03
 GradGradGradGradGradGradGradGradGradGradGradGradGradGradGradGradGradGrad

                          Input orientation:                          
 ---------------------------------------------------------------------
 Center     Atomic      Atomic             Coordinates (Angstroms)
 Number     Number       Type             X           Y           Z
 ---------------------------------------------------------------------
      1          7           0        0.168578    0.000000   -0.110106
      2          6           0       -0.077721    0.000000    0.897106
      3          1           0        0.109601    0.000000   -1.078248
 ---------------------------------------------------------------------
                    Distance matrix (angstroms):
                    1          2          3
     1  N    0.000000
     2  C    1.036889   0.000000
     3  H    0.969937   1.984216   0.000000
 Stoichiometry    CHN
 Framework group  CS[SG(CHN)]
 Deg. of freedom     3
 Full point group                 CS      NOp   2
 Largest Abelian subgroup         CS      NOp   2
 Largest concise Abelian subgroup C1      NOp   1
                         Standard orientation:                         
 ---------------------------------------------------------------------
 Center     Atomic      Atomic             Coordinates (Angstroms)
 Number     Number       Type             X           Y           Z
 ---------------------------------------------------------------------
      1          7           0       -0.020518    0.378208    0.000000
      2          6           0       -0.020518   -0.658681    0.000000
      3          1           0        0.266740    1.304631    0.000000
 ---------------------------------------------------------------------
 Rotational constants (GHZ):   8068.2542712     56.9105843     56.5119690
 Basis read from rwf:  (5D, 7F)
 There are    33 symmetry adapted cartesian basis functions of A'  symmetry.
 There are    11 symmetry adapted cartesian basis functions of A"  symmetry.
 There are    31 symmetry adapted basis functions of A'  symmetry.
 There are    11 symmetry adapted basis functions of A"  symmetry.
    42 basis functions,    74 primitive gaussians,    44 cartesian basis functions
     7 alpha electrons        7 beta electrons
       nuclear repulsion energy        26.8539510931 Hartrees.
 NAtoms=    3 NActive=    3 NUniq=    3 SFac= 1.00D+00 NAtFMM=   60 NAOKFM=F Big=F
 Integral buffers will be    131072 words long.
 Raffenetti 1 integral format.
 Two-electron integral symmetry is turned on.
 One-electron integrals computed using PRISM.
 NBasis=    42 RedAO= T EigKep=  6.40D-03  NBF=    31    11
 NBsUse=    42 1.00D-06 EigRej= -1.00D+00 NBFU=    31    11
 Initial guess from the checkpoint file:  "/home/epktb/dzp-HNC.chk"
 B after Tr=     0.000000    0.000000    0.000000
         Rot=    0.000000    0.007160    0.999974    0.000000 Ang= 180.00 deg.
 Initial guess orbital symmetries:
       Occupied  (A') (A') (A') (A') (A') (A") (A')
       Virtual   (A') (A') (A') (A') (A') (A') (A') (A') (A') (A')
                 (A') (A') (A') (A') (A') (A') (A') (A') (A') (A')
                 (A') (A') (A') (A') (A') (A") (A") (A") (A") (A")
                 (A") (A") (A") (A") (A")
 ExpMin= 3.40D-02 ExpMax= 5.91D+03 ExpMxC= 8.87D+02 IAcc=3 IRadAn=         5 AccDes= 0.00D+00
 Harris functional with IExCor=  205 and IRadAn=       5 diagonalized for initial guess.
 HarFok:  IExCor=  205 AccDes= 0.00D+00 IRadAn=         5 IDoV= 1 UseB2=F ITyADJ=14
 ICtDFT=  3500011 ScaDFX=  1.000000  1.000000  1.000000  1.000000
 FoFCou: FMM=F IPFlag=           0 FMFlag=      100000 FMFlg1=           0
         NFxFlg=           0 DoJE=T BraDBF=F KetDBF=T FulRan=T
         wScrn=  0.000000 ICntrl=     500 IOpCl=  0 I1Cent=   200000004 NGrid=           0
         NMat0=    1 NMatS0=      1 NMatT0=    0 NMatD0=    1 NMtDS0=    0 NMtDT0=    0
 Petite list used in FoFCou.
 Keep R1 ints in memory in symmetry-blocked form, NReq=1271712.
 Requested convergence on RMS density matrix=1.00D-08 within 128 cycles.
 Requested convergence on MAX density matrix=1.00D-06.
 Requested convergence on             energy=1.00D-06.
 No special actions if energy rises.
 SCF Done:  E(RHF) =  -92.8292750664     A.U. after   12 cycles
            NFock= 12  Conv=0.68D-08     -V/T= 1.9930
 Calling FoFJK, ICntrl=      2127 FMM=F ISym2X=1 I1Cent= 0 IOpClX= 0 NMat=1 NMatS=1 NMatT=0.
 ***** Axes restored to original set *****
 -------------------------------------------------------------------
 Center     Atomic                   Forces (Hartrees/Bohr)
 Number     Number              X              Y              Z
 -------------------------------------------------------------------
      1        7           0.087360584    0.000000000   -0.424430015
      2        6          -0.097454379    0.000000000    0.442541377
      3        1           0.010093795    0.000000000   -0.018111361
 -------------------------------------------------------------------
 Cartesian Forces:  Max     0.442541377 RMS     0.209109977

 GradGradGradGradGradGradGradGradGradGradGradGradGradGradGradGradGradGrad
 Berny optimization.
 Using GEDIIS/GDIIS optimizer.
 FormGI is forming the generalized inverse of G from B-inverse, IUseBI=4.
 Internal  Forces:  Max     0.235757169 RMS     0.159440836
 Search for a local minimum.
 Step number   5 out of a maximum of   20
 All quantities printed in internal units (Hartrees-Bohrs-Radians)
 Mixed Optimization -- RFO/linear search
 Update second derivatives using D2CorX and points    2    3    5    4
 DE=  4.68D-02 DEPred=-3.66D-03 R=-1.28D+01
 Trust test=-1.28D+01 RLast= 5.95D-01 DXMaxT set to 4.24D-01
 The second derivative matrix:
                          R1        R2        A1        A2
           R1           4.75349
           R2          -3.98724   3.42755
           A1          -1.45532   1.21859   0.44816
           A2           0.00000   0.00000   0.00000   0.00230
 ITU= -1  1  0  1  0
 Use linear search instead of GDIIS.
     Eigenvalues ---    0.00230   0.01603   8.57539
 RFO step:  Lambda=-1.91293434D-05 EMin= 2.30000000D-03
 Quartic linear search produced a step of -0.98047.
 Iteration  1 RMS(Cart)=  0.12677429 RMS(Int)=  0.15864234
 Iteration  2 RMS(Cart)=  0.08259558 RMS(Int)=  0.05937580
 Iteration  3 RMS(Cart)=  0.04952748 RMS(Int)=  0.00252791
 Iteration  4 RMS(Cart)=  0.00248315 RMS(Int)=  0.00000035
 Iteration  5 RMS(Cart)=  0.00000029 RMS(Int)=  0.00000000
 ClnCor:  largest displacement from symmetrization is 5.36D-15 for atom     3.
 Variable       Old X    -DE/DX   Delta X   Delta X   Delta X     New X
                                 (Linear)    (Quad)   (Total)
    R1        1.95944   0.23576   0.22771   0.00134   0.22905   2.18849
    R2        1.83291  -0.19927   0.01550   0.01328   0.02878   1.86169
    A1        2.84092  -0.07996   0.53658  -0.03154   0.50505   3.34597
    A2        3.14159   0.00000   0.00000   0.00000   0.00000   3.14159
         Item               Value     Threshold  Converged?
 Maximum Force            0.235757     0.000015     NO 
 RMS     Force            0.159441     0.000010     NO 
 Maximum Displacement     0.317292     0.000060     NO 
 RMS     Displacement     0.226353     0.000040     NO 
 Predicted change in Energy=-4.522004D-02
 GradGradGradGradGradGradGradGradGradGradGradGradGradGradGradGradGradGrad

                          Input orientation:                          
 ---------------------------------------------------------------------
 Center     Atomic      Atomic             Coordinates (Angstroms)
 Number     Number       Type             X           Y           Z
 ---------------------------------------------------------------------
      1          7           0        0.000675    0.000000   -0.162078
      2          6           0       -0.008338    0.000000    0.995984
      3          1           0        0.208121    0.000000   -1.125154
 ---------------------------------------------------------------------
                    Distance matrix (angstroms):
                    1          2          3
     1  N    0.000000
     2  C    1.158097   0.000000
     3  H    0.985165   2.132154   0.000000
 Stoichiometry    CHN
 Framework group  CS[SG(CHN)]
 Deg. of freedom     3
 Full point group                 CS      NOp   2
 Largest Abelian subgroup         CS      NOp   2
 Largest concise Abelian subgroup C1      NOp   1
                         Standard orientation:                         
 ---------------------------------------------------------------------
 Center     Atomic      Atomic             Coordinates (Angstroms)
 Number     Number       Type             X           Y           Z
 ---------------------------------------------------------------------
      1          7           0        0.014282    0.427423    0.000000
      2          6           0        0.014282   -0.730674    0.000000
      3          1           0       -0.185664    1.392084    0.000000
 ---------------------------------------------------------------------
 Rotational constants (GHZ):  16318.9577260     46.5562784     46.4238360
 Basis read from rwf:  (5D, 7F)
 There are    33 symmetry adapted cartesian basis functions of A'  symmetry.
 There are    11 symmetry adapted cartesian basis functions of A"  symmetry.
 There are    31 symmetry adapted basis functions of A'  symmetry.
 There are    11 symmetry adapted basis functions of A"  symmetry.
    42 basis functions,    74 primitive gaussians,    44 cartesian basis functions
     7 alpha electrons        7 beta electrons
       nuclear repulsion energy        24.4405069976 Hartrees.
 NAtoms=    3 NActive=    3 NUniq=    3 SFac= 1.00D+00 NAtFMM=   60 NAOKFM=F Big=F
 Integral buffers will be    131072 words long.
 Raffenetti 1 integral format.
 Two-electron integral symmetry is turned on.
 One-electron integrals computed using PRISM.
 NBasis=    42 RedAO= T EigKep=  7.81D-03  NBF=    31    11
 NBsUse=    42 1.00D-06 EigRej= -1.00D+00 NBFU=    31    11
 Lowest energy guess from the checkpoint file:  "/home/epktb/dzp-HNC.chk"
 B after Tr=     0.000000    0.000000    0.000000
         Rot=    0.999990    0.000000    0.000000    0.004412 Ang=   0.51 deg.
 B after Tr=     0.000000    0.000000    0.000000
         Rot=    0.000000    0.011803    0.999930    0.000000 Ang= 180.00 deg.
 Initial guess orbital symmetries:
       Occupied  (A') (A") (A') (A') (A') (A') (A')
       Virtual   (A') (A") (A') (A') (A') (A') (A') (A') (A') (A')
                 (A') (A') (A') (A') (A') (A') (A') (A') (A') (A')
                 (A') (A') (A') (A') (A') (A") (A") (A") (A") (A")
                 (A") (A") (A") (A") (A")
 Keep R1 ints in memory in symmetry-blocked form, NReq=1271642.
 Requested convergence on RMS density matrix=1.00D-08 within 128 cycles.
 Requested convergence on MAX density matrix=1.00D-06.
 Requested convergence on             energy=1.00D-06.
 No special actions if energy rises.
 An orbital has undefined symmetry, so N**3 symmetry is turned off.
 SCF Done:  E(RHF) =  -92.8764578804     A.U. after   11 cycles
            NFock= 11  Conv=0.30D-08     -V/T= 2.0014
 Calling FoFJK, ICntrl=      2127 FMM=F ISym2X=1 I1Cent= 0 IOpClX= 0 NMat=1 NMatS=1 NMatT=0.
 ***** Axes restored to original set *****
 -------------------------------------------------------------------
 Center     Atomic                   Forces (Hartrees/Bohr)
 Number     Number              X              Y              Z
 -------------------------------------------------------------------
      1        7           0.006729642    0.000000000    0.003991428
      2        6          -0.003336112    0.000000000   -0.001075565
      3        1          -0.003393530    0.000000000   -0.002915863
 -------------------------------------------------------------------
 Cartesian Forces:  Max     0.006729642 RMS     0.003223600

 GradGradGradGradGradGradGradGradGradGradGradGradGradGradGradGradGradGrad
 Berny optimization.
 Using GEDIIS/GDIIS optimizer.
 FormGI is forming the generalized inverse of G from B-inverse, IUseBI=4.
 Internal  Forces:  Max     0.006555600 RMS     0.003592276
 Search for a local minimum.
 Step number   6 out of a maximum of   20
 All quantities printed in internal units (Hartrees-Bohrs-Radians)
 Mixed Optimization -- RFO/linear search
 Update second derivatives using D2CorX and points    2    3    5    4    6
 DE= -4.27D-04 DEPred=-4.52D-02 R= 9.45D-03
 Trust test= 9.45D-03 RLast= 4.43D-02 DXMaxT set to 2.12D-01
 The second derivative matrix:
                          R1        R2        A1        A2
           R1           4.40099
           R2          -3.57919   2.92842
           A1          -1.29487   1.04252   0.41686
           A2           0.00000   0.00000   0.00000   0.00230
 ITU= -1 -1  1  0  1
 Use linear search instead of GDIIS.
     Eigenvalues ---    0.00230   0.03085   7.50591
 RFO step:  Lambda=-5.38629905D-05 EMin= 2.30000000D-03
 Quartic linear search produced a step of  0.34197.
 Iteration  1 RMS(Cart)=  0.02239105 RMS(Int)=  0.00052249
 Iteration  2 RMS(Cart)=  0.00052068 RMS(Int)=  0.00000042
 Iteration  3 RMS(Cart)=  0.00000002 RMS(Int)=  0.00000041
 ClnCor:  largest displacement from symmetrization is 5.55D-17 for atom     1.
 Variable       Old X    -DE/DX   Delta X   Delta X   Delta X     New X
                                 (Linear)    (Quad)   (Total)
    R1        2.18849  -0.00293  -0.00109  -0.01330  -0.01439   2.17410
    R2        1.86169   0.00026   0.00443  -0.00265   0.00178   1.86347
    A1        3.34597  -0.00656  -0.01444  -0.03921  -0.05365   3.29232
    A2        3.14159   0.00000   0.00000   0.00000   0.00000   3.14159
         Item               Value     Threshold  Converged?
 Maximum Force            0.006556     0.000015     NO 
 RMS     Force            0.003592     0.000010     NO 
 Maximum Displacement     0.035259     0.000060     NO 
 RMS     Displacement     0.022379     0.000040     NO 
 Predicted change in Energy=-3.416285D-04
 GradGradGradGradGradGradGradGradGradGradGradGradGradGradGradGradGradGrad

                          Input orientation:                          
 ---------------------------------------------------------------------
 Center     Atomic      Atomic             Coordinates (Angstroms)
 Number     Number       Type             X           Y           Z
 ---------------------------------------------------------------------
      1          7           0        0.019333    0.000000   -0.157129
      2          6           0       -0.016967    0.000000    0.992780
      3          1           0        0.198092    0.000000   -1.126899
 ---------------------------------------------------------------------
                    Distance matrix (angstroms):
                    1          2          3
     1  N    0.000000
     2  C    1.150482   0.000000
     3  H    0.986108   2.130561   0.000000
 Stoichiometry    CHN
 Framework group  CS[SG(CHN)]
 Deg. of freedom     3
 Full point group                 CS      NOp   2
 Largest Abelian subgroup         CS      NOp   2
 Largest concise Abelian subgroup C1      NOp   1
                         Standard orientation:                         
 ---------------------------------------------------------------------
 Center     Atomic      Atomic             Coordinates (Angstroms)
 Number     Number       Type             X           Y           Z
 ---------------------------------------------------------------------
      1          7           0        0.010577    0.423426    0.000000
      2          6           0        0.010577   -0.727056    0.000000
      3          1           0       -0.137495    1.398354    0.000000
 ---------------------------------------------------------------------
 Rotational constants (GHZ):  29880.3867696     46.9776863     46.9039443
 Basis read from rwf:  (5D, 7F)
 There are    33 symmetry adapted cartesian basis functions of A'  symmetry.
 There are    11 symmetry adapted cartesian basis functions of A"  symmetry.
 There are    31 symmetry adapted basis functions of A'  symmetry.
 There are    11 symmetry adapted basis functions of A"  symmetry.
    42 basis functions,    74 primitive gaussians,    44 cartesian basis functions
     7 alpha electrons        7 beta electrons
       nuclear repulsion energy        24.5650470470 Hartrees.
 NAtoms=    3 NActive=    3 NUniq=    3 SFac= 1.00D+00 NAtFMM=   60 NAOKFM=F Big=F
 Integral buffers will be    131072 words long.
 Raffenetti 1 integral format.
 Two-electron integral symmetry is turned on.
 One-electron integrals computed using PRISM.
 NBasis=    42 RedAO= T EigKep=  7.46D-03  NBF=    31    11
 NBsUse=    42 1.00D-06 EigRej= -1.00D+00 NBFU=    31    11
 Initial guess from the checkpoint file:  "/home/epktb/dzp-HNC.chk"
 B after Tr=     0.000000    0.000000    0.000000
         Rot=    0.999984    0.000000    0.000000    0.005714 Ang=   0.65 deg.
 Initial guess orbital symmetries:
       Occupied  (A') (A') (A') (A') (A') (A") (A')
       Virtual   (A') (A') (A') (A') (A') (A') (A') (A') (A') (A')
                 (A') (A') (A') (A') (A') (A') (A') (A') (A') (A')
                 (A') (A') (A') (A') (A') (A") (A") (A") (A") (A")
                 (A") (A") (A") (A") (A")
 ExpMin= 3.40D-02 ExpMax= 5.91D+03 ExpMxC= 8.87D+02 IAcc=3 IRadAn=         5 AccDes= 0.00D+00
 Harris functional with IExCor=  205 and IRadAn=       5 diagonalized for initial guess.
 HarFok:  IExCor=  205 AccDes= 0.00D+00 IRadAn=         5 IDoV= 1 UseB2=F ITyADJ=14
 ICtDFT=  3500011 ScaDFX=  1.000000  1.000000  1.000000  1.000000
 FoFCou: FMM=F IPFlag=           0 FMFlag=      100000 FMFlg1=           0
         NFxFlg=           0 DoJE=T BraDBF=F KetDBF=T FulRan=T
         wScrn=  0.000000 ICntrl=     500 IOpCl=  0 I1Cent=   200000004 NGrid=           0
         NMat0=    1 NMatS0=      1 NMatT0=    0 NMatD0=    1 NMtDS0=    0 NMtDT0=    0
 Petite list used in FoFCou.
 Keep R1 ints in memory in symmetry-blocked form, NReq=1271642.
 Requested convergence on RMS density matrix=1.00D-08 within 128 cycles.
 Requested convergence on MAX density matrix=1.00D-06.
 Requested convergence on             energy=1.00D-06.
 No special actions if energy rises.
 SCF Done:  E(RHF) =  -92.8766979862     A.U. after   11 cycles
            NFock= 11  Conv=0.37D-08     -V/T= 2.0011
 Calling FoFJK, ICntrl=      2127 FMM=F ISym2X=1 I1Cent= 0 IOpClX= 0 NMat=1 NMatS=1 NMatT=0.
 ***** Axes restored to original set *****
 -------------------------------------------------------------------
 Center     Atomic                   Forces (Hartrees/Bohr)
 Number     Number              X              Y              Z
 -------------------------------------------------------------------
      1        7           0.006160493    0.000000000   -0.016072629
      2        6          -0.003206018    0.000000000    0.017179427
      3        1          -0.002954474    0.000000000   -0.001106799
 -------------------------------------------------------------------
 Cartesian Forces:  Max     0.017179427 RMS     0.008243828

 GradGradGradGradGradGradGradGradGradGradGradGradGradGradGradGradGradGrad
 Berny optimization.
 Using GEDIIS/GDIIS optimizer.
 FormGI is forming the generalized inverse of G from B-inverse, IUseBI=4.
 Internal  Forces:  Max     0.008805474 RMS     0.006098309
 Search for a local minimum.
 Step number   7 out of a maximum of   20
 All quantities printed in internal units (Hartrees-Bohrs-Radians)
 Mixed Optimization -- RFO/linear search
 Update second derivatives using D2CorX and points    3    5    4    6    7
 DE= -2.40D-04 DEPred=-3.42D-04 R= 7.03D-01
 TightC=F SS=  1.41D+00  RLast= 5.56D-02 DXNew= 3.5676D-01 1.6672D-01
 Trust test= 7.03D-01 RLast= 5.56D-02 DXMaxT set to 2.12D-01
 The second derivative matrix:
                          R1        R2        A1        A2
           R1           2.43099
           R2          -2.11884   1.85773
           A1          -0.52069   0.46102   0.22173
           A2           0.00000   0.00000   0.00000   0.00230
 ITU=  1 -1 -1  1  0
 Use linear search instead of GDIIS.
     Eigenvalues ---    0.00230   0.10385   4.35474
 RFO step:  Lambda=-4.37077680D-05 EMin= 2.30000000D-03
 Quartic linear search produced a step of  0.05450.
 Iteration  1 RMS(Cart)=  0.00437196 RMS(Int)=  0.00002017
 Iteration  2 RMS(Cart)=  0.00002017 RMS(Int)=  0.00000000
 Iteration  3 RMS(Cart)=  0.00000000 RMS(Int)=  0.00000000
 ClnCor:  largest displacement from symmetrization is 4.44D-16 for atom     3.
 Variable       Old X    -DE/DX   Delta X   Delta X   Delta X     New X
                                 (Linear)    (Quad)   (Total)
    R1        2.17410   0.00790  -0.00078   0.00016  -0.00063   2.17347
    R2        1.86347  -0.00881   0.00010  -0.00244  -0.00234   1.86114
    A1        3.29232  -0.00298  -0.00292  -0.00757  -0.01050   3.28182
    A2        3.14159   0.00000   0.00000   0.00000   0.00000   3.14159
         Item               Value     Threshold  Converged?
 Maximum Force            0.008805     0.000015     NO 
 RMS     Force            0.006098     0.000010     NO 
 Maximum Displacement     0.007081     0.000060     NO 
 RMS     Displacement     0.004372     0.000040     NO 
 Predicted change in Energy=-2.431162D-05
 GradGradGradGradGradGradGradGradGradGradGradGradGradGradGradGradGradGrad

                          Input orientation:                          
 ---------------------------------------------------------------------
 Center     Atomic      Atomic             Coordinates (Angstroms)
 Number     Number       Type             X           Y           Z
 ---------------------------------------------------------------------
      1          7           0        0.023080    0.000000   -0.157025
      2          6           0       -0.018648    0.000000    0.992369
      3          1           0        0.196027    0.000000   -1.126592
 ---------------------------------------------------------------------
                    Distance matrix (angstroms):
                    1          2          3
     1  N    0.000000
     2  C    1.150151   0.000000
     3  H    0.984871   2.129807   0.000000
 Stoichiometry    CHN
 Framework group  CS[SG(CHN)]
 Deg. of freedom     3
 Full point group                 CS      NOp   2
 Largest Abelian subgroup         CS      NOp   2
 Largest concise Abelian subgroup C1      NOp   1
                         Standard orientation:                         
 ---------------------------------------------------------------------
 Center     Atomic      Atomic             Coordinates (Angstroms)
 Number     Number       Type             X           Y           Z
 ---------------------------------------------------------------------
      1          7           0        0.009833    0.423264    0.000000
      2          6           0        0.009833   -0.726886    0.000000
      3          1           0       -0.127824    1.398467    0.000000
 ---------------------------------------------------------------------
 Rotational constants (GHZ):  34576.6399184     47.0002057     46.9364048
 Basis read from rwf:  (5D, 7F)
 There are    33 symmetry adapted cartesian basis functions of A'  symmetry.
 There are    11 symmetry adapted cartesian basis functions of A"  symmetry.
 There are    31 symmetry adapted basis functions of A'  symmetry.
 There are    11 symmetry adapted basis functions of A"  symmetry.
    42 basis functions,    74 primitive gaussians,    44 cartesian basis functions
     7 alpha electrons        7 beta electrons
       nuclear repulsion energy        24.5758559183 Hartrees.
 NAtoms=    3 NActive=    3 NUniq=    3 SFac= 1.00D+00 NAtFMM=   60 NAOKFM=F Big=F
 Integral buffers will be    131072 words long.
 Raffenetti 1 integral format.
 Two-electron integral symmetry is turned on.
 One-electron integrals computed using PRISM.
 NBasis=    42 RedAO= T EigKep=  7.40D-03  NBF=    31    11
 NBsUse=    42 1.00D-06 EigRej= -1.00D+00 NBFU=    31    11
 Initial guess from the checkpoint file:  "/home/epktb/dzp-HNC.chk"
 B after Tr=     0.000000    0.000000    0.000000
         Rot=    0.999999    0.000000    0.000000    0.001139 Ang=   0.13 deg.
 Initial guess orbital symmetries:
       Occupied  (A') (A') (A') (A') (A') (A") (A')
       Virtual   (A') (A') (A') (A') (A') (A') (A') (A') (A') (A')
                 (A') (A') (A') (A') (A') (A') (A') (A') (A') (A')
                 (A') (A') (A') (A') (A') (A") (A") (A") (A") (A")
                 (A") (A") (A") (A") (A")
 Keep R1 ints in memory in symmetry-blocked form, NReq=1271642.
 Requested convergence on RMS density matrix=1.00D-08 within 128 cycles.
 Requested convergence on MAX density matrix=1.00D-06.
 Requested convergence on             energy=1.00D-06.
 No special actions if energy rises.
 SCF Done:  E(RHF) =  -92.8767430192     A.U. after   10 cycles
            NFock= 10  Conv=0.49D-08     -V/T= 2.0010
 Calling FoFJK, ICntrl=      2127 FMM=F ISym2X=1 I1Cent= 0 IOpClX= 0 NMat=1 NMatS=1 NMatT=0.
 ***** Axes restored to original set *****
 -------------------------------------------------------------------
 Center     Atomic                   Forces (Hartrees/Bohr)
 Number     Number              X              Y              Z
 -------------------------------------------------------------------
      1        7           0.005683336    0.000000000   -0.015439489
      2        6          -0.003141978    0.000000000    0.017782922
      3        1          -0.002541358    0.000000000   -0.002343433
 -------------------------------------------------------------------
 Cartesian Forces:  Max     0.017782922 RMS     0.008224169

 GradGradGradGradGradGradGradGradGradGradGradGradGradGradGradGradGradGrad
 Berny optimization.
 Using GEDIIS/GDIIS optimizer.
 FormGI is forming the generalized inverse of G from B-inverse, IUseBI=4.
 Internal  Forces:  Max     0.008368541 RMS     0.005809527
 Search for a local minimum.
 Step number   8 out of a maximum of   20
 All quantities printed in internal units (Hartrees-Bohrs-Radians)
 Mixed Optimization -- RFO/linear search
 Update second derivatives using D2CorX and points    5    4    6    7    8
 DE= -4.50D-05 DEPred=-2.43D-05 R= 1.85D+00
 TightC=F SS=  1.41D+00  RLast= 1.08D-02 DXNew= 3.5676D-01 3.2321D-02
 Trust test= 1.85D+00 RLast= 1.08D-02 DXMaxT set to 2.12D-01
 The second derivative matrix:
                          R1        R2        A1        A2
           R1           0.72606
           R2          -0.60146   0.52040
           A1           0.06624  -0.03846   0.04343
           A2           0.00000   0.00000   0.00000   0.00230
 ITU=  1  1 -1 -1  1
 Use linear search instead of GDIIS.
     Eigenvalues ---    0.00230   0.04283   1.23180
 RFO step:  Lambda=-8.73039308D-05 EMin= 2.30000000D-03
 Quartic linear search produced a step of  1.70574.
 Iteration  1 RMS(Cart)=  0.00475847 RMS(Int)=  0.00001611
 Iteration  2 RMS(Cart)=  0.00001608 RMS(Int)=  0.00000000
 Iteration  3 RMS(Cart)=  0.00000000 RMS(Int)=  0.00000000
 ClnCor:  largest displacement from symmetrization is 2.23D-15 for atom     3.
 Variable       Old X    -DE/DX   Delta X   Delta X   Delta X     New X
                                 (Linear)    (Quad)   (Total)
    R1        2.17347   0.00764  -0.00107   0.00659   0.00552   2.17899
    R2        1.86114  -0.00837  -0.00399  -0.00418  -0.00817   1.85297
    A1        3.28182  -0.00257  -0.01791   0.00866  -0.00925   3.27258
    A2        3.14159   0.00000   0.00000   0.00000   0.00000   3.14159
         Item               Value     Threshold  Converged?
 Maximum Force            0.008369     0.000015     NO 
 RMS     Force            0.005810     0.000010     NO 
 Maximum Displacement     0.006674     0.000060     NO 
 RMS     Displacement     0.004758     0.000040     NO 
 Predicted change in Energy=-8.316453D-05
 GradGradGradGradGradGradGradGradGradGradGradGradGradGradGradGradGradGrad

                          Input orientation:                          
 ---------------------------------------------------------------------
 Center     Atomic      Atomic             Coordinates (Angstroms)
 Number     Number       Type             X           Y           Z
 ---------------------------------------------------------------------
      1          7           0        0.026612    0.000000   -0.159072
      2          6           0       -0.020166    0.000000    0.993050
      3          1           0        0.194013    0.000000   -1.125225
 ---------------------------------------------------------------------
                    Distance matrix (angstroms):
                    1          2          3
     1  N    0.000000
     2  C    1.153071   0.000000
     3  H    0.980548   2.129075   0.000000
 Stoichiometry    CHN
 Framework group  CS[SG(CHN)]
 Deg. of freedom     3
 Full point group                 CS      NOp   2
 Largest Abelian subgroup         CS      NOp   2
 Largest concise Abelian subgroup C1      NOp   1
                         Standard orientation:                         
 ---------------------------------------------------------------------
 Center     Atomic      Atomic             Coordinates (Angstroms)
 Number     Number       Type             X           Y           Z
 ---------------------------------------------------------------------
      1          7           0        0.009148    0.424734    0.000000
      2          6           0        0.009148   -0.728337    0.000000
      3          1           0       -0.118920    1.396883    0.000000
 ---------------------------------------------------------------------
 Rotational constants (GHZ):  39886.2143587     46.8348773     46.7799477
 Basis read from rwf:  (5D, 7F)
 There are    33 symmetry adapted cartesian basis functions of A'  symmetry.
 There are    11 symmetry adapted cartesian basis functions of A"  symmetry.
 There are    31 symmetry adapted basis functions of A'  symmetry.
 There are    11 symmetry adapted basis functions of A"  symmetry.
    42 basis functions,    74 primitive gaussians,    44 cartesian basis functions
     7 alpha electrons        7 beta electrons
       nuclear repulsion energy        24.5440056072 Hartrees.
 NAtoms=    3 NActive=    3 NUniq=    3 SFac= 1.00D+00 NAtFMM=   60 NAOKFM=F Big=F
 Integral buffers will be    131072 words long.
 Raffenetti 1 integral format.
 Two-electron integral symmetry is turned on.
 One-electron integrals computed using PRISM.
 NBasis=    42 RedAO= T EigKep=  7.37D-03  NBF=    31    11
 NBsUse=    42 1.00D-06 EigRej= -1.00D+00 NBFU=    31    11
 Initial guess from the checkpoint file:  "/home/epktb/dzp-HNC.chk"
 B after Tr=     0.000000    0.000000    0.000000
         Rot=    0.999999    0.000000    0.000000    0.001030 Ang=   0.12 deg.
 Initial guess orbital symmetries:
       Occupied  (A') (A') (A') (A') (A') (A") (A')
       Virtual   (A') (A') (A') (A') (A') (A') (A') (A') (A') (A')
                 (A') (A') (A') (A') (A') (A') (A') (A') (A') (A')
                 (A') (A') (A') (A') (A') (A") (A") (A") (A") (A")
                 (A") (A") (A") (A") (A")
 Keep R1 ints in memory in symmetry-blocked form, NReq=1271642.
 Requested convergence on RMS density matrix=1.00D-08 within 128 cycles.
 Requested convergence on MAX density matrix=1.00D-06.
 Requested convergence on             energy=1.00D-06.
 No special actions if energy rises.
 SCF Done:  E(RHF) =  -92.8768326273     A.U. after   10 cycles
            NFock= 10  Conv=0.53D-08     -V/T= 2.0011
 Calling FoFJK, ICntrl=      2127 FMM=F ISym2X=1 I1Cent= 0 IOpClX= 0 NMat=1 NMatS=1 NMatT=0.
 ***** Axes restored to original set *****
 -------------------------------------------------------------------
 Center     Atomic                   Forces (Hartrees/Bohr)
 Number     Number              X              Y              Z
 -------------------------------------------------------------------
      1        7           0.004199234    0.000000000   -0.002655840
      2        6          -0.002694859    0.000000000    0.009785872
      3        1          -0.001504375    0.000000000   -0.007130032
 -------------------------------------------------------------------
 Cartesian Forces:  Max     0.009785872 RMS     0.004482226

 GradGradGradGradGradGradGradGradGradGradGradGradGradGradGradGradGradGrad
 Berny optimization.
 Using GEDIIS/GDIIS optimizer.
 FormGI is forming the generalized inverse of G from B-inverse, IUseBI=4.
 Internal  Forces:  Max     0.002750706 RMS     0.001778204
 Search for a local minimum.
 Step number   9 out of a maximum of   20
 All quantities printed in internal units (Hartrees-Bohrs-Radians)
 Mixed Optimization -- RFO/linear search
 Update second derivatives using D2CorX and points    4    6    7    8    9
 DE= -8.96D-05 DEPred=-8.32D-05 R= 1.08D+00
 TightC=F SS=  1.41D+00  RLast= 1.35D-02 DXNew= 3.5676D-01 4.0550D-02
 Trust test= 1.08D+00 RLast= 1.35D-02 DXMaxT set to 2.12D-01
 The second derivative matrix:
                          R1        R2        A1        A2
           R1           0.53103
           R2          -0.49723   0.49402
           A1           0.05921  -0.03481   0.04629
           A2           0.00000   0.00000   0.00000   0.00230
 ITU=  1  1  1 -1 -1
 Use linear search instead of GDIIS.
     Eigenvalues ---    0.00230   0.04650   1.01465
 RFO step:  Lambda=-2.17744886D-04 EMin= 2.30000000D-03
 Quartic linear search produced a step of  0.64586.
 Iteration  1 RMS(Cart)=  0.02957563 RMS(Int)=  0.00092862
 Iteration  2 RMS(Cart)=  0.00092301 RMS(Int)=  0.00000011
 Iteration  3 RMS(Cart)=  0.00000009 RMS(Int)=  0.00000000
 ClnCor:  largest displacement from symmetrization is 1.34D-15 for atom     3.
 Variable       Old X    -DE/DX   Delta X   Delta X   Delta X     New X
                                 (Linear)    (Quad)   (Total)
    R1        2.17899   0.00120   0.00356  -0.00755  -0.00399   2.17500
    R2        1.85297  -0.00191  -0.00528  -0.00939  -0.01467   1.83830
    A1        3.27258  -0.00275  -0.00597  -0.06536  -0.07133   3.20124
    A2        3.14159   0.00000   0.00000   0.00000   0.00000   3.14159
         Item               Value     Threshold  Converged?
 Maximum Force            0.002751     0.000015     NO 
 RMS     Force            0.001778     0.000010     NO 
 Maximum Displacement     0.047746     0.000060     NO 
 RMS     Displacement     0.029586     0.000040     NO 
 Predicted change in Energy=-9.301363D-05
 GradGradGradGradGradGradGradGradGradGradGradGradGradGradGradGradGradGrad

                          Input orientation:                          
 ---------------------------------------------------------------------
 Center     Atomic      Atomic             Coordinates (Angstroms)
 Number     Number       Type             X           Y           Z
 ---------------------------------------------------------------------
      1          7           0        0.051878    0.000000   -0.158292
      2          6           0       -0.031410    0.000000    0.989651
      3          1           0        0.179990    0.000000   -1.122607
 ---------------------------------------------------------------------
                    Distance matrix (angstroms):
                    1          2          3
     1  N    0.000000
     2  C    1.150960   0.000000
     3  H    0.972788   2.122810   0.000000
 Stoichiometry    CHN
 Framework group  CS[SG(CHN)]
 Deg. of freedom     3
 Full point group                 CS      NOp   2
 Largest Abelian subgroup         CS      NOp   2
 Largest concise Abelian subgroup C1      NOp   1
                         Standard orientation:                         
 ---------------------------------------------------------------------
 Center     Atomic      Atomic             Coordinates (Angstroms)
 Number     Number       Type             X           Y           Z
 ---------------------------------------------------------------------
      1          7           0        0.004142    0.423907    0.000000
      2          6           0        0.004142   -0.727053    0.000000
      3          1           0       -0.053852    1.394965    0.000000
 ---------------------------------------------------------------------
 Rotational constants (GHZ): 194493.0697328     47.0092971     46.9979377
 Basis read from rwf:  (5D, 7F)
 There are    33 symmetry adapted cartesian basis functions of A'  symmetry.
 There are    11 symmetry adapted cartesian basis functions of A"  symmetry.
 There are    31 symmetry adapted basis functions of A'  symmetry.
 There are    11 symmetry adapted basis functions of A"  symmetry.
    42 basis functions,    74 primitive gaussians,    44 cartesian basis functions
     7 alpha electrons        7 beta electrons
       nuclear repulsion energy        24.6139000155 Hartrees.
 NAtoms=    3 NActive=    3 NUniq=    3 SFac= 1.00D+00 NAtFMM=   60 NAOKFM=F Big=F
 Integral buffers will be    131072 words long.
 Raffenetti 1 integral format.
 Two-electron integral symmetry is turned on.
 One-electron integrals computed using PRISM.
 NBasis=    42 RedAO= T EigKep=  7.09D-03  NBF=    31    11
 NBsUse=    42 1.00D-06 EigRej= -1.00D+00 NBFU=    31    11
 Initial guess from the checkpoint file:  "/home/epktb/dzp-HNC.chk"
 B after Tr=     0.000000    0.000000    0.000000
         Rot=    0.999971    0.000000    0.000000    0.007636 Ang=   0.87 deg.
 Initial guess orbital symmetries:
       Occupied  (A') (A') (A') (A') (A') (A") (A')
       Virtual   (A') (A') (A') (A') (A') (A') (A') (A') (A') (A')
                 (A') (A') (A') (A') (A') (A') (A') (A') (A') (A')
                 (A') (A') (A') (A') (A') (A") (A") (A") (A") (A")
                 (A") (A") (A") (A") (A")
 ExpMin= 3.40D-02 ExpMax= 5.91D+03 ExpMxC= 8.87D+02 IAcc=3 IRadAn=         5 AccDes= 0.00D+00
 Harris functional with IExCor=  205 and IRadAn=       5 diagonalized for initial guess.
[...]
 ---------------------------------------------------------------------
                    Distance matrix (angstroms):
                    1          2          3
     1  N    0.000000
     2  C    1.148360   0.000000
     3  H    0.968426   2.116769   0.000000
 Stoichiometry    CHN
 Framework group  CS[SG(CHN)]
 Deg. of freedom     3
 Full point group                 CS      NOp   2
 Largest Abelian subgroup         CS      NOp   2
 Largest concise Abelian subgroup C1      NOp   1
                         Standard orientation:                         
 ---------------------------------------------------------------------
 Center     Atomic      Atomic             Coordinates (Angstroms)
 Number     Number       Type             X           Y           Z
 ---------------------------------------------------------------------
      1          7           0        0.000540    0.422983    0.000000
      2          6           0        0.000540   -0.725377    0.000000
      3          1           0       -0.007014    1.391379    0.000000
 ---------------------------------------------------------------------
 Rotational constants (GHZ):***************     47.2313169     47.2311223
 Basis read from rwf:  (5D, 7F)
 There are    33 symmetry adapted cartesian basis functions of A'  symmetry.
 There are    11 symmetry adapted cartesian basis functions of A"  symmetry.
 There are    31 symmetry adapted basis functions of A'  symmetry.
 There are    11 symmetry adapted basis functions of A"  symmetry.
    42 basis functions,    74 primitive gaussians,    44 cartesian basis functions
     7 alpha electrons        7 beta electrons
       nuclear repulsion energy        24.6790491530 Hartrees.
 NAtoms=    3 NActive=    3 NUniq=    3 SFac= 1.00D+00 NAtFMM=   60 NAOKFM=F Big=F
 Integral buffers will be    131072 words long.
 Raffenetti 1 integral format.
 Two-electron integral symmetry is turned on.
 One-electron integrals computed using PRISM.
 NBasis=    42 RedAO= T EigKep=  6.97D-03  NBF=    31    11
 NBsUse=    42 1.00D-06 EigRej= -1.00D+00 NBFU=    31    11
 Initial guess from the checkpoint file:  "/home/epktb/dzp-HNC.chk"
 B after Tr=     0.000000    0.000000    0.000000
         Rot=    1.000000    0.000000    0.000000    0.000044 Ang=   0.01 deg.
 Initial guess orbital symmetries:
       Occupied  (A') (A') (A') (A') (A') (A") (A')
       Virtual   (A') (A') (A') (A') (A') (A') (A') (A') (A') (A')
                 (A') (A') (A') (A') (A') (A') (A') (A') (A') (A')
                 (A') (A') (A') (A') (A') (A") (A") (A") (A") (A")
                 (A") (A") (A") (A") (A")
 Keep R1 ints in memory in symmetry-blocked form, NReq=1271656.
 Requested convergence on RMS density matrix=1.00D-08 within 128 cycles.
 Requested convergence on MAX density matrix=1.00D-06.
 Requested convergence on             energy=1.00D-06.
 No special actions if energy rises.
 SCF Done:  E(RHF) =  -92.8767220031     A.U. after    7 cycles
            NFock=  7  Conv=0.29D-08     -V/T= 2.0006
 Calling FoFJK, ICntrl=      2127 FMM=F ISym2X=1 I1Cent= 0 IOpClX= 0 NMat=1 NMatS=1 NMatT=0.
 ***** Axes restored to original set *****
 -------------------------------------------------------------------
 Center     Atomic                   Forces (Hartrees/Bohr)
 Number     Number              X              Y              Z
 -------------------------------------------------------------------
      1        7           0.000159416    0.000000000    0.000013712
      2        6          -0.002120306    0.000000000    0.020601204
      3        1           0.001960890    0.000000000   -0.020614915
 -------------------------------------------------------------------
 Cartesian Forces:  Max     0.020614915 RMS     0.009762461

 GradGradGradGradGradGradGradGradGradGradGradGradGradGradGradGradGradGrad
 Berny optimization.
 Using GEDIIS/GDIIS optimizer.
 FormGI is forming the generalized inverse of G from B-inverse, IUseBI=4.
 Internal  Forces:  Max     0.000009604 RMS     0.000004863
 Search for a local minimum.
 Step number  19 out of a maximum of   20
 All quantities printed in internal units (Hartrees-Bohrs-Radians)
 Mixed Optimization -- En-DIIS/RFO-DIIS
 Swapping is turned off.
 Update second derivatives using D2CorX and points   15   16   17   18   19
 DE=  2.06D-06 DEPred=-4.23D-09 R=-4.87D+02
 Trust test=-4.87D+02 RLast= 4.21D-04 DXMaxT set to 5.00D-02
 The second derivative matrix:
                          R1        R2        A1        A2
           R1           0.53468
           R2          -0.51951   0.51979
           A1           0.04716  -0.04839   0.00735
           A2           0.00000   0.00000   0.00000   0.00230
 ITU= -1 -1 -1  1 -1
     Eigenvalues ---    0.00230   0.00295   1.05113
 En-DIIS/RFO-DIIS IScMMF=        0 using points:    19   18   17   16   15
 RFO step:  Lambda=-1.66599644D-09.
 DIIS inversion failure, using last point.
 DidBck=F Rises=F     DIIS coefs:    1.00000
 Use linear search instead of GDIIS.
 RFO step:  Lambda= 0.00000000D+00 EMin= 2.29999996D-03
 Quartic linear search produced a step of -0.99964.
 Iteration  1 RMS(Cart)=  0.00013096 RMS(Int)=  0.00000008
 Iteration  2 RMS(Cart)=  0.00000002 RMS(Int)=  0.00000008
 ClnCor:  largest displacement from symmetrization is 4.45D-16 for atom     2.
 Variable       Old X    -DE/DX   Delta X   Delta X   Delta X     New X
                                 (Linear)    (Quad)   (Total)
    R1        2.17009   0.00000   0.00003   0.00000   0.00004   2.17012
    R2        1.83006   0.00000   0.00007  -0.00001   0.00007   1.83013
    A1        3.14939  -0.00001   0.00041  -0.00010   0.00031   3.14970
    A2        3.14159   0.00000   0.00000   0.00000   0.00000   3.14159
         Item               Value     Threshold  Converged?
 Maximum Force            0.000010     0.000015     YES
 RMS     Force            0.000005     0.000010     YES
 Maximum Displacement     0.000205     0.000060     NO 
 RMS     Displacement     0.000131     0.000040     NO 
 Predicted change in Energy=-3.153744D-09
 GradGradGradGradGradGradGradGradGradGradGradGradGradGradGradGradGradGrad

                          Input orientation:                          
 ---------------------------------------------------------------------
 Center     Atomic      Atomic             Coordinates (Angstroms)
 Number     Number       Type             X           Y           Z
 ---------------------------------------------------------------------
      1          7           0        0.069922    0.000000   -0.157043
      2          6           0       -0.039376    0.000000    0.986124
      3          1           0        0.169912    0.000000   -1.120328
 ---------------------------------------------------------------------
                    Distance matrix (angstroms):
                    1          2          3
     1  N    0.000000
     2  C    1.148380   0.000000
     3  H    0.968461   2.116823   0.000000
 Stoichiometry    CHN
 Framework group  CS[SG(CHN)]
 Deg. of freedom     3
 Full point group                 CS      NOp   2
 Largest Abelian subgroup         CS      NOp   2
 Largest concise Abelian subgroup C1      NOp   1
                         Standard orientation:                         
 ---------------------------------------------------------------------
 Center     Atomic      Atomic             Coordinates (Angstroms)
 Number     Number       Type             X           Y           Z
 ---------------------------------------------------------------------
      1          7           0        0.000561    0.422989    0.000000
      2          6           0        0.000561   -0.725391    0.000000
      3          1           0       -0.007293    1.391418    0.000000
 ---------------------------------------------------------------------
 Rotational constants (GHZ):***************     47.2294489     47.2292385
 Basis read from rwf:  (5D, 7F)
 There are    33 symmetry adapted cartesian basis functions of A'  symmetry.
 There are    11 symmetry adapted cartesian basis functions of A"  symmetry.
 There are    31 symmetry adapted basis functions of A'  symmetry.
 There are    11 symmetry adapted basis functions of A"  symmetry.
    42 basis functions,    74 primitive gaussians,    44 cartesian basis functions
     7 alpha electrons        7 beta electrons
       nuclear repulsion energy        24.6785316338 Hartrees.
 NAtoms=    3 NActive=    3 NUniq=    3 SFac= 1.00D+00 NAtFMM=   60 NAOKFM=F Big=F
 Integral buffers will be    131072 words long.
 Raffenetti 1 integral format.
 Two-electron integral symmetry is turned on.
 One-electron integrals computed using PRISM.
 NBasis=    42 RedAO= T EigKep=  6.97D-03  NBF=    31    11
 NBsUse=    42 1.00D-06 EigRej= -1.00D+00 NBFU=    31    11
 Lowest energy guess from the checkpoint file:  "/home/epktb/dzp-HNC.chk"
 B after Tr=     0.000000    0.000000    0.000000
         Rot=    0.707104    0.707078   -0.006352   -0.001972 Ang=  90.00 deg.
 B after Tr=     0.000000    0.000000    0.000000
         Rot=    1.000000    0.000000    0.000000   -0.000033 Ang=   0.00 deg.
 Initial guess orbital symmetries:
       Occupied  (A') (A') (A") (A') (A') (A') (A')
       Virtual   (A') (A') (A") (A') (A') (A') (A') (A') (A') (A')
                 (A') (A') (A') (A') (A') (A') (A') (A') (A') (A')
                 (A') (A') (A') (A') (A') (A") (A") (A") (A") (A")
                 (A") (A") (A") (A") (A")
 Keep R1 ints in memory in symmetry-blocked form, NReq=1271656.
 Requested convergence on RMS density matrix=1.00D-08 within 128 cycles.
 Requested convergence on MAX density matrix=1.00D-06.
 Requested convergence on             energy=1.00D-06.
 No special actions if energy rises.
 An orbital has undefined symmetry, so N**3 symmetry is turned off.
 SCF Done:  E(RHF) =  -92.8767240617     A.U. after   12 cycles
            NFock= 12  Conv=0.24D-08     -V/T= 2.0006
 Calling FoFJK, ICntrl=      2127 FMM=F ISym2X=1 I1Cent= 0 IOpClX= 0 NMat=1 NMatS=1 NMatT=0.
 ***** Axes restored to original set *****
 -------------------------------------------------------------------
 Center     Atomic                   Forces (Hartrees/Bohr)
 Number     Number              X              Y              Z
 -------------------------------------------------------------------
      1        7           0.000165020    0.000000000    0.000024852
      2        6          -0.002118229    0.000000000    0.020548208
      3        1           0.001953209    0.000000000   -0.020573060
 -------------------------------------------------------------------
 Cartesian Forces:  Max     0.020573060 RMS     0.009740006

 GradGradGradGradGradGradGradGradGradGradGradGradGradGradGradGradGradGrad
 Berny optimization.
 Using GEDIIS/GDIIS optimizer.
 FormGI is forming the generalized inverse of G from B-inverse, IUseBI=4.
 Internal  Forces:  Max     0.000010621 RMS     0.000006077
 Search for a local minimum.
 Step number  20 out of a maximum of   20
 All quantities printed in internal units (Hartrees-Bohrs-Radians)
 Mixed Optimization -- En-DIIS/RFO-DIIS
 Swapping is turned off.
 Update second derivatives using D2CorX and points   16   17   18   19   20
 DE= -2.06D-06 DEPred=-3.15D-09 R= 6.53D+02
 TightC=F SS=  1.41D+00  RLast= 3.20D-04 DXNew= 8.4090D-02 9.5922D-04
 Trust test= 6.53D+02 RLast= 3.20D-04 DXMaxT set to 5.00D-02
 The second derivative matrix:
                          R1        R2        A1        A2
           R1           0.83448
           R2          -0.80859   0.79637
           A1           0.08658  -0.08709   0.01118
           A2           0.00000   0.00000   0.00000   0.00230
 ITU=  1 -1 -1 -1  1
     Eigenvalues ---    0.00184   0.00230   1.63335
 En-DIIS/RFO-DIIS IScMMF=        0 using points:    20   19   18   17   16
 RFO step:  Lambda=-2.09303598D-09.
 DIIS inversion failure, using last point.
 DidBck=F Rises=F     DIIS coefs:    1.00000
 Use linear search instead of GDIIS.
 RFO step:  Lambda= 0.00000000D+00 EMin= 1.84298942D-03
 Quartic linear search produced a step of -0.00026.
 Iteration  1 RMS(Cart)=  0.00009118 RMS(Int)=  0.00000010
 Iteration  2 RMS(Cart)=  0.00000001 RMS(Int)=  0.00000010
 ClnCor:  largest displacement from symmetrization is 8.90D-16 for atom     3.
 Variable       Old X    -DE/DX   Delta X   Delta X   Delta X     New X
                                 (Linear)    (Quad)   (Total)
    R1        2.17012   0.00000   0.00000   0.00001   0.00001   2.17013
    R2        1.83013   0.00000   0.00000  -0.00001  -0.00001   1.83011
    A1        3.14970  -0.00001   0.00000  -0.00022  -0.00023   3.14948
    A2        3.14159   0.00000   0.00000   0.00000   0.00000   3.14159
         Item               Value     Threshold  Converged?
 Maximum Force            0.000011     0.000015     YES
 RMS     Force            0.000006     0.000010     YES
 Maximum Displacement     0.000148     0.000060     NO 
 RMS     Displacement     0.000091     0.000040     NO 
 Predicted change in Energy=-2.253110D-09
 Optimization stopped.
    -- Number of steps exceeded,  NStep=  20
    -- Flag reset to prevent archiving.
                           ----------------------------
                           ! Non-Optimized Parameters !
                           ! (Angstroms and Degrees)  !
 --------------------------                            --------------------------
 ! Name  Definition              Value          Derivative Info.                !
 --------------------------------------------------------------------------------
 ! R1    R(1,2)                  1.1484         -DE/DX =    0.0                 !
 ! R2    R(1,3)                  0.9685         -DE/DX =    0.0                 !
 ! A1    L(2,1,3,-2,-1)        180.4518         -DE/DX =    0.0                 !
 ! A2    L(2,1,3,-1,-2)        180.0            -DE/DX =    0.0                 !
 --------------------------------------------------------------------------------
 GradGradGradGradGradGradGradGradGradGradGradGradGradGradGradGradGradGrad

                          Input orientation:                          
 ---------------------------------------------------------------------
 Center     Atomic      Atomic             Coordinates (Angstroms)
 Number     Number       Type             X           Y           Z
 ---------------------------------------------------------------------
      1          7           0        0.069922    0.000000   -0.157043
      2          6           0       -0.039376    0.000000    0.986124
      3          1           0        0.169912    0.000000   -1.120328
 ---------------------------------------------------------------------
                    Distance matrix (angstroms):
                    1          2          3
     1  N    0.000000
     2  C    1.148380   0.000000
     3  H    0.968461   2.116823   0.000000
 Stoichiometry    CHN
 Framework group  CS[SG(CHN)]
 Deg. of freedom     3
 Full point group                 CS      NOp   2
 Largest Abelian subgroup         CS      NOp   2
 Largest concise Abelian subgroup C1      NOp   1
                         Standard orientation:                         
 ---------------------------------------------------------------------
 Center     Atomic      Atomic             Coordinates (Angstroms)
 Number     Number       Type             X           Y           Z
 ---------------------------------------------------------------------
      1          7           0        0.000561    0.422989    0.000000
      2          6           0        0.000561   -0.725391    0.000000
      3          1           0       -0.007293    1.391418    0.000000
 ---------------------------------------------------------------------
 Rotational constants (GHZ):***************     47.2294489     47.2292385

 **********************************************************************

            Population analysis using the SCF density.

 **********************************************************************

 Orbital symmetries:
       Occupied  (A') (A') (A') (A') (A') (A") (A')
       Virtual   (A') (A') (A") (A') (A') (A") (A') (A') (A") (A')
                 (A') (A") (A') (A') (A") (A') (A') (A') (A') (A')
                 (A") (A') (A") (A') (A') (A") (A') (A") (A') (A')
                 (A") (A') (A') (A') (A')
 The electronic state is 1-A'.
 Alpha  occ. eigenvalues --  -15.61248 -11.30341  -1.28174  -0.89246  -0.53065
 Alpha  occ. eigenvalues --   -0.53064  -0.48821
 Alpha virt. eigenvalues --    0.07258   0.08756   0.08757   0.10483   0.14051
 Alpha virt. eigenvalues --    0.14051   0.16512   0.21948   0.21949   0.35724
 Alpha virt. eigenvalues --    0.41992   0.61209   0.61209   0.85071   0.86315
 Alpha virt. eigenvalues --    0.86317   0.90563   0.99349   1.43420   1.49539
 Alpha virt. eigenvalues --    1.65308   1.65326   1.70372   1.70372   2.19858
 Alpha virt. eigenvalues --    2.19858   2.29674   2.29675   2.68173   3.18837
 Alpha virt. eigenvalues --    3.19618   3.19694   4.34050  23.97248  33.45187
          Condensed to atoms (all electrons):
               1          2          3
     1  N    6.141153   0.897407   0.266000
     2  C    0.897407   5.174940  -0.087170
     3  H    0.266000  -0.087170   0.531434
 Mulliken charges:
               1
     1  N   -0.304559
     2  C    0.014823
     3  H    0.289736
 Sum of Mulliken charges =   0.00000
 Mulliken charges with hydrogens summed into heavy atoms:
               1
     1  N   -0.014823
     2  C    0.014823
 Electronic spatial extent (au):  <R**2>=             48.3911
 Charge=              0.0000 electrons
 Dipole moment (field-independent basis, Debye):
    X=             -0.0170    Y=              2.9256    Z=              0.0000  Tot=              2.9257
 Quadrupole moment (field-independent basis, Debye-Ang):
   XX=            -12.0461   YY=            -10.5157   ZZ=            -12.0462
   XY=             -0.0217   XZ=              0.0000   YZ=              0.0000
 Traceless Quadrupole moment (field-independent basis, Debye-Ang):
   XX=             -0.5101   YY=              1.0204   ZZ=             -0.5102
   XY=             -0.0217   XZ=              0.0000   YZ=              0.0000
 Octapole moment (field-independent basis, Debye-Ang**2):
  XXX=             -0.0176  YYY=             14.3932  ZZZ=              0.0000  XYY=             -0.0391
  XXY=              1.3333  XXZ=              0.0000  XZZ=             -0.0059  YZZ=              1.3332
  YYZ=              0.0000  XYZ=              0.0000
 Hexadecapole moment (field-independent basis, Debye-Ang**3):
 XXXX=            -12.7125 YYYY=            -42.0378 ZZZZ=            -12.7124 XXXY=              0.0117
 XXXZ=              0.0000 YYYX=             -0.0310 YYYZ=              0.0000 ZZZX=              0.0000
 ZZZY=              0.0000 XXYY=             -9.6388 XXZZ=             -4.2375 YYZZ=             -9.6390
 XXYZ=              0.0000 YYXZ=              0.0000 ZZXY=              0.0039
 N-N= 2.467853163376D+01 E-N=-2.666477598040D+02  KE= 9.281642735537D+01
 Symmetry A'   KE= 8.992598772037D+01
 Symmetry A"   KE= 2.890439635003D+00
 B after Tr=    -0.055953    0.000000    0.140201
         Rot=    0.999661    0.000000   -0.026035    0.000000 Ang=  -2.98 deg.
 Final structure in terms of initial Z-matrix:
 N
 C,1,B1
 H,2,B2,1,A1
      Variables:
 B1=1.14837978
 B2=2.1168234
 A1=0.21259033


 IT IS A PROFOUNDLY ERRONEOUS TRUISM ... THAT WE SHOULD CULTIVATE
 THE HABIT OF THINKING OF WHAT WE ARE DOING.
 THE PRECISE OPPOSITE IS THE CASE.
 CIVILIZATION ADVANCES BY EXTENDING THE NUMBER OF IMPORTANT OPERATIONS
 WHICH WE CAN PERFORM WITHOUT THINKING ABOUT THEM.

                                    -- ALFRED NORTH WHITEHEAD
 Error termination request processed by link 9999.
 Error termination via Lnk1e in /cluster/software/gaussian/gaussian-09-D.01/g09/l9999.exe at Tue Sep 27 10:11:05 2016.
 Job cpu time:       0 days  0 hours  1 minutes 21.1 seconds.
 File lengths (MBytes):  RWF=     72 Int=      0 D2E=      0 Chk=      3 Scr=      1
