 Entering Gaussian System, Link 0=g09
 Initial command:
 /cluster/software/gaussian/gaussian-09-D.01/g09/l1.exe "/local/scratch/epktb/Gau-30012.inp" -scrdir="/local/scratch/epktb/"
 Entering Link 1 = /cluster/software/gaussian/gaussian-09-D.01/g09/l1.exe PID=     30013.
  
 Copyright (c) 1988,1990,1992,1993,1995,1998,2003,2009,2013,
            Gaussian, Inc.  All Rights Reserved.
  
 This is part of the Gaussian(R) 09 program.  It is based on
 the Gaussian(R) 03 system (copyright 2003, Gaussian, Inc.),
 the Gaussian(R) 98 system (copyright 1998, Gaussian, Inc.),
 the Gaussian(R) 94 system (copyright 1995, Gaussian, Inc.),
 the Gaussian 92(TM) system (copyright 1992, Gaussian, Inc.),
 the Gaussian 90(TM) system (copyright 1990, Gaussian, Inc.),
 the Gaussian 88(TM) system (copyright 1988, Gaussian, Inc.),
 the Gaussian 86(TM) system (copyright 1986, Carnegie Mellon
 University), and the Gaussian 82(TM) system (copyright 1983,
 Carnegie Mellon University). Gaussian is a federally registered
 trademark of Gaussian, Inc.
  
 This software contains proprietary and confidential information,
 including trade secrets, belonging to Gaussian, Inc.
  
 This software is provided under written license and may be
 used, copied, transmitted, or stored only in accord with that
 written license.
  
 The following legend is applicable only to US Government
 contracts under FAR:
  
                    RESTRICTED RIGHTS LEGEND
  
 Use, reproduction and disclosure by the US Government is
 subject to restrictions as set forth in subparagraphs (a)
 and (c) of the Commercial Computer Software - Restricted
 Rights clause in FAR 52.227-19.
  
 Gaussian, Inc.
 340 Quinnipiac St., Bldg. 40, Wallingford CT 06492
  
  
 ---------------------------------------------------------------
 Warning -- This program may not be used in any manner that
 competes with the business of Gaussian, Inc. or will provide
 assistance to any competitor of Gaussian, Inc.  The licensee
 of this program is prohibited from giving any competitor of
 Gaussian, Inc. access to this program.  By using this program,
 the user acknowledges that Gaussian, Inc. is engaged in the
 business of creating and licensing software in the field of
 computational chemistry and represents and warrants to the
 licensee that it is not a competitor of Gaussian, Inc. and that
 it will not use this program in any manner prohibited above.
 ---------------------------------------------------------------
  

 Cite this work as:
 Gaussian 09, Revision D.01,
 M. J. Frisch, G. W. Trucks, H. B. Schlegel, G. E. Scuseria, 
 M. A. Robb, J. R. Cheeseman, G. Scalmani, V. Barone, B. Mennucci, 
 G. A. Petersson, H. Nakatsuji, M. Caricato, X. Li, H. P. Hratchian, 
 A. F. Izmaylov, J. Bloino, G. Zheng, J. L. Sonnenberg, M. Hada, 
 M. Ehara, K. Toyota, R. Fukuda, J. Hasegawa, M. Ishida, T. Nakajima, 
 Y. Honda, O. Kitao, H. Nakai, T. Vreven, J. A. Montgomery, Jr., 
 J. E. Peralta, F. Ogliaro, M. Bearpark, J. J. Heyd, E. Brothers, 
 K. N. Kudin, V. N. Staroverov, T. Keith, R. Kobayashi, J. Normand, 
 K. Raghavachari, A. Rendell, J. C. Burant, S. S. Iyengar, J. Tomasi, 
 M. Cossi, N. Rega, J. M. Millam, M. Klene, J. E. Knox, J. B. Cross, 
 V. Bakken, C. Adamo, J. Jaramillo, R. Gomperts, R. E. Stratmann, 
 O. Yazyev, A. J. Austin, R. Cammi, C. Pomelli, J. W. Ochterski, 
 R. L. Martin, K. Morokuma, V. G. Zakrzewski, G. A. Voth, 
 P. Salvador, J. J. Dannenberg, S. Dapprich, A. D. Daniels, 
 O. Farkas, J. B. Foresman, J. V. Ortiz, J. Cioslowski, 
 and D. J. Fox, Gaussian, Inc., Wallingford CT, 2013.
 
 ******************************************
 Gaussian 09:  ES64L-G09RevD.01 24-Apr-2013
                27-Sep-2016 
 ******************************************
 %rwf=/home/epktb/scratch/dzp-HNC/
 %int=/home/epktb/scratch/dzp-HNC/
 %d2e=/home/epktb/scratch/dzp-HNC/
 %nosave
 %mem=6GB
 %nprocshared=3
 Will use up to    3 processors via shared memory.
 %chk=/home/epktb/scan-dzp-HNC
 --------------------------------------
 # opt=(modredundant,tight) RHF/Gen gfp
 --------------------------------------
 1/7=10,18=120,19=15,38=1/1,3;
 2/9=110,12=2,17=6,18=5,40=1/2;
 3/5=7,11=1,16=1,24=100,25=1,30=1,71=1,116=1/1,2,3;
 4//1;
 5/5=2,38=5/2;
 6/7=2,8=2,9=2,10=2,28=1/1;
 7//1,2,3,16;
 1/7=10,18=20,19=15/3(2);
 2/9=110/2;
 99//99;
 2/9=110/2;
 3/5=7,6=1,11=1,16=1,25=1,30=1,71=1,82=7,116=1/1,2,3;
 4/5=5,16=3,69=1/1;
 5/5=2,38=5/2;
 7//1,2,3,16;
 1/7=10,18=20,19=15/3(-5);
 2/9=110/2;
 6/7=2,8=2,9=2,10=2,19=2,28=1/1;
 99/9=1/99;
 -------
 HNC-HCN
 -------
 Symbolic Z-matrix:
 Charge =  0 Multiplicity = 1
 N
 C                    1    B1
 H                    2    B2       1    A1
       Variables:
  B1                    1.                       
  B2                    2.3                      
  A1                   10.                       
 
 Add virtual bond connecting atoms H3         and N1         Dist= 2.51D+00.
 The following ModRedundant input section has been read:
 A       1       2       3 S  30 5.3000                                        
 

 GradGradGradGradGradGradGradGradGradGradGradGradGradGradGradGradGradGrad
 Berny optimization.
 Initialization pass.
                           ----------------------------
                           !    Initial Parameters    !
                           ! (Angstroms and Degrees)  !
 --------------------------                            --------------------------
 ! Name  Definition              Value          Derivative Info.                !
 --------------------------------------------------------------------------------
 ! R1    R(1,2)                  1.0            estimate D2E/DX2                !
 ! R2    R(1,3)                  1.3266         estimate D2E/DX2                !
 ! A1    A(2,1,3)              162.4786         estimate D2E/DX2                !
 ! A2    A(1,2,3)                10.0           Scan                            !
 --------------------------------------------------------------------------------
 Trust Radius=3.00D-01 FncErr=1.00D-07 GrdErr=1.00D-07
 Number of optimizations in scan=  31
 Number of steps in this run=     20 maximum allowed number of steps=    100.
 GradGradGradGradGradGradGradGradGradGradGradGradGradGradGradGradGradGrad

                          Input orientation:                          
 ---------------------------------------------------------------------
 Center     Atomic      Atomic             Coordinates (Angstroms)
 Number     Number       Type             X           Y           Z
 ---------------------------------------------------------------------
      1          7           0        0.000000    0.000000    0.000000
      2          6           0        0.000000    0.000000    1.000000
      3          1           0        0.399391    0.000000   -1.265058
 ---------------------------------------------------------------------
                    Distance matrix (angstroms):
                    1          2          3
     1  N    0.000000
     2  C    1.000000   0.000000
     3  H    1.326606   2.300000   0.000000
 Stoichiometry    CHN
 Framework group  CS[SG(CHN)]
 Deg. of freedom     3
 Full point group                 CS      NOp   2
 Largest Abelian subgroup         CS      NOp   2
 Largest concise Abelian subgroup C1      NOp   1
                         Standard orientation:                         
 ---------------------------------------------------------------------
 Center     Atomic      Atomic             Coordinates (Angstroms)
 Number     Number       Type             X           Y           Z
 ---------------------------------------------------------------------
      1          7           0        0.028528    0.338210    0.000000
      2          6           0        0.028528   -0.661790    0.000000
      3          1           0       -0.370863    1.603268    0.000000
 ---------------------------------------------------------------------
 Rotational constants (GHZ):   4751.4500828     53.7478820     53.1466925
 General basis read from cards:  (5D, 7F)
 AO basis set (Overlap normalization):
 Atom N1       Shell     1 S   6     bf    1 -     1          0.053909946308          0.639124568051          0.000000000000
      0.5909440000D+04  0.2004000152D-02
      0.8874510000D+03  0.1531000116D-01
      0.2047490000D+03  0.7429300562D-01
      0.5983760000D+02  0.2533640192D+00
      0.1999810000D+02  0.6005760454D+00
      0.2686000000D+01  0.2451110185D+00
 Atom N1       Shell     2 S   1     bf    2 -     2          0.053909946308          0.639124568051          0.000000000000
      0.7192700000D+01  0.1000000000D+01
 Atom N1       Shell     3 S   1     bf    3 -     3          0.053909946308          0.639124568051          0.000000000000
      0.7000000000D+00  0.1000000000D+01
 Atom N1       Shell     4 S   1     bf    4 -     4          0.053909946308          0.639124568051          0.000000000000
      0.2133000000D+00  0.1000000000D+01
 Atom N1       Shell     5 P   4     bf    5 -     7          0.053909946308          0.639124568051          0.000000000000
      0.2678600000D+02  0.1825699251D-01
      0.5956400000D+01  0.1164069523D+00
      0.1707400000D+01  0.3901108400D+00
      0.5314000000D+00  0.6372207387D+00
 Atom N1       Shell     6 P   1     bf    8 -    10          0.053909946308          0.639124568051          0.000000000000
      0.1654000000D+00  0.1000000000D+01
 Atom N1       Shell     7 P   1     bf   11 -    13          0.053909946308          0.639124568051          0.000000000000
      0.4800000000D-01  0.1000000000D+01
 Atom N1       Shell     8 D   1     bf   14 -    18          0.053909946308          0.639124568051          0.000000000000
      0.8000000000D+00  0.1000000000D+01
 Atom C2       Shell     9 S   6     bf   19 -    19          0.053909946308         -1.250601564835          0.000000000000
      0.4232610000D+04  0.2029000503D-02
      0.6348820000D+03  0.1553500385D-01
      0.1460970000D+03  0.7541101870D-01
      0.4249740000D+02  0.2571210638D+00
      0.1418920000D+02  0.5965551480D+00
      0.1966600000D+01  0.2425170602D+00
 Atom C2       Shell    10 S   1     bf   20 -    20          0.053909946308         -1.250601564835          0.000000000000
      0.5147700000D+01  0.1000000000D+01
 Atom C2       Shell    11 S   1     bf   21 -    21          0.053909946308         -1.250601564835          0.000000000000
      0.4962000000D+00  0.1000000000D+01
 Atom C2       Shell    12 S   1     bf   22 -    22          0.053909946308         -1.250601564835          0.000000000000
      0.1533000000D+00  0.1000000000D+01
 Atom C2       Shell    13 P   4     bf   23 -    25          0.053909946308         -1.250601564835          0.000000000000
      0.1815570000D+02  0.1853400257D-01
      0.3986400000D+01  0.1154420160D+00
      0.1142900000D+01  0.3862060535D+00
      0.3594000000D+00  0.6400890887D+00
 Atom C2       Shell    14 P   1     bf   26 -    28          0.053909946308         -1.250601564835          0.000000000000
      0.1146000000D+00  0.1000000000D+01
 Atom C2       Shell    15 P   1     bf   29 -    31          0.053909946308         -1.250601564835          0.000000000000
      0.3400000000D-01  0.1000000000D+01
 Atom C2       Shell    16 D   1     bf   32 -    36          0.053909946308         -1.250601564835          0.000000000000
      0.7500000000D+00  0.1000000000D+01
 Atom H3       Shell    17 S   3     bf   37 -    37         -0.700829302002          3.029737412657          0.000000000000
      0.1924060000D+02  0.3282807697D-01
      0.2899200000D+01  0.2312085421D+00
      0.6534000000D+00  0.8172399161D+00
 Atom H3       Shell    18 S   1     bf   38 -    38         -0.700829302002          3.029737412657          0.000000000000
      0.1776000000D+00  0.1000000000D+01
 Atom H3       Shell    19 S   1     bf   39 -    39         -0.700829302002          3.029737412657          0.000000000000
      0.4827300000D-01  0.1000000000D+01
 Atom H3       Shell    20 P   1     bf   40 -    42         -0.700829302002          3.029737412657          0.000000000000
      0.1000000000D+01  0.1000000000D+01
 There are    33 symmetry adapted cartesian basis functions of A'  symmetry.
 There are    11 symmetry adapted cartesian basis functions of A"  symmetry.
 There are    31 symmetry adapted basis functions of A'  symmetry.
 There are    11 symmetry adapted basis functions of A"  symmetry.
    42 basis functions,    74 primitive gaussians,    44 cartesian basis functions
     7 alpha electrons        7 beta electrons
       nuclear repulsion energy        26.3981731013 Hartrees.
 NAtoms=    3 NActive=    3 NUniq=    3 SFac= 1.00D+00 NAtFMM=   60 NAOKFM=F Big=F
 Integral buffers will be    131072 words long.
 Raffenetti 1 integral format.
 Two-electron integral symmetry is turned on.
 One-electron integrals computed using PRISM.
 NBasis=    42 RedAO= T EigKep=  8.08D-03  NBF=    31    11
 NBsUse=    42 1.00D-06 EigRej= -1.00D+00 NBFU=    31    11
 ExpMin= 3.40D-02 ExpMax= 5.91D+03 ExpMxC= 8.87D+02 IAcc=3 IRadAn=         5 AccDes= 0.00D+00
 Harris functional with IExCor=  205 and IRadAn=       5 diagonalized for initial guess.
 HarFok:  IExCor=  205 AccDes= 0.00D+00 IRadAn=         5 IDoV= 1 UseB2=F ITyADJ=14
 ICtDFT=  3500011 ScaDFX=  1.000000  1.000000  1.000000  1.000000
 FoFCou: FMM=F IPFlag=           0 FMFlag=      100000 FMFlg1=           0
         NFxFlg=           0 DoJE=T BraDBF=F KetDBF=T FulRan=T
         wScrn=  0.000000 ICntrl=     500 IOpCl=  0 I1Cent=   200000004 NGrid=           0
         NMat0=    1 NMatS0=      1 NMatT0=    0 NMatD0=    1 NMtDS0=    0 NMtDT0=    0
 Petite list used in FoFCou.
 Initial guess orbital symmetries:
       Occupied  (A') (A') (A') (A') (A") (A') (A')
       Virtual   (A') (A") (A') (A') (A") (A') (A') (A') (A") (A')
                 (A') (A") (A') (A') (A") (A') (A') (A') (A') (A')
                 (A") (A') (A") (A') (A") (A') (A') (A") (A') (A')
                 (A") (A') (A') (A') (A')
 The electronic state of the initial guess is 1-A'.
 Keep R1 ints in memory in symmetry-blocked form, NReq=1271684.
 Requested convergence on RMS density matrix=1.00D-08 within 128 cycles.
 Requested convergence on MAX density matrix=1.00D-06.
 Requested convergence on             energy=1.00D-06.
 No special actions if energy rises.
 SCF Done:  E(RHF) =  -92.7249192722     A.U. after   12 cycles
            NFock= 12  Conv=0.14D-08     -V/T= 1.9933

 **********************************************************************

            Population analysis using the SCF density.

 **********************************************************************

 Orbital symmetries:
       Occupied  (A') (A') (A') (A') (A') (A") (A')
       Virtual   (A') (A') (A") (A') (A') (A") (A') (A') (A") (A')
                 (A') (A') (A") (A') (A") (A') (A') (A') (A') (A')
                 (A") (A') (A") (A') (A') (A") (A') (A") (A') (A')
                 (A") (A') (A') (A') (A')
 The electronic state is 1-A'.
 Alpha  occ. eigenvalues --  -15.60830 -11.23778  -1.32817  -0.76041  -0.57240
 Alpha  occ. eigenvalues --   -0.57145  -0.44428
 Alpha virt. eigenvalues --    0.03301   0.09095   0.09157   0.11181   0.13238
 Alpha virt. eigenvalues --    0.14724   0.15963   0.23412   0.27843   0.29207
 Alpha virt. eigenvalues --    0.43491   0.63041   0.63053   0.73935   0.88018
 Alpha virt. eigenvalues --    0.89121   0.95263   1.14373   1.39892   1.58182
 Alpha virt. eigenvalues --    1.67349   1.67775   1.81604   1.85038   2.14190
 Alpha virt. eigenvalues --    2.16207   2.32486   2.34563   2.42658   2.92158
 Alpha virt. eigenvalues --    3.08850   3.25139   3.99293  24.06500  33.32368
          Condensed to atoms (all electrons):
               1          2          3
     1  N    6.123288   0.959210   0.233372
     2  C    0.959210   5.115445  -0.034020
     3  H    0.233372  -0.034020   0.444144
 Mulliken charges:
               1
     1  N   -0.315870
     2  C   -0.040634
     3  H    0.356504
 Sum of Mulliken charges =   0.00000
 Mulliken charges with hydrogens summed into heavy atoms:
               1
     1  N    0.040634
     2  C   -0.040634
 Electronic spatial extent (au):  <R**2>=             46.1887
 Charge=              0.0000 electrons
 Dipole moment (field-independent basis, Debye):
    X=             -0.8616    Y=              4.3706    Z=              0.0000  Tot=              4.4547
 Quadrupole moment (field-independent basis, Debye-Ang):
   XX=            -11.6213   YY=             -9.0190   ZZ=            -11.9594
   XY=             -1.3923   XZ=              0.0000   YZ=              0.0000
 Traceless Quadrupole moment (field-independent basis, Debye-Ang):
   XX=             -0.7547   YY=              1.8476   ZZ=             -1.0928
   XY=             -1.3923   XZ=              0.0000   YZ=              0.0000
 Octapole moment (field-independent basis, Debye-Ang**2):
  XXX=             -0.6324  YYY=             18.4931  ZZZ=              0.0000  XYY=             -2.6248
  XXY=              2.0292  XXZ=              0.0000  XZZ=             -0.1654  YZZ=              1.4774
  YYZ=              0.0000  XYZ=              0.0000
 Hexadecapole moment (field-independent basis, Debye-Ang**3):
 XXXX=            -13.0628 YYYY=            -32.8999 ZZZZ=            -12.5716 XXXY=              0.7509
 XXXZ=              0.0000 YYYX=             -3.0483 YYYZ=              0.0000 ZZZX=              0.0000
 ZZZY=              0.0000 XXYY=             -8.7951 XXZZ=             -4.2814 YYZZ=             -9.6863
 XXYZ=              0.0000 YYXZ=              0.0000 ZZXY=              0.3287
 N-N= 2.639817310127D+01 E-N=-2.705538778722D+02  KE= 9.335328813015D+01
 Symmetry A'   KE= 9.031271709965D+01
 Symmetry A"   KE= 3.040571030496D+00
 Calling FoFJK, ICntrl=      2127 FMM=F ISym2X=1 I1Cent= 0 IOpClX= 0 NMat=1 NMatS=1 NMatT=0.
 ***** Axes restored to original set *****
 -------------------------------------------------------------------
 Center     Atomic                   Forces (Hartrees/Bohr)
 Number     Number              X              Y              Z
 -------------------------------------------------------------------
      1        7           0.059764514    0.000000000   -0.812085848
      2        6          -0.009156153    0.000000000    0.674710754
      3        1          -0.050608361    0.000000000    0.137375094
 -------------------------------------------------------------------
 Cartesian Forces:  Max     0.812085848 RMS     0.355872446

 GradGradGradGradGradGradGradGradGradGradGradGradGradGradGradGradGradGrad
 Berny optimization.
 FormGI is forming the generalized inverse of G from B-inverse, IUseBI=4.
 Internal  Forces:  Max     0.673471011 RMS     0.344833047
 Search for a local minimum.
 Step number   1 out of a maximum of   20 on scan point     1 out of    31
 All quantities printed in internal units (Hartrees-Bohrs-Radians)
 Mixed Optimization -- RFO/linear search
 Second derivative matrix not updated -- first step.
 The second derivative matrix:
                          R1        R2        A1        A2
           R1           3.32740
           R2           0.00000   0.17328
           A1           0.00000   0.00000   0.16000
           A2           0.00000   0.00000   0.00000   0.16000
 ITU=  0
     Eigenvalues ---    0.17325   3.312051000.000001000.00000
 RFO step:  Lambda=-1.87229851D-01 EMin= 1.73245494D-01
 Linear search not attempted -- first point.
 Maximum step size (   0.300) exceeded in Quadratic search.
    -- Step size scaled by   0.673
 Iteration  1 RMS(Cart)=  0.07359042 RMS(Int)=  0.03515196
 Iteration  2 RMS(Cart)=  0.02863324 RMS(Int)=  0.00066337
 Iteration  3 RMS(Cart)=  0.00002066 RMS(Int)=  0.00066283
 Iteration  4 RMS(Cart)=  0.00000000 RMS(Int)=  0.00066283
 Iteration  1 RMS(Cart)=  0.00021480 RMS(Int)=  0.00051778
 Iteration  2 RMS(Cart)=  0.00016781 RMS(Int)=  0.00056029
 Iteration  3 RMS(Cart)=  0.00013109 RMS(Int)=  0.00064303
 Iteration  4 RMS(Cart)=  0.00010240 RMS(Int)=  0.00072813
 Iteration  5 RMS(Cart)=  0.00007999 RMS(Int)=  0.00080316
 Iteration  6 RMS(Cart)=  0.00006249 RMS(Int)=  0.00086562
 Iteration  7 RMS(Cart)=  0.00004881 RMS(Int)=  0.00091628
 Iteration  8 RMS(Cart)=  0.00003813 RMS(Int)=  0.00095680
 Iteration  9 RMS(Cart)=  0.00002978 RMS(Int)=  0.00098896
 Iteration 10 RMS(Cart)=  0.00002326 RMS(Int)=  0.00101436
 Iteration 11 RMS(Cart)=  0.00001817 RMS(Int)=  0.00103436
 Iteration 12 RMS(Cart)=  0.00001419 RMS(Int)=  0.00105007
 Iteration 13 RMS(Cart)=  0.00001109 RMS(Int)=  0.00106240
 Iteration 14 RMS(Cart)=  0.00000866 RMS(Int)=  0.00107205
 Iteration 15 RMS(Cart)=  0.00000676 RMS(Int)=  0.00107962
 Iteration 16 RMS(Cart)=  0.00000528 RMS(Int)=  0.00108554
 Iteration 17 RMS(Cart)=  0.00000413 RMS(Int)=  0.00109017
 Iteration 18 RMS(Cart)=  0.00000322 RMS(Int)=  0.00109379
 Iteration 19 RMS(Cart)=  0.00000252 RMS(Int)=  0.00109662
 Iteration 20 RMS(Cart)=  0.00000197 RMS(Int)=  0.00109883
 Iteration 21 RMS(Cart)=  0.00000154 RMS(Int)=  0.00110056
 Iteration 22 RMS(Cart)=  0.00000120 RMS(Int)=  0.00110191
 Iteration 23 RMS(Cart)=  0.00000094 RMS(Int)=  0.00110296
 ClnCor:  largest displacement from symmetrization is 2.22D-16 for atom     2.
 Variable       Old X    -DE/DX   Delta X   Delta X   Delta X     New X
                                 (Linear)    (Quad)   (Total)
    R1        1.88973   0.67347   0.00000   0.12874   0.12852   2.01825
    R2        2.50692  -0.14530   0.00000  -0.26998  -0.26978   2.23714
    A1        2.83579  -0.00044   0.00000  -0.02321  -0.02602   2.80976
    A2        0.17453  -0.03103   0.00000   0.00000   0.00000   0.17453
         Item               Value     Threshold  Converged?
 Maximum Force            0.669708     0.000015     NO 
 RMS     Force            0.396549     0.000010     NO 
 Maximum Displacement     0.138289     0.000060     NO 
 RMS     Displacement     0.097726     0.000040     NO 
 Predicted change in Energy=-9.192567D-02
 GradGradGradGradGradGradGradGradGradGradGradGradGradGradGradGradGradGrad

                          Input orientation:                          
 ---------------------------------------------------------------------
 Center     Atomic      Atomic             Coordinates (Angstroms)
 Number     Number       Type             X           Y           Z
 ---------------------------------------------------------------------
      1          7           0        0.004667    0.000000   -0.070587
      2          6           0        0.010325    0.000000    0.997408
      3          1           0        0.384399    0.000000   -1.191879
 ---------------------------------------------------------------------
                    Distance matrix (angstroms):
                    1          2          3
     1  N    0.000000
     2  C    1.068010   0.000000
     3  H    1.183846   2.221015   0.000000
 Stoichiometry    CHN
 Framework group  CS[SG(CHN)]
 Deg. of freedom     3
 Full point group                 CS      NOp   2
 Largest Abelian subgroup         CS      NOp   2
 Largest concise Abelian subgroup C1      NOp   1
                         Standard orientation:                         
 ---------------------------------------------------------------------
 Center     Atomic      Atomic             Coordinates (Angstroms)
 Number     Number       Type             X           Y           Z
 ---------------------------------------------------------------------
      1          7           0        0.027548    0.377771    0.000000
      2          6           0        0.027548   -0.690239    0.000000
      3          1           0       -0.358119    1.497035    0.000000
 ---------------------------------------------------------------------
 Rotational constants (GHZ):   4717.7451080     50.8950264     50.3518310
 Basis read from rwf:  (5D, 7F)
 There are    33 symmetry adapted cartesian basis functions of A'  symmetry.
 There are    11 symmetry adapted cartesian basis functions of A"  symmetry.
 There are    31 symmetry adapted basis functions of A'  symmetry.
 There are    11 symmetry adapted basis functions of A"  symmetry.
    42 basis functions,    74 primitive gaussians,    44 cartesian basis functions
     7 alpha electrons        7 beta electrons
       nuclear repulsion energy        25.3686980000 Hartrees.
 NAtoms=    3 NActive=    3 NUniq=    3 SFac= 1.00D+00 NAtFMM=   60 NAOKFM=F Big=F
 Integral buffers will be    131072 words long.
 Raffenetti 1 integral format.
 Two-electron integral symmetry is turned on.
 One-electron integrals computed using PRISM.
 NBasis=    42 RedAO= T EigKep=  8.45D-03  NBF=    31    11
 NBsUse=    42 1.00D-06 EigRej= -1.00D+00 NBFU=    31    11
 Initial guess from the checkpoint file:  "/home/epktb/scan-dzp-HNC.chk"
 B after Tr=     0.000000    0.000000    0.000000
         Rot=    0.999999    0.000000    0.000000   -0.001653 Ang=  -0.19 deg.
 Initial guess orbital symmetries:
       Occupied  (A') (A') (A') (A') (A') (A") (A')
       Virtual   (A') (A') (A') (A') (A') (A') (A') (A') (A') (A')
                 (A') (A') (A') (A') (A') (A') (A') (A') (A') (A')
                 (A') (A') (A') (A') (A') (A") (A") (A") (A") (A")
                 (A") (A") (A") (A") (A")
 ExpMin= 3.40D-02 ExpMax= 5.91D+03 ExpMxC= 8.87D+02 IAcc=3 IRadAn=         5 AccDes= 0.00D+00
 Harris functional with IExCor=  205 and IRadAn=       5 diagonalized for initial guess.
 HarFok:  IExCor=  205 AccDes= 0.00D+00 IRadAn=         5 IDoV= 1 UseB2=F ITyADJ=14
 ICtDFT=  3500011 ScaDFX=  1.000000  1.000000  1.000000  1.000000
 FoFCou: FMM=F IPFlag=           0 FMFlag=      100000 FMFlg1=           0
         NFxFlg=           0 DoJE=T BraDBF=F KetDBF=T FulRan=T
         wScrn=  0.000000 ICntrl=     500 IOpCl=  0 I1Cent=   200000004 NGrid=           0
         NMat0=    1 NMatS0=      1 NMatT0=    0 NMatD0=    1 NMtDS0=    0 NMtDT0=    0
 Petite list used in FoFCou.
 Keep R1 ints in memory in symmetry-blocked form, NReq=1271684.
 Requested convergence on RMS density matrix=1.00D-08 within 128 cycles.
 Requested convergence on MAX density matrix=1.00D-06.
 Requested convergence on             energy=1.00D-06.
 No special actions if energy rises.
 SCF Done:  E(RHF) =  -92.8232919179     A.U. after   13 cycles
            NFock= 13  Conv=0.24D-08     -V/T= 1.9983
 Calling FoFJK, ICntrl=      2127 FMM=F ISym2X=1 I1Cent= 0 IOpClX= 0 NMat=1 NMatS=1 NMatT=0.
 ***** Axes restored to original set *****
 -------------------------------------------------------------------
 Center     Atomic                   Forces (Hartrees/Bohr)
 Number     Number              X              Y              Z
 -------------------------------------------------------------------
      1        7           0.051697795    0.000000000   -0.425239890
      2        6          -0.005969272    0.000000000    0.311642039
      3        1          -0.045728523    0.000000000    0.113597850
 -------------------------------------------------------------------
 Cartesian Forces:  Max     0.425239890 RMS     0.181246789

 GradGradGradGradGradGradGradGradGradGradGradGradGradGradGradGradGradGrad
 Berny optimization.
 Using GEDIIS/GDIIS optimizer.
 FormGI is forming the generalized inverse of G from B-inverse, IUseBI=4.
 Internal  Forces:  Max     0.310780326 RMS     0.167162492
 Search for a local minimum.
 Step number   2 out of a maximum of   20 on scan point     1 out of    31
 All quantities printed in internal units (Hartrees-Bohrs-Radians)
 Mixed Optimization -- RFO/linear search
 Update second derivatives using D2CorX and points    1    2
 DE= -9.84D-02 DEPred=-9.19D-02 R= 1.07D+00
 TightC=F SS=  1.41D+00  RLast= 3.00D-01 DXNew= 5.0454D-01 8.9987D-01
 Trust test= 1.07D+00 RLast= 3.00D-01 DXMaxT set to 5.05D-01
 The second derivative matrix:
                          R1        R2        A1        A2
           R1           3.09950
           R2           0.13313   0.15163
           A1          -0.00994  -0.00050   0.16027
           A2          -0.07553   0.00495   0.00111   0.16231
 ITU=  1  0
 Use linear search instead of GDIIS.
 Linear search step of   0.537 exceeds DXMaxT=   0.505 but not scaled.
 Quartic linear search produced a step of  1.78918.
 Iteration  1 RMS(Cart)=  0.08480307 RMS(Int)=  0.14257712
 Iteration  2 RMS(Cart)=  0.07629872 RMS(Int)=  0.04195350
 Iteration  3 RMS(Cart)=  0.03390553 RMS(Int)=  0.00409105
 Iteration  4 RMS(Cart)=  0.00007985 RMS(Int)=  0.00408971
 Iteration  5 RMS(Cart)=  0.00000008 RMS(Int)=  0.00408971
 Iteration  1 RMS(Cart)=  0.00113988 RMS(Int)=  0.00342750
 Iteration  2 RMS(Cart)=  0.00095447 RMS(Int)=  0.00365392
 Iteration  3 RMS(Cart)=  0.00079907 RMS(Int)=  0.00414240
 Iteration  4 RMS(Cart)=  0.00066886 RMS(Int)=  0.00469827
 Iteration  5 RMS(Cart)=  0.00055980 RMS(Int)=  0.00523405
 Iteration  6 RMS(Cart)=  0.00046847 RMS(Int)=  0.00571791
 Iteration  7 RMS(Cart)=  0.00039201 RMS(Int)=  0.00614173
 Iteration  8 RMS(Cart)=  0.00032800 RMS(Int)=  0.00650697
 Iteration  9 RMS(Cart)=  0.00027442 RMS(Int)=  0.00681879
 Iteration 10 RMS(Cart)=  0.00022958 RMS(Int)=  0.00708343
 Iteration 11 RMS(Cart)=  0.00019206 RMS(Int)=  0.00730717
 Iteration 12 RMS(Cart)=  0.00016067 RMS(Int)=  0.00749584
 Iteration 13 RMS(Cart)=  0.00013440 RMS(Int)=  0.00765462
 Iteration 14 RMS(Cart)=  0.00011242 RMS(Int)=  0.00778808
 Iteration 15 RMS(Cart)=  0.00009404 RMS(Int)=  0.00790013
 Iteration 16 RMS(Cart)=  0.00007866 RMS(Int)=  0.00799414
 Iteration 17 RMS(Cart)=  0.00006579 RMS(Int)=  0.00807296
 Iteration 18 RMS(Cart)=  0.00005503 RMS(Int)=  0.00813902
 Iteration 19 RMS(Cart)=  0.00004603 RMS(Int)=  0.00819436
 Iteration 20 RMS(Cart)=  0.00003850 RMS(Int)=  0.00824071
 Iteration 21 RMS(Cart)=  0.00003220 RMS(Int)=  0.00827952
 Iteration 22 RMS(Cart)=  0.00002693 RMS(Int)=  0.00831201
 Iteration 23 RMS(Cart)=  0.00002253 RMS(Int)=  0.00833920
 Iteration 24 RMS(Cart)=  0.00001884 RMS(Int)=  0.00836196
 Iteration 25 RMS(Cart)=  0.00001576 RMS(Int)=  0.00838100
 Iteration 26 RMS(Cart)=  0.00001318 RMS(Int)=  0.00839693
 Iteration 27 RMS(Cart)=  0.00001102 RMS(Int)=  0.00841027
 Iteration 28 RMS(Cart)=  0.00000922 RMS(Int)=  0.00842142
 Iteration 29 RMS(Cart)=  0.00000771 RMS(Int)=  0.00843075
 Iteration 30 RMS(Cart)=  0.00000645 RMS(Int)=  0.00843855
 Iteration 31 RMS(Cart)=  0.00000539 RMS(Int)=  0.00844508
 Iteration 32 RMS(Cart)=  0.00000451 RMS(Int)=  0.00845055
 Iteration 33 RMS(Cart)=  0.00000377 RMS(Int)=  0.00845511
 Iteration 34 RMS(Cart)=  0.00000316 RMS(Int)=  0.00845894
 Iteration 35 RMS(Cart)=  0.00000264 RMS(Int)=  0.00846213
 Iteration 36 RMS(Cart)=  0.00000221 RMS(Int)=  0.00846481
 Iteration 37 RMS(Cart)=  0.00000185 RMS(Int)=  0.00846704
 Iteration 38 RMS(Cart)=  0.00000154 RMS(Int)=  0.00846891
 Iteration 39 RMS(Cart)=  0.00000129 RMS(Int)=  0.00847048
 Iteration 40 RMS(Cart)=  0.00000108 RMS(Int)=  0.00847179
 Iteration 41 RMS(Cart)=  0.00000090 RMS(Int)=  0.00847288
 ClnCor:  largest displacement from symmetrization is 9.16D-16 for atom     3.
 Variable       Old X    -DE/DX   Delta X   Delta X   Delta X     New X
                                 (Linear)    (Quad)   (Total)
    R1        2.01825   0.31078   0.22994   0.00000   0.22798   2.24622
    R2        2.23714  -0.12152  -0.48268   0.00000  -0.48015   1.75699
    A1        2.80976   0.00487  -0.04656   0.00000  -0.06656   2.74321
    A2        0.17453  -0.01996  -0.00001   0.00000   0.00000   0.17453
         Item               Value     Threshold  Converged?
 Maximum Force            0.307834     0.000015     NO 
 RMS     Force            0.191445     0.000010     NO 
 Maximum Displacement     0.250028     0.000060     NO 
 RMS     Displacement     0.175852     0.000040     NO 
 Predicted change in Energy=-4.493097D-02
 GradGradGradGradGradGradGradGradGradGradGradGradGradGradGradGradGradGrad

                          Input orientation:                          
 ---------------------------------------------------------------------
 Center     Atomic      Atomic             Coordinates (Angstroms)
 Number     Number       Type             X           Y           Z
 ---------------------------------------------------------------------
      1          7           0        0.011160    0.000000   -0.196994
      2          6           0        0.030055    0.000000    0.991506
      3          1           0        0.358176    0.000000   -1.059569
 ---------------------------------------------------------------------
                    Distance matrix (angstroms):
                    1          2          3
     1  N    0.000000
     2  C    1.188650   0.000000
     3  H    0.929761   2.077155   0.000000
 Stoichiometry    CHN
 Framework group  CS[SG(CHN)]
 Deg. of freedom     3
 Full point group                 CS      NOp   2
 Largest Abelian subgroup         CS      NOp   2
 Largest concise Abelian subgroup C1      NOp   1
                         Standard orientation:                         
 ---------------------------------------------------------------------
 Center     Atomic      Atomic             Coordinates (Angstroms)
 Number     Number       Type             X           Y           Z
 ---------------------------------------------------------------------
      1          7           0        0.025763    0.448211    0.000000
      2          6           0        0.025763   -0.740439    0.000000
      3          1           0       -0.334921    1.305161    0.000000
 ---------------------------------------------------------------------
 Rotational constants (GHZ):   4854.1717564     45.6569386     45.2315041
 Basis read from rwf:  (5D, 7F)
 There are    33 symmetry adapted cartesian basis functions of A'  symmetry.
 There are    11 symmetry adapted cartesian basis functions of A"  symmetry.
 There are    31 symmetry adapted basis functions of A'  symmetry.
 There are    11 symmetry adapted basis functions of A"  symmetry.
    42 basis functions,    74 primitive gaussians,    44 cartesian basis functions
     7 alpha electrons        7 beta electrons
       nuclear repulsion energy        24.2106957509 Hartrees.
 NAtoms=    3 NActive=    3 NUniq=    3 SFac= 1.00D+00 NAtFMM=   60 NAOKFM=F Big=F
 Integral buffers will be    131072 words long.
 Raffenetti 1 integral format.
 Two-electron integral symmetry is turned on.
 One-electron integrals computed using PRISM.
 NBasis=    42 RedAO= T EigKep=  9.29D-03  NBF=    31    11
 NBsUse=    42 1.00D-06 EigRej= -1.00D+00 NBFU=    31    11
 Initial guess from the checkpoint file:  "/home/epktb/scan-dzp-HNC.chk"
 B after Tr=     0.000000    0.000000    0.000000
         Rot=    0.999996    0.000000    0.000000   -0.002889 Ang=  -0.33 deg.
 Initial guess orbital symmetries:
       Occupied  (A') (A') (A') (A') (A') (A") (A')
       Virtual   (A') (A') (A') (A') (A') (A') (A') (A') (A') (A')
                 (A') (A') (A') (A') (A') (A') (A') (A') (A') (A')
                 (A') (A') (A') (A') (A') (A") (A") (A") (A") (A")
                 (A") (A") (A") (A") (A")
 ExpMin= 3.40D-02 ExpMax= 5.91D+03 ExpMxC= 8.87D+02 IAcc=3 IRadAn=         5 AccDes= 0.00D+00
 Harris functional with IExCor=  205 and IRadAn=       5 diagonalized for initial guess.
 HarFok:  IExCor=  205 AccDes= 0.00D+00 IRadAn=         5 IDoV= 1 UseB2=F ITyADJ=14
 ICtDFT=  3500011 ScaDFX=  1.000000  1.000000  1.000000  1.000000
 FoFCou: FMM=F IPFlag=           0 FMFlag=      100000 FMFlg1=           0
         NFxFlg=           0 DoJE=T BraDBF=F KetDBF=T FulRan=T
         wScrn=  0.000000 ICntrl=     500 IOpCl=  0 I1Cent=   200000004 NGrid=           0
         NMat0=    1 NMatS0=      1 NMatT0=    0 NMatD0=    1 NMtDS0=    0 NMtDT0=    0
 Petite list used in FoFCou.
 Keep R1 ints in memory in symmetry-blocked form, NReq=1271642.
 Requested convergence on RMS density matrix=1.00D-08 within 128 cycles.
 Requested convergence on MAX density matrix=1.00D-06.
 Requested convergence on             energy=1.00D-06.
 No special actions if energy rises.
 SCF Done:  E(RHF) =  -92.8686155360     A.U. after   13 cycles
            NFock= 13  Conv=0.61D-08     -V/T= 2.0015
 Calling FoFJK, ICntrl=      2127 FMM=F ISym2X=1 I1Cent= 0 IOpClX= 0 NMat=1 NMatS=1 NMatT=0.
 ***** Axes restored to original set *****
 -------------------------------------------------------------------
 Center     Atomic                   Forces (Hartrees/Bohr)
 Number     Number              X              Y              Z
 -------------------------------------------------------------------
      1        7          -0.016880090    0.000000000    0.139805309
      2        6          -0.006200285    0.000000000   -0.064723395
      3        1           0.023080375    0.000000000   -0.075081913
 -------------------------------------------------------------------
 Cartesian Forces:  Max     0.139805309 RMS     0.057954024

 GradGradGradGradGradGradGradGradGradGradGradGradGradGradGradGradGradGrad
 Berny optimization.
 Using GEDIIS/GDIIS optimizer.
 FormGI is forming the generalized inverse of G from B-inverse, IUseBI=4.
 Internal  Forces:  Max     0.078165452 RMS     0.051131888
 Search for a local minimum.
 Step number   3 out of a maximum of   20 on scan point     1 out of    31
 All quantities printed in internal units (Hartrees-Bohrs-Radians)
 Mixed Optimization -- RFO/linear search
 Update second derivatives using D2CorX and points    2    3
 The second derivative matrix:
                          R1        R2        A1        A2
           R1           1.40890
           R2          -0.11632   0.36001
           A1           0.02312   0.00458   0.15963
           A2          -0.04517   0.02392   0.00053   0.16262
 ITU=  0  1  0
 Use linear search instead of GDIIS.
     Eigenvalues ---    0.34632   1.400431000.000001000.00000
 RFO step:  Lambda=-1.79782765D-03 EMin= 3.46324337D-01
 Quartic linear search produced a step of -0.24545.
 Iteration  1 RMS(Cart)=  0.06655010 RMS(Int)=  0.00091480
 Iteration  2 RMS(Cart)=  0.00059799 RMS(Int)=  0.00048586
 Iteration  3 RMS(Cart)=  0.00000035 RMS(Int)=  0.00048586
 Iteration  1 RMS(Cart)=  0.00014535 RMS(Int)=  0.00039634
 Iteration  2 RMS(Cart)=  0.00011920 RMS(Int)=  0.00042457
 Iteration  3 RMS(Cart)=  0.00009776 RMS(Int)=  0.00048358
 Iteration  4 RMS(Cart)=  0.00008017 RMS(Int)=  0.00054870
 Iteration  5 RMS(Cart)=  0.00006575 RMS(Int)=  0.00060979
 Iteration  6 RMS(Cart)=  0.00005392 RMS(Int)=  0.00066364
 Iteration  7 RMS(Cart)=  0.00004422 RMS(Int)=  0.00070975
 Iteration  8 RMS(Cart)=  0.00003627 RMS(Int)=  0.00074862
 Iteration  9 RMS(Cart)=  0.00002975 RMS(Int)=  0.00078112
 Iteration 10 RMS(Cart)=  0.00002440 RMS(Int)=  0.00080812
 Iteration 11 RMS(Cart)=  0.00002001 RMS(Int)=  0.00083049
 Iteration 12 RMS(Cart)=  0.00001641 RMS(Int)=  0.00084897
 Iteration 13 RMS(Cart)=  0.00001346 RMS(Int)=  0.00086421
 Iteration 14 RMS(Cart)=  0.00001104 RMS(Int)=  0.00087676
 Iteration 15 RMS(Cart)=  0.00000905 RMS(Int)=  0.00088709
 Iteration 16 RMS(Cart)=  0.00000743 RMS(Int)=  0.00089559
 Iteration 17 RMS(Cart)=  0.00000609 RMS(Int)=  0.00090257
 Iteration 18 RMS(Cart)=  0.00000500 RMS(Int)=  0.00090831
 Iteration 19 RMS(Cart)=  0.00000410 RMS(Int)=  0.00091302
 Iteration 20 RMS(Cart)=  0.00000336 RMS(Int)=  0.00091689
 Iteration 21 RMS(Cart)=  0.00000276 RMS(Int)=  0.00092006
 Iteration 22 RMS(Cart)=  0.00000226 RMS(Int)=  0.00092267
 Iteration 23 RMS(Cart)=  0.00000185 RMS(Int)=  0.00092481
 Iteration 24 RMS(Cart)=  0.00000152 RMS(Int)=  0.00092656
 Iteration 25 RMS(Cart)=  0.00000125 RMS(Int)=  0.00092800
 Iteration 26 RMS(Cart)=  0.00000102 RMS(Int)=  0.00092919
 Iteration 27 RMS(Cart)=  0.00000084 RMS(Int)=  0.00093015
 ClnCor:  largest displacement from symmetrization is 5.55D-17 for atom     1.
 Variable       Old X    -DE/DX   Delta X   Delta X   Delta X     New X
                                 (Linear)    (Quad)   (Total)
    R1        2.24622  -0.06473  -0.05596   0.02799  -0.02776   2.21846
    R2        1.75699   0.07817   0.11785   0.05336   0.17097   1.92797
    A1        2.74321   0.01243   0.01634   0.00409   0.02268   2.76588
    A2        0.17453   0.00186   0.00000   0.00000   0.00001   0.17454
         Item               Value     Threshold  Converged?
 Maximum Force            0.077628     0.000015     NO 
 RMS     Force            0.058982     0.000010     NO 
 Maximum Displacement     0.105653     0.000060     NO 
 RMS     Displacement     0.066821     0.000040     NO 
 Predicted change in Energy=-9.041783D-03
 GradGradGradGradGradGradGradGradGradGradGradGradGradGradGradGradGradGrad

                          Input orientation:                          
 ---------------------------------------------------------------------
 Center     Atomic      Atomic             Coordinates (Angstroms)
 Number     Number       Type             X           Y           Z
 ---------------------------------------------------------------------
      1          7           0        0.007401    0.000000   -0.161722
      2          6           0        0.022334    0.000000    1.012143
      3          1           0        0.369655    0.000000   -1.115479
 ---------------------------------------------------------------------
                    Distance matrix (angstroms):
                    1          2          3
     1  N    0.000000
     2  C    1.173959   0.000000
     3  H    1.020235   2.155784   0.000000
 Stoichiometry    CHN
 Framework group  CS[SG(CHN)]
 Deg. of freedom     3
 Full point group                 CS      NOp   2
 Largest Abelian subgroup         CS      NOp   2
 Largest concise Abelian subgroup C1      NOp   1
                         Standard orientation:                         
 ---------------------------------------------------------------------
 Center     Atomic      Atomic             Coordinates (Angstroms)
 Number     Number       Type             X           Y           Z
 ---------------------------------------------------------------------
      1          7           0        0.026740    0.435335    0.000000
      2          6           0        0.026740   -0.738625    0.000000
      3          1           0       -0.347617    1.384406    0.000000
 ---------------------------------------------------------------------
 Rotational constants (GHZ):   4627.9738553     45.5738136     45.1294033
 Basis read from rwf:  (5D, 7F)
 There are    33 symmetry adapted cartesian basis functions of A'  symmetry.
 There are    11 symmetry adapted cartesian basis functions of A"  symmetry.
 There are    31 symmetry adapted basis functions of A'  symmetry.
 There are    11 symmetry adapted basis functions of A"  symmetry.
    42 basis functions,    74 primitive gaussians,    44 cartesian basis functions
     7 alpha electrons        7 beta electrons
       nuclear repulsion energy        24.0356201272 Hartrees.
 NAtoms=    3 NActive=    3 NUniq=    3 SFac= 1.00D+00 NAtFMM=   60 NAOKFM=F Big=F
 Integral buffers will be    131072 words long.
 Raffenetti 1 integral format.
 Two-electron integral symmetry is turned on.
 One-electron integrals computed using PRISM.
 NBasis=    42 RedAO= T EigKep=  9.59D-03  NBF=    31    11
 NBsUse=    42 1.00D-06 EigRej= -1.00D+00 NBFU=    31    11
 Initial guess from the checkpoint file:  "/home/epktb/scan-dzp-HNC.chk"
 B after Tr=     0.000000    0.000000    0.000000
         Rot=    1.000000    0.000000    0.000000    0.000816 Ang=   0.09 deg.
 Initial guess orbital symmetries:
       Occupied  (A') (A') (A') (A') (A') (A") (A')
       Virtual   (A') (A') (A') (A') (A') (A') (A') (A') (A') (A')
                 (A') (A') (A') (A') (A') (A') (A') (A') (A') (A')
                 (A') (A') (A') (A') (A') (A") (A") (A") (A") (A")
                 (A") (A") (A") (A") (A")
 ExpMin= 3.40D-02 ExpMax= 5.91D+03 ExpMxC= 8.87D+02 IAcc=3 IRadAn=         5 AccDes= 0.00D+00
 Harris functional with IExCor=  205 and IRadAn=       5 diagonalized for initial guess.
 HarFok:  IExCor=  205 AccDes= 0.00D+00 IRadAn=         5 IDoV= 1 UseB2=F ITyADJ=14
 ICtDFT=  3500011 ScaDFX=  1.000000  1.000000  1.000000  1.000000
 FoFCou: FMM=F IPFlag=           0 FMFlag=      100000 FMFlg1=           0
         NFxFlg=           0 DoJE=T BraDBF=F KetDBF=T FulRan=T
         wScrn=  0.000000 ICntrl=     500 IOpCl=  0 I1Cent=   200000004 NGrid=           0
         NMat0=    1 NMatS0=      1 NMatT0=    0 NMatD0=    1 NMtDS0=    0 NMtDT0=    0
 Petite list used in FoFCou.
 Keep R1 ints in memory in symmetry-blocked form, NReq=1271628.
 Requested convergence on RMS density matrix=1.00D-08 within 128 cycles.
 Requested convergence on MAX density matrix=1.00D-06.
 Requested convergence on             energy=1.00D-06.
 No special actions if energy rises.
 SCF Done:  E(RHF) =  -92.8734020251     A.U. after   12 cycles
            NFock= 12  Conv=0.20D-08     -V/T= 2.0027
 Calling FoFJK, ICntrl=      2127 FMM=F ISym2X=1 I1Cent= 0 IOpClX= 0 NMat=1 NMatS=1 NMatT=0.
 ***** Axes restored to original set *****
 -------------------------------------------------------------------
 Center     Atomic                   Forces (Hartrees/Bohr)
 Number     Number              X              Y              Z
 -------------------------------------------------------------------
      1        7           0.021088078    0.000000000    0.004404329
      2        6          -0.005098224    0.000000000   -0.031271594
      3        1          -0.015989855    0.000000000    0.026867265
 -------------------------------------------------------------------
 Cartesian Forces:  Max     0.031271594 RMS     0.016484117

 GradGradGradGradGradGradGradGradGradGradGradGradGradGradGradGradGradGrad
 Berny optimization.
 Using GEDIIS/GDIIS optimizer.
 FormGI is forming the generalized inverse of G from B-inverse, IUseBI=4.
 Internal  Forces:  Max     0.031509061 RMS     0.022462329
 Search for a local minimum.
 Step number   4 out of a maximum of   20 on scan point     1 out of    31
 All quantities printed in internal units (Hartrees-Bohrs-Radians)
 Mixed Optimization -- RFO/linear search
 Update second derivatives using D2CorX and points    2    3    4
 DE= -4.79D-03 DEPred=-9.04D-03 R= 5.29D-01
 TightC=F SS=  1.41D+00  RLast= 1.75D-01 DXNew= 8.4853D-01 5.2407D-01
 Trust test= 5.29D-01 RLast= 1.75D-01 DXMaxT set to 5.24D-01
 The second derivative matrix:
                          R1        R2        A1        A2
           R1           1.44922
           R2           0.03650   0.64108
           A1           0.03391   0.00724   0.15909
           A2          -0.03798   0.02873   0.00007   0.16237
 ITU=  1  0  1  0
 Use linear search instead of GDIIS.
     Eigenvalues ---    0.63488   1.435531000.000001000.00000
 RFO step:  Lambda=-1.16170968D-03 EMin= 6.34880114D-01
 Quartic linear search produced a step of -0.26175.
 Iteration  1 RMS(Cart)=  0.02698747 RMS(Int)=  0.00010177
 Iteration  2 RMS(Cart)=  0.00003552 RMS(Int)=  0.00009032
 Iteration  3 RMS(Cart)=  0.00000000 RMS(Int)=  0.00009032
 Iteration  1 RMS(Cart)=  0.00002680 RMS(Int)=  0.00007514
 Iteration  2 RMS(Cart)=  0.00002206 RMS(Int)=  0.00008043
 Iteration  3 RMS(Cart)=  0.00001815 RMS(Int)=  0.00009154
 Iteration  4 RMS(Cart)=  0.00001494 RMS(Int)=  0.00010386
 Iteration  5 RMS(Cart)=  0.00001230 RMS(Int)=  0.00011548
 Iteration  6 RMS(Cart)=  0.00001012 RMS(Int)=  0.00012576
 Iteration  7 RMS(Cart)=  0.00000833 RMS(Int)=  0.00013460
 Iteration  8 RMS(Cart)=  0.00000686 RMS(Int)=  0.00014209
 Iteration  9 RMS(Cart)=  0.00000564 RMS(Int)=  0.00014836
 Iteration 10 RMS(Cart)=  0.00000464 RMS(Int)=  0.00015360
 Iteration 11 RMS(Cart)=  0.00000382 RMS(Int)=  0.00015795
 Iteration 12 RMS(Cart)=  0.00000315 RMS(Int)=  0.00016156
 Iteration 13 RMS(Cart)=  0.00000259 RMS(Int)=  0.00016455
 Iteration 14 RMS(Cart)=  0.00000213 RMS(Int)=  0.00016702
 Iteration 15 RMS(Cart)=  0.00000175 RMS(Int)=  0.00016906
 Iteration 16 RMS(Cart)=  0.00000144 RMS(Int)=  0.00017074
 Iteration 17 RMS(Cart)=  0.00000119 RMS(Int)=  0.00017213
 Iteration 18 RMS(Cart)=  0.00000098 RMS(Int)=  0.00017328
 ClnCor:  largest displacement from symmetrization is 8.88D-16 for atom     3.
 Variable       Old X    -DE/DX   Delta X   Delta X   Delta X     New X
                                 (Linear)    (Quad)   (Total)
    R1        2.21846  -0.03151   0.00727  -0.02755  -0.02025   2.19821
    R2        1.92797  -0.03059  -0.04475  -0.00849  -0.05328   1.87468
    A1        2.76588   0.00852  -0.00594   0.00163  -0.00389   2.76200
    A2        0.17454  -0.00411   0.00000   0.00000   0.00000   0.17454
         Item               Value     Threshold  Converged?
 Maximum Force            0.032308     0.000015     NO 
 RMS     Force            0.025327     0.000010     NO 
 Maximum Displacement     0.041440     0.000060     NO 
 RMS     Displacement     0.026950     0.000040     NO 
 Predicted change in Energy=-9.830760D-04
 GradGradGradGradGradGradGradGradGradGradGradGradGradGradGradGradGradGrad

                          Input orientation:                          
 ---------------------------------------------------------------------
 Center     Atomic      Atomic             Coordinates (Angstroms)
 Number     Number       Type             X           Y           Z
 ---------------------------------------------------------------------
      1          7           0        0.009539    0.000000   -0.167325
      2          6           0        0.024996    0.000000    0.995816
      3          1           0        0.364856    0.000000   -1.093549
 ---------------------------------------------------------------------
                    Distance matrix (angstroms):
                    1          2          3
     1  N    0.000000
     2  C    1.163244   0.000000
     3  H    0.992039   2.116826   0.000000
 Stoichiometry    CHN
 Framework group  CS[SG(CHN)]
 Deg. of freedom     3
 Full point group                 CS      NOp   2
 Largest Abelian subgroup         CS      NOp   2
 Largest concise Abelian subgroup C1      NOp   1
                         Standard orientation:                         
 ---------------------------------------------------------------------
 Center     Atomic      Atomic             Coordinates (Angstroms)
 Number     Number       Type             X           Y           Z
 ---------------------------------------------------------------------
      1          7           0        0.026257    0.432717    0.000000
      2          6           0        0.026257   -0.730527    0.000000
      3          1           0       -0.341337    1.354139    0.000000
 ---------------------------------------------------------------------
 Rotational constants (GHZ):   4775.5545475     46.6533284     46.2019723
 Basis read from rwf:  (5D, 7F)
 There are    33 symmetry adapted cartesian basis functions of A'  symmetry.
 There are    11 symmetry adapted cartesian basis functions of A"  symmetry.
 There are    31 symmetry adapted basis functions of A'  symmetry.
 There are    11 symmetry adapted basis functions of A"  symmetry.
    42 basis functions,    74 primitive gaussians,    44 cartesian basis functions
     7 alpha electrons        7 beta electrons
       nuclear repulsion energy        24.3403125058 Hartrees.
 NAtoms=    3 NActive=    3 NUniq=    3 SFac= 1.00D+00 NAtFMM=   60 NAOKFM=F Big=F
 Integral buffers will be    131072 words long.
 Raffenetti 1 integral format.
 Two-electron integral symmetry is turned on.
 One-electron integrals computed using PRISM.
 NBasis=    42 RedAO= T EigKep=  9.19D-03  NBF=    31    11
 NBsUse=    42 1.00D-06 EigRej= -1.00D+00 NBFU=    31    11
 Initial guess from the checkpoint file:  "/home/epktb/scan-dzp-HNC.chk"
 B after Tr=     0.000000    0.000000    0.000000
         Rot=    1.000000    0.000000    0.000000   -0.000150 Ang=  -0.02 deg.
 Initial guess orbital symmetries:
       Occupied  (A') (A') (A') (A') (A') (A") (A')
       Virtual   (A') (A') (A') (A') (A') (A') (A') (A') (A') (A')
                 (A') (A') (A') (A') (A') (A') (A') (A') (A') (A')
                 (A') (A') (A') (A') (A') (A") (A") (A") (A") (A")
                 (A") (A") (A") (A") (A")
 ExpMin= 3.40D-02 ExpMax= 5.91D+03 ExpMxC= 8.87D+02 IAcc=3 IRadAn=         5 AccDes= 0.00D+00
 Harris functional with IExCor=  205 and IRadAn=       5 diagonalized for initial guess.
 HarFok:  IExCor=  205 AccDes= 0.00D+00 IRadAn=         5 IDoV= 1 UseB2=F ITyADJ=14
 ICtDFT=  3500011 ScaDFX=  1.000000  1.000000  1.000000  1.000000
 FoFCou: FMM=F IPFlag=           0 FMFlag=      100000 FMFlg1=           0
         NFxFlg=           0 DoJE=T BraDBF=F KetDBF=T FulRan=T
         wScrn=  0.000000 ICntrl=     500 IOpCl=  0 I1Cent=   200000004 NGrid=           0
         NMat0=    1 NMatS0=      1 NMatT0=    0 NMatD0=    1 NMtDS0=    0 NMtDT0=    0
 Petite list used in FoFCou.
 Keep R1 ints in memory in symmetry-blocked form, NReq=1271642.
 Requested convergence on RMS density matrix=1.00D-08 within 128 cycles.
 Requested convergence on MAX density matrix=1.00D-06.
 Requested convergence on             energy=1.00D-06.
 No special actions if energy rises.
 SCF Done:  E(RHF) =  -92.8746801725     A.U. after   10 cycles
            NFock= 10  Conv=0.96D-08     -V/T= 2.0017
 Calling FoFJK, ICntrl=      2127 FMM=F ISym2X=1 I1Cent= 0 IOpClX= 0 NMat=1 NMatS=1 NMatT=0.
 ***** Axes restored to original set *****
 -------------------------------------------------------------------
 Center     Atomic                   Forces (Hartrees/Bohr)
 Number     Number              X              Y              Z
 -------------------------------------------------------------------
      1        7           0.012960118    0.000000000    0.005419149
      2        6          -0.005626346    0.000000000   -0.006396688
      3        1          -0.007333772    0.000000000    0.000977539
 -------------------------------------------------------------------
 Cartesian Forces:  Max     0.012960118 RMS     0.006005970

 GradGradGradGradGradGradGradGradGradGradGradGradGradGradGradGradGradGrad
 Berny optimization.
 Using GEDIIS/GDIIS optimizer.
 FormGI is forming the generalized inverse of G from B-inverse, IUseBI=4.
 Internal  Forces:  Max     0.010107617 RMS     0.006670185
 Search for a local minimum.
 Step number   5 out of a maximum of   20 on scan point     1 out of    31
 All quantities printed in internal units (Hartrees-Bohrs-Radians)
 Mixed Optimization -- RFO/linear search
 Update second derivatives using D2CorX and points    2    3    4    5
 DE= -1.28D-03 DEPred=-9.83D-04 R= 1.30D+00
 TightC=F SS=  1.41D+00  RLast= 5.71D-02 DXNew= 8.8137D-01 1.7140D-01
 Trust test= 1.30D+00 RLast= 5.71D-02 DXMaxT set to 5.24D-01
 The second derivative matrix:
                          R1        R2        A1        A2
           R1           1.35530
           R2          -0.05138   0.53122
           A1           0.03512   0.00483   0.15896
           A2          -0.06003   0.01523  -0.00089   0.16298
 ITU=  1  1  0  1  0
 Use linear search instead of GDIIS.
     Eigenvalues ---    0.52541   1.339621000.000001000.00000
 RFO step:  Lambda=-1.81912029D-05 EMin= 5.25407690D-01
 Quartic linear search produced a step of  0.12760.
 Iteration  1 RMS(Cart)=  0.00339596 RMS(Int)=  0.00000296
 Iteration  2 RMS(Cart)=  0.00000009 RMS(Int)=  0.00000296
 Iteration  1 RMS(Cart)=  0.00000005 RMS(Int)=  0.00000013
 ClnCor:  largest displacement from symmetrization is 1.83D-15 for atom     3.
 Variable       Old X    -DE/DX   Delta X   Delta X   Delta X     New X
                                 (Linear)    (Quad)   (Total)
    R1        2.19821  -0.00667  -0.00258  -0.00312  -0.00570   2.19251
    R2        1.87468  -0.00331  -0.00680   0.00281  -0.00399   1.87069
    A1        2.76200   0.01011  -0.00050   0.00061   0.00011   2.76211
    A2        0.17454  -0.00452   0.00000   0.00000  -0.00001   0.17453
         Item               Value     Threshold  Converged?
 Maximum Force            0.007579     0.000015     NO 
 RMS     Force            0.004571     0.000010     NO 
 Maximum Displacement     0.005023     0.000060     NO 
 RMS     Displacement     0.003396     0.000040     NO 
 Predicted change in Energy=-2.727221D-05
 GradGradGradGradGradGradGradGradGradGradGradGradGradGradGradGradGradGrad

                          Input orientation:                          
 ---------------------------------------------------------------------
 Center     Atomic      Atomic             Coordinates (Angstroms)
 Number     Number       Type             X           Y           Z
 ---------------------------------------------------------------------
      1          7           0        0.009839    0.000000   -0.166967
      2          6           0        0.025234    0.000000    0.993159
      3          1           0        0.364318    0.000000   -1.091250
 ---------------------------------------------------------------------
                    Distance matrix (angstroms):
                    1          2          3
     1  N    0.000000
     2  C    1.160227   0.000000
     3  H    0.989926   2.111809   0.000000
 Stoichiometry    CHN
 Framework group  CS[SG(CHN)]
 Deg. of freedom     3
 Full point group                 CS      NOp   2
 Largest Abelian subgroup         CS      NOp   2
 Largest concise Abelian subgroup C1      NOp   1
                         Standard orientation:                         
 ---------------------------------------------------------------------
 Center     Atomic      Atomic             Coordinates (Angstroms)
 Number     Number       Type             X           Y           Z
 ---------------------------------------------------------------------
      1          7           0        0.026194    0.431562    0.000000
      2          6           0        0.026194   -0.728665    0.000000
      3          1           0       -0.340518    1.351060    0.000000
 ---------------------------------------------------------------------
 Rotational constants (GHZ):   4799.1562931     46.8904286     46.4367161
 Basis read from rwf:  (5D, 7F)
 There are    33 symmetry adapted cartesian basis functions of A'  symmetry.
 There are    11 symmetry adapted cartesian basis functions of A"  symmetry.
 There are    31 symmetry adapted basis functions of A'  symmetry.
 There are    11 symmetry adapted basis functions of A"  symmetry.
    42 basis functions,    74 primitive gaussians,    44 cartesian basis functions
     7 alpha electrons        7 beta electrons
       nuclear repulsion energy        24.4015270943 Hartrees.
 NAtoms=    3 NActive=    3 NUniq=    3 SFac= 1.00D+00 NAtFMM=   60 NAOKFM=F Big=F
 Integral buffers will be    131072 words long.
 Raffenetti 1 integral format.
 Two-electron integral symmetry is turned on.
 One-electron integrals computed using PRISM.
 NBasis=    42 RedAO= T EigKep=  9.12D-03  NBF=    31    11
 NBsUse=    42 1.00D-06 EigRej= -1.00D+00 NBFU=    31    11
 Initial guess from the checkpoint file:  "/home/epktb/scan-dzp-HNC.chk"
 B after Tr=     0.000000    0.000000    0.000000
         Rot=    1.000000    0.000000    0.000000    0.000005 Ang=   0.00 deg.
 Initial guess orbital symmetries:
       Occupied  (A') (A') (A') (A') (A') (A") (A')
       Virtual   (A') (A') (A') (A') (A') (A') (A') (A') (A') (A')
                 (A') (A') (A') (A') (A') (A') (A') (A') (A') (A')
                 (A') (A') (A') (A') (A') (A") (A") (A") (A") (A")
                 (A") (A") (A") (A") (A")
 Keep R1 ints in memory in symmetry-blocked form, NReq=1271642.
 Requested convergence on RMS density matrix=1.00D-08 within 128 cycles.
 Requested convergence on MAX density matrix=1.00D-06.
 Requested convergence on             energy=1.00D-06.
 No special actions if energy rises.
 SCF Done:  E(RHF) =  -92.8747071403     A.U. after    9 cycles
            NFock=  9  Conv=0.82D-08     -V/T= 2.0015
 Calling FoFJK, ICntrl=      2127 FMM=F ISym2X=1 I1Cent= 0 IOpClX= 0 NMat=1 NMatS=1 NMatT=0.
 ***** Axes restored to original set *****
 -------------------------------------------------------------------
 Center     Atomic                   Forces (Hartrees/Bohr)
 Number     Number              X              Y              Z
 -------------------------------------------------------------------
      1        7           0.012427941    0.000000000    0.000117970
      2        6          -0.005695246    0.000000000    0.001010038
      3        1          -0.006732695    0.000000000   -0.001128008
 -------------------------------------------------------------------
 Cartesian Forces:  Max     0.012427941 RMS     0.005104739

 GradGradGradGradGradGradGradGradGradGradGradGradGradGradGradGradGradGrad
 Berny optimization.
 Using GEDIIS/GDIIS optimizer.
 FormGI is forming the generalized inverse of G from B-inverse, IUseBI=4.
 Internal  Forces:  Max     0.010304289 RMS     0.005725976
 Search for a local minimum.
 Step number   6 out of a maximum of   20 on scan point     1 out of    31
 All quantities printed in internal units (Hartrees-Bohrs-Radians)
 Mixed Optimization -- En-DIIS/RFO-DIIS
 Update second derivatives using D2CorX and points    2    3    4    5    6
 DE= -2.70D-05 DEPred=-2.73D-05 R= 9.89D-01
 TightC=F SS=  1.41D+00  RLast= 6.96D-03 DXNew= 8.8137D-01 2.0883D-02
 Trust test= 9.89D-01 RLast= 6.96D-03 DXMaxT set to 5.24D-01
 The second derivative matrix:
                          R1        R2        A1        A2
           R1           1.29476
           R2           0.00363   0.54523
           A1           0.03562   0.00268   0.15842
           A2          -0.06686   0.01993  -0.00084   0.16420
 ITU=  1  1  1  0  1
 Use linear search instead of GDIIS.
     Eigenvalues ---    0.54093   1.278431000.000001000.00000
 RFO step:  Lambda=-1.60565163D-08 EMin= 5.40929821D-01
 Quartic linear search produced a step of  0.02815.
 Iteration  1 RMS(Cart)=  0.00007630 RMS(Int)=  0.00000000
 Iteration  2 RMS(Cart)=  0.00000000 RMS(Int)=  0.00000000
 Iteration  1 RMS(Cart)=  0.00000006 RMS(Int)=  0.00000017
 ClnCor:  largest displacement from symmetrization is 1.04D-17 for atom     1.
 Variable       Old X    -DE/DX   Delta X   Delta X   Delta X     New X
                                 (Linear)    (Quad)   (Total)
    R1        2.19251   0.00072  -0.00016  -0.00005  -0.00021   2.19230
    R2        1.87069  -0.00111  -0.00011   0.00016   0.00004   1.87073
    A1        2.76211   0.01030   0.00000   0.00002   0.00002   2.76213
    A2        0.17453  -0.00482   0.00000   0.00000   0.00000   0.17453
         Item               Value     Threshold  Converged?
 Maximum Force            0.000250     0.000015     NO 
 RMS     Force            0.000146     0.000010     NO 
 Maximum Displacement     0.000120     0.000060     NO 
 RMS     Displacement     0.000076     0.000040     NO 
 Predicted change in Energy=-2.781689D-08
 GradGradGradGradGradGradGradGradGradGradGradGradGradGradGradGradGradGrad

                          Input orientation:                          
 ---------------------------------------------------------------------
 Center     Atomic      Atomic             Coordinates (Angstroms)
 Number     Number       Type             X           Y           Z
 ---------------------------------------------------------------------
      1          7           0        0.009845    0.000000   -0.166920
      2          6           0        0.025234    0.000000    0.993095
      3          1           0        0.364312    0.000000   -1.091232
 ---------------------------------------------------------------------
                    Distance matrix (angstroms):
                    1          2          3
     1  N    0.000000
     2  C    1.160118   0.000000
     3  H    0.989949   2.111728   0.000000
 Stoichiometry    CHN
 Framework group  CS[SG(CHN)]
 Deg. of freedom     3
 Full point group                 CS      NOp   2
 Largest Abelian subgroup         CS      NOp   2
 Largest concise Abelian subgroup C1      NOp   1
                         Standard orientation:                         
 ---------------------------------------------------------------------
 Center     Atomic      Atomic             Coordinates (Angstroms)
 Number     Number       Type             X           Y           Z
 ---------------------------------------------------------------------
      1          7           0        0.026193    0.431513    0.000000
      2          6           0        0.026193   -0.728605    0.000000
      3          1           0       -0.340504    1.351041    0.000000
 ---------------------------------------------------------------------
 Rotational constants (GHZ):   4799.6773212     46.8978301     46.4440238
 Basis read from rwf:  (5D, 7F)
 There are    33 symmetry adapted cartesian basis functions of A'  symmetry.
 There are    11 symmetry adapted cartesian basis functions of A"  symmetry.
 There are    31 symmetry adapted basis functions of A'  symmetry.
 There are    11 symmetry adapted basis functions of A"  symmetry.
    42 basis functions,    74 primitive gaussians,    44 cartesian basis functions
     7 alpha electrons        7 beta electrons
       nuclear repulsion energy        24.4033092669 Hartrees.
 NAtoms=    3 NActive=    3 NUniq=    3 SFac= 1.00D+00 NAtFMM=   60 NAOKFM=F Big=F
 Integral buffers will be    131072 words long.
 Raffenetti 1 integral format.
 Two-electron integral symmetry is turned on.
 One-electron integrals computed using PRISM.
 NBasis=    42 RedAO= T EigKep=  9.12D-03  NBF=    31    11
 NBsUse=    42 1.00D-06 EigRej= -1.00D+00 NBFU=    31    11
 Initial guess from the checkpoint file:  "/home/epktb/scan-dzp-HNC.chk"
 B after Tr=     0.000000    0.000000    0.000000
         Rot=    1.000000    0.000000    0.000000    0.000001 Ang=   0.00 deg.
 Initial guess orbital symmetries:
       Occupied  (A') (A') (A') (A') (A') (A") (A')
       Virtual   (A') (A') (A') (A') (A') (A') (A') (A') (A') (A')
                 (A') (A') (A') (A') (A') (A') (A') (A') (A') (A')
                 (A') (A') (A') (A') (A') (A") (A") (A") (A") (A")
                 (A") (A") (A") (A") (A")
 Keep R1 ints in memory in symmetry-blocked form, NReq=1271642.
 Requested convergence on RMS density matrix=1.00D-08 within 128 cycles.
 Requested convergence on MAX density matrix=1.00D-06.
 Requested convergence on             energy=1.00D-06.
 No special actions if energy rises.
 SCF Done:  E(RHF) =  -92.8747071674     A.U. after    7 cycles
            NFock=  7  Conv=0.48D-08     -V/T= 2.0015
 Calling FoFJK, ICntrl=      2127 FMM=F ISym2X=1 I1Cent= 0 IOpClX= 0 NMat=1 NMatS=1 NMatT=0.
 ***** Axes restored to original set *****
 -------------------------------------------------------------------
 Center     Atomic                   Forces (Hartrees/Bohr)
 Number     Number              X              Y              Z
 -------------------------------------------------------------------
      1        7           0.012443748    0.000000000   -0.000180212
      2        6          -0.005696453    0.000000000    0.001283635
      3        1          -0.006747295    0.000000000   -0.001103423
 -------------------------------------------------------------------
 Cartesian Forces:  Max     0.012443748 RMS     0.005117727

 GradGradGradGradGradGradGradGradGradGradGradGradGradGradGradGradGradGrad
 Berny optimization.
 Using GEDIIS/GDIIS optimizer.
 FormGI is forming the generalized inverse of G from B-inverse, IUseBI=4.
 Internal  Forces:  Max     0.010306777 RMS     0.005741780
 Search for a local minimum.
 Step number   7 out of a maximum of   20 on scan point     1 out of    31
 All quantities printed in internal units (Hartrees-Bohrs-Radians)
 Mixed Optimization -- En-DIIS/RFO-DIIS
 Swapping is turned off.
 Update second derivatives using D2CorX and points    3    4    5    6    7
 DE= -2.71D-08 DEPred=-2.78D-08 R= 9.76D-01
 Trust test= 9.76D-01 RLast= 2.13D-04 DXMaxT set to 5.24D-01
 The second derivative matrix:
                          R1        R2        A1        A2
           R1           1.31677
           R2          -0.01581   0.55024
           A1           0.03177   0.00439   0.15845
           A2          -0.06662   0.02152  -0.00052   0.16416
 ITU=  0  1  1  1  0
     Eigenvalues ---    0.54633   1.300481000.000001000.00000
 En-DIIS/RFO-DIIS IScMMF=        0 using points:     7    6
 RFO step:  Lambda=-4.17056390D-06.
 DidBck=F Rises=F RFO-DIIS coefs:    0.92378    0.07622
 Iteration  1 RMS(Cart)=  0.00001067 RMS(Int)=  0.00000219
 Iteration  2 RMS(Cart)=  0.00000000 RMS(Int)=  0.00000219
 Iteration  1 RMS(Cart)=  0.00000069 RMS(Int)=  0.00000194
 ClnCor:  largest displacement from symmetrization is 4.58D-16 for atom     3.
 Variable       Old X    -DE/DX   Delta X   Delta X   Delta X     New X
                                 (Linear)    (Quad)   (Total)
    R1        2.19230   0.00100   0.00002   0.00000   0.00002   2.19232
    R2        1.87073  -0.00114   0.00000   0.00001   0.00001   1.87074
    A1        2.76213   0.01031   0.00000   0.00001   0.00001   2.76214
    A2        0.17453  -0.00483   0.00000   0.00000   0.00000   0.17453
         Item               Value     Threshold  Converged?
 Maximum Force            0.000020     0.000015     NO 
 RMS     Force            0.000012     0.000010     NO 
 Maximum Displacement     0.000015     0.000060     YES
 RMS     Displacement     0.000010     0.000040     YES
 Predicted change in Energy=-8.778945D-08
 GradGradGradGradGradGradGradGradGradGradGradGradGradGradGradGradGradGrad

                          Input orientation:                          
 ---------------------------------------------------------------------
 Center     Atomic      Atomic             Coordinates (Angstroms)
 Number     Number       Type             X           Y           Z
 ---------------------------------------------------------------------
      1          7           0        0.009846    0.000000   -0.166921
      2          6           0        0.025232    0.000000    0.993103
      3          1           0        0.364312    0.000000   -1.091240
 ---------------------------------------------------------------------
                    Distance matrix (angstroms):
                    1          2          3
     1  N    0.000000
     2  C    1.160126   0.000000
     3  H    0.989955   2.111743   0.000000
 Stoichiometry    CHN
 Framework group  CS[SG(CHN)]
 Deg. of freedom     3
 Full point group                 CS      NOp   2
 Largest Abelian subgroup         CS      NOp   2
 Largest concise Abelian subgroup C1      NOp   1
                         Standard orientation:                         
 ---------------------------------------------------------------------
 Center     Atomic      Atomic             Coordinates (Angstroms)
 Number     Number       Type             X           Y           Z
 ---------------------------------------------------------------------
      1          7           0        0.026192    0.431516    0.000000
      2          6           0        0.026192   -0.728610    0.000000
      3          1           0       -0.340501    1.351052    0.000000
 ---------------------------------------------------------------------
 Rotational constants (GHZ):   4799.7834785     46.8971252     46.4433424
 Basis read from rwf:  (5D, 7F)
 There are    33 symmetry adapted cartesian basis functions of A'  symmetry.
 There are    11 symmetry adapted cartesian basis functions of A"  symmetry.
 There are    31 symmetry adapted basis functions of A'  symmetry.
 There are    11 symmetry adapted basis functions of A"  symmetry.
    42 basis functions,    74 primitive gaussians,    44 cartesian basis functions
     7 alpha electrons        7 beta electrons
       nuclear repulsion energy        24.4031346443 Hartrees.
 NAtoms=    3 NActive=    3 NUniq=    3 SFac= 1.00D+00 NAtFMM=   60 NAOKFM=F Big=F
 Integral buffers will be    131072 words long.
 Raffenetti 1 integral format.
 Two-electron integral symmetry is turned on.
 One-electron integrals computed using PRISM.
 NBasis=    42 RedAO= T EigKep=  9.12D-03  NBF=    31    11
 NBsUse=    42 1.00D-06 EigRej= -1.00D+00 NBFU=    31    11
 Initial guess from the checkpoint file:  "/home/epktb/scan-dzp-HNC.chk"
 B after Tr=     0.000000    0.000000    0.000000
         Rot=    1.000000    0.000000    0.000000    0.000001 Ang=   0.00 deg.
 Initial guess orbital symmetries:
       Occupied  (A') (A') (A') (A') (A') (A") (A')
       Virtual   (A') (A') (A') (A') (A') (A') (A') (A') (A') (A')
                 (A') (A') (A') (A') (A') (A') (A') (A') (A') (A')
                 (A') (A') (A') (A') (A') (A") (A") (A") (A") (A")
                 (A") (A") (A") (A") (A")
 Keep R1 ints in memory in symmetry-blocked form, NReq=1271642.
 Requested convergence on RMS density matrix=1.00D-08 within 128 cycles.
 Requested convergence on MAX density matrix=1.00D-06.
 Requested convergence on             energy=1.00D-06.
 No special actions if energy rises.
 SCF Done:  E(RHF) =  -92.8747072552     A.U. after    4 cycles
            NFock=  4  Conv=0.99D-08     -V/T= 2.0015
 Calling FoFJK, ICntrl=      2127 FMM=F ISym2X=1 I1Cent= 0 IOpClX= 0 NMat=1 NMatS=1 NMatT=0.
 ***** Axes restored to original set *****
 -------------------------------------------------------------------
 Center     Atomic                   Forces (Hartrees/Bohr)
 Number     Number              X              Y              Z
 -------------------------------------------------------------------
      1        7           0.012444844    0.000000000   -0.000163743
      2        6          -0.005696136    0.000000000    0.001261650
      3        1          -0.006748708    0.000000000   -0.001097907
 -------------------------------------------------------------------
 Cartesian Forces:  Max     0.012444844 RMS     0.005117390

 GradGradGradGradGradGradGradGradGradGradGradGradGradGradGradGradGradGrad
 Berny optimization.
 Using GEDIIS/GDIIS optimizer.
 FormGI is forming the generalized inverse of G from B-inverse, IUseBI=4.
 Internal  Forces:  Max     0.010306048 RMS     0.005740582
 Search for a local minimum.
 Step number   8 out of a maximum of   20 on scan point     1 out of    31
 All quantities printed in internal units (Hartrees-Bohrs-Radians)
 Mixed Optimization -- En-DIIS/RFO-DIIS
 Swapping is turned off.
 Update second derivatives using D2CorX and points    4    5    6    8
 DE= -8.78D-08 DEPred=-8.78D-08 R= 1.00D+00
 Trust test= 1.00D+00 RLast= 2.07D-05 DXMaxT set to 5.24D-01
 The second derivative matrix:
                          R1        R2        A1        A2
           R1           1.31710
           R2          -0.01718   0.55169
           A1           0.03683   0.00584   0.15868
           A2          -0.06926   0.01977  -0.00083   0.16429
 ITU=  0  0  1  1  1
     Eigenvalues ---    0.54806   1.299861000.000001000.00000
 En-DIIS/RFO-DIIS IScMMF=        0 using points:     8    7    6
 RFO step:  Lambda=-4.16842499D-06.
 DidBck=F Rises=F RFO-DIIS coefs:    0.96934    0.02619    0.00447
 Iteration  1 RMS(Cart)=  0.00000351 RMS(Int)=  0.00000219
 Iteration  2 RMS(Cart)=  0.00000000 RMS(Int)=  0.00000219
 Iteration  1 RMS(Cart)=  0.00000120 RMS(Int)=  0.00000336
 Iteration  2 RMS(Cart)=  0.00000098 RMS(Int)=  0.00000359
 ClnCor:  largest displacement from symmetrization is 6.94D-18 for atom     1.
 Variable       Old X    -DE/DX   Delta X   Delta X   Delta X     New X
                                 (Linear)    (Quad)   (Total)
    R1        2.19232   0.00098   0.00000   0.00000   0.00000   2.19232
    R2        1.87074  -0.00114   0.00000   0.00000   0.00000   1.87074
    A1        2.76214   0.01031   0.00000   0.00001   0.00000   2.76214
    A2        0.17453  -0.00483   0.00000   0.00000   0.00000   0.17453
         Item               Value     Threshold  Converged?
 Maximum Force            0.000001     0.000015     YES
 RMS     Force            0.000001     0.000010     YES
 Maximum Displacement     0.000002     0.000060     YES
 RMS     Displacement     0.000001     0.000040     YES
 Predicted change in Energy=-4.058009D-08
 Optimization completed.
    -- Stationary point found.
                           ----------------------------
                           !   Optimized Parameters   !
                           ! (Angstroms and Degrees)  !
 --------------------------                            --------------------------
 ! Name  Definition              Value          Derivative Info.                !
 --------------------------------------------------------------------------------
 ! R1    R(1,2)                  1.1601         -DE/DX =    0.001               !
 ! R2    R(1,3)                  0.99           -DE/DX =   -0.0011              !
 ! A1    A(2,1,3)              158.2589         -DE/DX =    0.0103              !
 ! A2    A(1,2,3)                9.9998         -DE/DX =   -0.0048              !
 --------------------------------------------------------------------------------
 Iteration  1 RMS(Cart)=  0.01493057 RMS(Int)=  0.04194687
 Iteration  2 RMS(Cart)=  0.00024164 RMS(Int)=  0.04194582
 Iteration  3 RMS(Cart)=  0.00000205 RMS(Int)=  0.04194582
 Iteration  4 RMS(Cart)=  0.00000002 RMS(Int)=  0.04194582
 Iteration  1 RMS(Cart)=  0.01237139 RMS(Int)=  0.03446639
 Iteration  2 RMS(Cart)=  0.01023486 RMS(Int)=  0.03689356
 Iteration  3 RMS(Cart)=  0.00845020 RMS(Int)=  0.04201061
 Iteration  4 RMS(Cart)=  0.00696405 RMS(Int)=  0.04767656
 Iteration  5 RMS(Cart)=  0.00573008 RMS(Int)=  0.05299981
 Iteration  6 RMS(Cart)=  0.00470823 RMS(Int)=  0.05769168
 Iteration  7 RMS(Cart)=  0.00386403 RMS(Int)=  0.06170468
 Iteration  8 RMS(Cart)=  0.00316803 RMS(Int)=  0.06508226
 Iteration  9 RMS(Cart)=  0.00259522 RMS(Int)=  0.06789821
 Iteration 10 RMS(Cart)=  0.00212448 RMS(Int)=  0.07023189
 Iteration 11 RMS(Cart)=  0.00173812 RMS(Int)=  0.07215815
 Iteration 12 RMS(Cart)=  0.00142133 RMS(Int)=  0.07374368
 Iteration 13 RMS(Cart)=  0.00116182 RMS(Int)=  0.07504613
 Iteration 14 RMS(Cart)=  0.00094938 RMS(Int)=  0.07611445
 Iteration 15 RMS(Cart)=  0.00077557 RMS(Int)=  0.07698974
 Iteration 16 RMS(Cart)=  0.00063345 RMS(Int)=  0.07770627
 Iteration 17 RMS(Cart)=  0.00051727 RMS(Int)=  0.07829244
 Iteration 18 RMS(Cart)=  0.00042234 RMS(Int)=  0.07877171
 Iteration 19 RMS(Cart)=  0.00034479 RMS(Int)=  0.07916343
 Iteration 20 RMS(Cart)=  0.00028145 RMS(Int)=  0.07948348
 Iteration 21 RMS(Cart)=  0.00022972 RMS(Int)=  0.07974490
 Iteration 22 RMS(Cart)=  0.00018750 RMS(Int)=  0.07995840
 Iteration 23 RMS(Cart)=  0.00015302 RMS(Int)=  0.08013272
 Iteration 24 RMS(Cart)=  0.00012488 RMS(Int)=  0.08027504
 Iteration 25 RMS(Cart)=  0.00010191 RMS(Int)=  0.08039121
 Iteration 26 RMS(Cart)=  0.00008316 RMS(Int)=  0.08048604
 Iteration 27 RMS(Cart)=  0.00006786 RMS(Int)=  0.08056344
 Iteration 28 RMS(Cart)=  0.00005537 RMS(Int)=  0.08062661
 Iteration 29 RMS(Cart)=  0.00004519 RMS(Int)=  0.08067816
 Iteration 30 RMS(Cart)=  0.00003687 RMS(Int)=  0.08072023
 Iteration 31 RMS(Cart)=  0.00003008 RMS(Int)=  0.08075456
 Iteration 32 RMS(Cart)=  0.00002455 RMS(Int)=  0.08078257
 Iteration 33 RMS(Cart)=  0.00002003 RMS(Int)=  0.08080543
 Iteration 34 RMS(Cart)=  0.00001634 RMS(Int)=  0.08082408
 Iteration 35 RMS(Cart)=  0.00001334 RMS(Int)=  0.08083931
 Iteration 36 RMS(Cart)=  0.00001088 RMS(Int)=  0.08085173
 Iteration 37 RMS(Cart)=  0.00000888 RMS(Int)=  0.08086186
 Iteration 38 RMS(Cart)=  0.00000724 RMS(Int)=  0.08087013
 Iteration 39 RMS(Cart)=  0.00000591 RMS(Int)=  0.08087688
 Iteration 40 RMS(Cart)=  0.00000482 RMS(Int)=  0.08088238
 Iteration 41 RMS(Cart)=  0.00000394 RMS(Int)=  0.08088687
 Iteration 42 RMS(Cart)=  0.00000321 RMS(Int)=  0.08089054
 Iteration 43 RMS(Cart)=  0.00000262 RMS(Int)=  0.08089353
 Iteration 44 RMS(Cart)=  0.00000214 RMS(Int)=  0.08089597
 Iteration 45 RMS(Cart)=  0.00000174 RMS(Int)=  0.08089796
 Iteration 46 RMS(Cart)=  0.00000142 RMS(Int)=  0.08089958
 Iteration 47 RMS(Cart)=  0.00000116 RMS(Int)=  0.08090091
 Iteration 48 RMS(Cart)=  0.00000095 RMS(Int)=  0.08090199
 GradGradGradGradGradGradGradGradGradGradGradGradGradGradGradGradGradGrad

[...]
 Calling FoFJK, ICntrl=      2127 FMM=F ISym2X=1 I1Cent= 0 IOpClX= 0 NMat=1 NMatS=1 NMatT=0.
 ***** Axes restored to original set *****
 -------------------------------------------------------------------
 Center     Atomic                   Forces (Hartrees/Bohr)
 Number     Number              X              Y              Z
 -------------------------------------------------------------------
      1        7           0.001386275    0.000000000    0.007196608
      2        6          -0.004175635    0.000000000   -0.014529198
      3        1           0.002789360    0.000000000    0.007332589
 -------------------------------------------------------------------
 Cartesian Forces:  Max     0.014529198 RMS     0.006180559

 GradGradGradGradGradGradGradGradGradGradGradGradGradGradGradGradGradGrad
 Berny optimization.
 Using GEDIIS/GDIIS optimizer.
 FormGI is forming the generalized inverse of G from B-inverse, IUseBI=4.
 Internal  Forces:  Max     0.012744079 RMS     0.007089139
 Search for a local minimum.
 Step number   2 out of a maximum of   20 on scan point    31 out of    31
 All quantities printed in internal units (Hartrees-Bohrs-Radians)
 Mixed Optimization -- En-DIIS/RFO-DIIS
 Update second derivatives using D2CorX and points    1    2
 DE= -7.79D-05 DEPred=-8.05D-05 R= 9.68D-01
 TightC=F SS=  1.41D+00  RLast= 1.98D-02 DXNew= 2.1505D-01 5.9531D-02
 Trust test= 9.68D-01 RLast= 1.98D-02 DXMaxT set to 1.28D-01
 The second derivative matrix:
                          R1        R2        A1        A2
           R1           1.97062
           R2          -0.46272   0.45892
           A1          -0.20081   0.05823   0.34933
           A2           0.02658  -0.05399  -0.08574   0.18591
 ITU=  1  0
 Use linear search instead of GDIIS.
     Eigenvalues ---    0.32857   2.117781000.000001000.00000
 RFO step:  Lambda= 0.00000000D+00 EMin= 3.28568441D-01
 Quartic linear search produced a step of -0.02226.
 Iteration  1 RMS(Cart)=  0.00017031 RMS(Int)=  0.00000001
 Iteration  2 RMS(Cart)=  0.00000000 RMS(Int)=  0.00000001
 Iteration  1 RMS(Cart)=  0.00000006 RMS(Int)=  0.00000004
 ClnCor:  largest displacement from symmetrization is 1.86D-15 for atom     3.
 Variable       Old X    -DE/DX   Delta X   Delta X   Delta X     New X
                                 (Linear)    (Quad)   (Total)
    R1        2.14719  -0.00006  -0.00002   0.00004   0.00002   2.14721
    R2        4.13453  -0.00004  -0.00044   0.00004  -0.00041   4.13412
    A1        0.09273  -0.00621  -0.00001   0.00000  -0.00001   0.09272
    A2        2.94961   0.01274   0.00000   0.00000   0.00000   2.94961
         Item               Value     Threshold  Converged?
 Maximum Force            0.000229     0.000015     NO 
 RMS     Force            0.000172     0.000010     NO 
 Maximum Displacement     0.000262     0.000060     NO 
 RMS     Displacement     0.000170     0.000040     NO 
 Predicted change in Energy=-4.230143D-08
 GradGradGradGradGradGradGradGradGradGradGradGradGradGradGradGradGradGrad

                          Input orientation:                          
 ---------------------------------------------------------------------
 Center     Atomic      Atomic             Coordinates (Angstroms)
 Number     Number       Type             X           Y           Z
 ---------------------------------------------------------------------
      1          7           0       -0.937484    0.000000    0.192771
      2          6           0        0.177070    0.000000   -0.028234
      3          1           0        1.159805    0.000000   -0.429595
 ---------------------------------------------------------------------
                    Distance matrix (angstroms):
                    1          2          3
     1  N    0.000000
     2  C    1.136255   0.000000
     3  H    2.187684   1.061536   0.000000
 Stoichiometry    CHN
 Framework group  CS[SG(CHN)]
 Deg. of freedom     3
 Full point group                 CS      NOp   2
 Largest Abelian subgroup         CS      NOp   2
 Largest concise Abelian subgroup C1      NOp   1
                         Standard orientation:                         
 ---------------------------------------------------------------------
 Center     Atomic      Atomic             Coordinates (Angstroms)
 Number     Number       Type             X           Y           Z
 ---------------------------------------------------------------------
      1          7           0        0.014468    0.642558    0.000000
      2          6           0        0.014468   -0.493696    0.000000
      3          1           0       -0.188083   -1.535729    0.000000
 ---------------------------------------------------------------------
 Rotational constants (GHZ):  16749.7900878     45.9151016     45.7895816
 Basis read from rwf:  (5D, 7F)
 There are    33 symmetry adapted cartesian basis functions of A'  symmetry.
 There are    11 symmetry adapted cartesian basis functions of A"  symmetry.
 There are    31 symmetry adapted basis functions of A'  symmetry.
 There are    11 symmetry adapted basis functions of A"  symmetry.
    42 basis functions,    74 primitive gaussians,    44 cartesian basis functions
     7 alpha electrons        7 beta electrons
       nuclear repulsion energy        24.2444964645 Hartrees.
 NAtoms=    3 NActive=    3 NUniq=    3 SFac= 1.00D+00 NAtFMM=   60 NAOKFM=F Big=F
 Integral buffers will be    131072 words long.
 Raffenetti 1 integral format.
 Two-electron integral symmetry is turned on.
 One-electron integrals computed using PRISM.
 NBasis=    42 RedAO= T EigKep=  1.22D-02  NBF=    31    11
 NBsUse=    42 1.00D-06 EigRej= -1.00D+00 NBFU=    31    11
 Initial guess from the checkpoint file:  "/home/epktb/scan-dzp-HNC.chk"
 B after Tr=     0.000000    0.000000    0.000000
         Rot=    1.000000    0.000000    0.000000   -0.000002 Ang=   0.00 deg.
 Initial guess orbital symmetries:
       Occupied  (A') (A') (A') (A') (A') (A") (A')
       Virtual   (A') (A') (A') (A') (A') (A') (A') (A') (A') (A')
                 (A') (A') (A') (A') (A') (A') (A') (A') (A') (A')
                 (A') (A') (A') (A') (A') (A") (A") (A") (A") (A")
                 (A") (A") (A") (A") (A")
 Keep R1 ints in memory in symmetry-blocked form, NReq=1271614.
 Requested convergence on RMS density matrix=1.00D-08 within 128 cycles.
 Requested convergence on MAX density matrix=1.00D-06.
 Requested convergence on             energy=1.00D-06.
 No special actions if energy rises.
 SCF Done:  E(RHF) =  -92.8901687991     A.U. after    6 cycles
            NFock=  6  Conv=0.39D-08     -V/T= 2.0017
 Calling FoFJK, ICntrl=      2127 FMM=F ISym2X=1 I1Cent= 0 IOpClX= 0 NMat=1 NMatS=1 NMatT=0.
 ***** Axes restored to original set *****
 -------------------------------------------------------------------
 Center     Atomic                   Forces (Hartrees/Bohr)
 Number     Number              X              Y              Z
 -------------------------------------------------------------------
      1        7           0.001421114    0.000000000    0.007190224
      2        6          -0.004387705    0.000000000   -0.014452937
      3        1           0.002966591    0.000000000    0.007262713
 -------------------------------------------------------------------
 Cartesian Forces:  Max     0.014452937 RMS     0.006177071

 GradGradGradGradGradGradGradGradGradGradGradGradGradGradGradGradGradGrad
 Berny optimization.
 Using GEDIIS/GDIIS optimizer.
 FormGI is forming the generalized inverse of G from B-inverse, IUseBI=4.
 Internal  Forces:  Max     0.012720842 RMS     0.007074488
 Search for a local minimum.
 Step number   3 out of a maximum of   20 on scan point    31 out of    31
 All quantities printed in internal units (Hartrees-Bohrs-Radians)
 Mixed Optimization -- En-DIIS/RFO-DIIS
 Swapping is turned off.
 Update second derivatives using D2CorX and points    1    2    3
 DE= -4.34D-08 DEPred=-4.23D-08 R= 1.03D+00
 Trust test= 1.03D+00 RLast= 4.06D-04 DXMaxT set to 1.28D-01
 The second derivative matrix:
                          R1        R2        A1        A2
           R1           1.96685
           R2          -0.45416   0.44710
           A1          -0.18994   0.04833   0.34659
           A2           0.02686  -0.05368  -0.08471   0.18601
 ITU=  0  1  0
     Eigenvalues ---    0.32164   2.107661000.000001000.00000
 En-DIIS/RFO-DIIS IScMMF=        0 using points:     3    2
 RFO step:  Lambda=-6.33068882D-06.
 DidBck=F Rises=F RFO-DIIS coefs:    1.00359   -0.00359
 Iteration  1 RMS(Cart)=  0.00000177 RMS(Int)=  0.00000278
 Iteration  2 RMS(Cart)=  0.00000000 RMS(Int)=  0.00000278
 Iteration  1 RMS(Cart)=  0.00000083 RMS(Int)=  0.00000053
 ClnCor:  largest displacement from symmetrization is 2.29D-16 for atom     1.
 Variable       Old X    -DE/DX   Delta X   Delta X   Delta X     New X
                                 (Linear)    (Quad)   (Total)
    R1        2.14721  -0.00028   0.00000   0.00000   0.00000   2.14721
    R2        4.13412   0.00015   0.00000   0.00001   0.00000   4.13413
    A1        0.09272  -0.00619   0.00000  -0.00001   0.00000   0.09272
    A2        2.94961   0.01272   0.00000   0.00000   0.00000   2.94961
         Item               Value     Threshold  Converged?
 Maximum Force            0.000004     0.000015     YES
 RMS     Force            0.000002     0.000010     YES
 Maximum Displacement     0.000002     0.000060     YES
 RMS     Displacement     0.000001     0.000040     YES
 Predicted change in Energy=-7.790649D-09
 Optimization completed.
    -- Stationary point found.
                           ----------------------------
                           !   Optimized Parameters   !
                           ! (Angstroms and Degrees)  !
 --------------------------                            --------------------------
 ! Name  Definition              Value          Derivative Info.                !
 --------------------------------------------------------------------------------
 ! R1    R(1,2)                  1.1363         -DE/DX =   -0.0003              !
 ! R2    R(1,3)                  2.1877         -DE/DX =    0.0001              !
 ! A1    A(2,1,3)                5.3124         -DE/DX =   -0.0062              !
 ! A2    A(1,2,3)              169.0            -DE/DX =    0.0127              !
 --------------------------------------------------------------------------------
 GradGradGradGradGradGradGradGradGradGradGradGradGradGradGradGradGradGrad

 Summary of Optimized Potential Surface Scan
                           1         2         3         4         5
     Eigenvalues --   -92.87471 -92.87168 -92.86779 -92.86313 -92.85779
           R1           1.16013   1.16451   1.16991   1.17561   1.18068
           R2           0.98995   0.99432   1.00058   1.00949   1.02207
           A1         158.25885 146.69922 135.10875 123.52443 112.04402
           A2           9.99980  15.29972  20.59977  25.89980  31.19981
                           6         7         8         9        10
     Eigenvalues --   -92.85191 -92.84574 -92.83949 -92.83323 -92.82706
           R1           1.18401   1.18487   1.18338   1.18052   1.17763
           R2           1.03951   1.06341   1.09637   1.14151   1.19899
           A1         100.85111  90.24112  80.65175  72.57870  66.18062
           A2          36.49983  41.80012  47.09986  52.39986  57.69988
                          11        12        13        14        15
     Eigenvalues --   -92.82144 -92.81702 -92.81430 -92.81348 -92.81453
           R1           1.17554   1.17426   1.17338   1.17241   1.17103
           R2           1.26506   1.33534   1.40674   1.47736   1.54610
           A1          61.11118  56.90945  53.25327  49.95484  46.90271
           A2          62.99992  68.29991  73.59993  78.90003  84.20007
                          16        17        18        19        20
     Eigenvalues --   -92.81724 -92.82132 -92.82643 -92.83227 -92.83856
           R1           1.16908   1.16660   1.16370   1.16057   1.15738
           R2           1.61229   1.67557   1.73570   1.79258   1.84609
           A1          44.02453  41.26833  38.59550  35.97748  33.39377
           A2          89.50004  94.80004 100.10004 105.40003 110.70003
                          21        22        23        24        25
     Eigenvalues --   -92.84505 -92.85153 -92.85783 -92.86382 -92.86937
           R1           1.15425   1.15130   1.14856   1.14609   1.14388
           R2           1.89617   1.94271   1.98561   2.02478   2.06011
           A1          30.83020  28.27747  25.72958  23.18310  20.63587
           A2         116.00002 121.30001 126.60001 131.90000 137.20001
                          26        27        28        29        30
     Eigenvalues --   -92.87441 -92.87887 -92.88270 -92.88587 -92.88836
           R1           1.14195   1.14030   1.13891   1.13777   1.13689
           R2           2.09155   2.11901   2.14241   2.16168   2.17678
           A1          18.08709  15.53616  12.98302  10.42781   7.87084
           A2         142.50000 147.80000 153.10001 158.40001 163.70000
                          31
     Eigenvalues --   -92.89017
           R1           1.13625
           R2           2.18768
           A1           5.31244
           A2         169.00000
                          Input orientation:                          
 ---------------------------------------------------------------------
 Center     Atomic      Atomic             Coordinates (Angstroms)
 Number     Number       Type             X           Y           Z
 ---------------------------------------------------------------------
      1          7           0       -0.937484    0.000000    0.192771
      2          6           0        0.177070    0.000000   -0.028234
      3          1           0        1.159805    0.000000   -0.429595
 ---------------------------------------------------------------------
                    Distance matrix (angstroms):
                    1          2          3
     1  N    0.000000
     2  C    1.136255   0.000000
     3  H    2.187684   1.061536   0.000000
 Stoichiometry    CHN
 Framework group  CS[SG(CHN)]
 Deg. of freedom     3
 Full point group                 CS      NOp   2
 Largest Abelian subgroup         CS      NOp   2
 Largest concise Abelian subgroup C1      NOp   1
                         Standard orientation:                         
 ---------------------------------------------------------------------
 Center     Atomic      Atomic             Coordinates (Angstroms)
 Number     Number       Type             X           Y           Z
 ---------------------------------------------------------------------
      1          7           0        0.014468    0.642558    0.000000
      2          6           0        0.014468   -0.493696    0.000000
      3          1           0       -0.188083   -1.535729    0.000000
 ---------------------------------------------------------------------
 Rotational constants (GHZ):  16749.7900878     45.9151016     45.7895816

 **********************************************************************

            Population analysis using the SCF density.

 **********************************************************************

 Orbital symmetries:
       Occupied  (A') (A') (A') (A') (A') (A") (A')
       Virtual   (A') (A') (A") (A') (A') (A") (A') (A') (A") (A')
                 (A') (A') (A") (A') (A') (A") (A') (A') (A') (A")
                 (A') (A') (A") (A') (A') (A") (A') (A") (A') (A')
                 (A") (A') (A') (A') (A')
 The electronic state is 1-A'.
 Alpha  occ. eigenvalues --  -15.60828 -11.30022  -1.24857  -0.81165  -0.58077
 Alpha  occ. eigenvalues --   -0.50388  -0.50343
 Alpha virt. eigenvalues --    0.06095   0.07075   0.07119   0.11173   0.15158
 Alpha virt. eigenvalues --    0.15504   0.17381   0.22087   0.22452   0.30829
 Alpha virt. eigenvalues --    0.48950   0.57803   0.57984   0.71129   0.81631
 Alpha virt. eigenvalues --    0.91169   0.91234   1.08460   1.38829   1.63171
 Alpha virt. eigenvalues --    1.65500   1.69061   1.70013   1.72304   2.20793
 Alpha virt. eigenvalues --    2.20976   2.32871   2.34323   2.66800   3.07077
 Alpha virt. eigenvalues --    3.10557   3.18104   4.01632  24.25815  33.29527
          Condensed to atoms (all electrons):
               1          2          3
     1  N    6.188256   0.946900  -0.004115
     2  C    0.946900   4.788485   0.353605
     3  H   -0.004115   0.353605   0.430479
 Mulliken charges:
               1
     1  N   -0.131041
     2  C   -0.088990
     3  H    0.220031
 Sum of Mulliken charges =   0.00000
 Mulliken charges with hydrogens summed into heavy atoms:
               1
     1  N   -0.131041
     2  C    0.131041
 Electronic spatial extent (au):  <R**2>=             48.9550
 Charge=              0.0000 electrons
 Dipole moment (field-independent basis, Debye):
    X=             -0.2788    Y=             -3.2341    Z=              0.0000  Tot=              3.2461
 Quadrupole moment (field-independent basis, Debye-Ang):
   XX=            -11.8179   YY=             -9.7366   ZZ=            -11.8742
   XY=              0.3546   XZ=              0.0000   YZ=              0.0000
 Traceless Quadrupole moment (field-independent basis, Debye-Ang):
   XX=             -0.6750   YY=              1.4063   ZZ=             -0.7313
   XY=              0.3546   XZ=              0.0000   YZ=              0.0000
 Octapole moment (field-independent basis, Debye-Ang**2):
  XXX=             -0.3436  YYY=             -7.7423  ZZZ=              0.0000  XYY=             -0.8568
  XXY=             -0.5051  XXZ=              0.0000  XZZ=             -0.1092  YZZ=             -0.4173
  YYZ=              0.0000  XYZ=              0.0000
 Hexadecapole moment (field-independent basis, Debye-Ang**3):
 XXXX=            -12.3984 YYYY=            -35.3368 ZZZZ=            -12.2472 XXXY=             -0.4970
 XXXZ=              0.0000 YYYX=              0.7367 YYYZ=              0.0000 ZZZX=              0.0000
 ZZZY=              0.0000 XXYY=             -8.9307 XXZZ=             -4.1082 YYZZ=             -9.0931
 XXYZ=              0.0000 YYXZ=              0.0000 ZZXY=             -0.1745
 N-N= 2.424449646450D+01 E-N=-2.658857050659D+02  KE= 9.273000608609D+01
 Symmetry A'   KE= 9.001585473085D+01
 Symmetry A"   KE= 2.714151355231D+00
 B after Tr=     0.429615    0.000000    1.099896
         Rot=    0.863325    0.000000    0.504648    0.000000 Ang=  60.62 deg.
 Final structure in terms of initial Z-matrix:
 N
 C,1,B1
 H,2,B2,1,A1
      Variables:
 B1=1.13625477
 B2=1.06153601
 A1=168.99999808
 1\1\GINC-TC-NODE166\Scan\RHF\Gen\C1H1N1\EPKTB\27-Sep-2016\0\\# opt=(mo
 dredundant,tight) RHF/Gen gfp\\HNC-HCN\\0,1\N,-0.8262873792,0.,-0.1046
 588296\C,0.2882671597,0.,-0.3256635457\H,1.2710023152,0.,-0.7270241214
 \\Version=ES64L-G09RevD.01\State=1-A'\HF=-92.8747073,-92.8716849,-92.8
 6779,-92.8631338,-92.8577934,-92.8519121,-92.8457366,-92.8394913,-92.8
 332329,-92.8270637,-92.8214439,-92.8170231,-92.8142982,-92.8134816,-92
 .8145332,-92.8172434,-92.8213157,-92.8264272,-92.8322673,-92.8385551,-
 92.8450454,-92.8515298,-92.8578349,-92.8638198,-92.8693733,-92.87441,-
 92.8788665,-92.882697,-92.88587,-92.8883648,-92.8901688\RMSD=9.877e-09
 ,6.826e-09,3.966e-09,4.186e-09,7.209e-09,3.161e-09,6.182e-09,9.913e-09
 ,4.257e-09,3.085e-09,3.696e-09,4.442e-09,3.086e-09,9.683e-09,6.761e-09
 ,4.659e-09,5.029e-09,4.785e-09,4.363e-09,6.750e-09,7.865e-09,3.992e-09
 ,2.895e-09,7.484e-09,9.538e-09,5.292e-09,9.946e-09,4.904e-09,5.656e-09
 ,4.079e-09,3.941e-09\PG=CS [SG(C1H1N1)]\\@


 SEE YOU NOW,
 YOUR BAIT OF FALSEHOOD TAKES THIS CARP OF TRUTH.
 AND THUS DO WE OF WISDOM AND OF REACH...
 BY INDIRECTIONS FIND DIRECTIONS OUT.    -- HAMLET, II, 1
 Job cpu time:       0 days  0 hours  9 minutes  4.1 seconds.
 File lengths (MBytes):  RWF=     77 Int=      0 D2E=      0 Chk=      3 Scr=      1
 Normal termination of Gaussian 09 at Tue Sep 27 10:23:37 2016.
