 Entering Gaussian System, Link 0=g09
 Initial command:
 /cluster/software/gaussian/gaussian-09-D.01/g09/l1.exe "/local/scratch/epktb/Gau-989.inp" -scrdir="/local/scratch/epktb/"
 Entering Link 1 = /cluster/software/gaussian/gaussian-09-D.01/g09/l1.exe PID=       990.
  
 Copyright (c) 1988,1990,1992,1993,1995,1998,2003,2009,2013,
            Gaussian, Inc.  All Rights Reserved.
  
 This is part of the Gaussian(R) 09 program.  It is based on
 the Gaussian(R) 03 system (copyright 2003, Gaussian, Inc.),
 the Gaussian(R) 98 system (copyright 1998, Gaussian, Inc.),
 the Gaussian(R) 94 system (copyright 1995, Gaussian, Inc.),
 the Gaussian 92(TM) system (copyright 1992, Gaussian, Inc.),
 the Gaussian 90(TM) system (copyright 1990, Gaussian, Inc.),
 the Gaussian 88(TM) system (copyright 1988, Gaussian, Inc.),
 the Gaussian 86(TM) system (copyright 1986, Carnegie Mellon
 University), and the Gaussian 82(TM) system (copyright 1983,
 Carnegie Mellon University). Gaussian is a federally registered
 trademark of Gaussian, Inc.
  
 This software contains proprietary and confidential information,
 including trade secrets, belonging to Gaussian, Inc.
  
 This software is provided under written license and may be
 used, copied, transmitted, or stored only in accord with that
 written license.
  
 The following legend is applicable only to US Government
 contracts under FAR:
  
                    RESTRICTED RIGHTS LEGEND
  
 Use, reproduction and disclosure by the US Government is
 subject to restrictions as set forth in subparagraphs (a)
 and (c) of the Commercial Computer Software - Restricted
 Rights clause in FAR 52.227-19.
  
 Gaussian, Inc.
 340 Quinnipiac St., Bldg. 40, Wallingford CT 06492
  
  
 ---------------------------------------------------------------
 Warning -- This program may not be used in any manner that
 competes with the business of Gaussian, Inc. or will provide
 assistance to any competitor of Gaussian, Inc.  The licensee
 of this program is prohibited from giving any competitor of
 Gaussian, Inc. access to this program.  By using this program,
 the user acknowledges that Gaussian, Inc. is engaged in the
 business of creating and licensing software in the field of
 computational chemistry and represents and warrants to the
 licensee that it is not a competitor of Gaussian, Inc. and that
 it will not use this program in any manner prohibited above.
 ---------------------------------------------------------------
  

 Cite this work as:
 Gaussian 09, Revision D.01,
 M. J. Frisch, G. W. Trucks, H. B. Schlegel, G. E. Scuseria, 
 M. A. Robb, J. R. Cheeseman, G. Scalmani, V. Barone, B. Mennucci, 
 G. A. Petersson, H. Nakatsuji, M. Caricato, X. Li, H. P. Hratchian, 
 A. F. Izmaylov, J. Bloino, G. Zheng, J. L. Sonnenberg, M. Hada, 
 M. Ehara, K. Toyota, R. Fukuda, J. Hasegawa, M. Ishida, T. Nakajima, 
 Y. Honda, O. Kitao, H. Nakai, T. Vreven, J. A. Montgomery, Jr., 
 J. E. Peralta, F. Ogliaro, M. Bearpark, J. J. Heyd, E. Brothers, 
 K. N. Kudin, V. N. Staroverov, T. Keith, R. Kobayashi, J. Normand, 
 K. Raghavachari, A. Rendell, J. C. Burant, S. S. Iyengar, J. Tomasi, 
 M. Cossi, N. Rega, J. M. Millam, M. Klene, J. E. Knox, J. B. Cross, 
 V. Bakken, C. Adamo, J. Jaramillo, R. Gomperts, R. E. Stratmann, 
 O. Yazyev, A. J. Austin, R. Cammi, C. Pomelli, J. W. Ochterski, 
 R. L. Martin, K. Morokuma, V. G. Zakrzewski, G. A. Voth, 
 P. Salvador, J. J. Dannenberg, S. Dapprich, A. D. Daniels, 
 O. Farkas, J. B. Foresman, J. V. Ortiz, J. Cioslowski, 
 and D. J. Fox, Gaussian, Inc., Wallingford CT, 2013.
 
 ******************************************
 Gaussian 09:  ES64L-G09RevD.01 24-Apr-2013
                27-Sep-2016 
 ******************************************
 %rwf=/home/epktb/scratch/dzp-HNC/
 %int=/home/epktb/scratch/dzp-HNC/
 %d2e=/home/epktb/scratch/dzp-HNC/
 %nosave
 %mem=6GB
 %nprocshared=3
 Will use up to    3 processors via shared memory.
 %chk=/home/epktb/ts-dzp-HNC
 -----------------------------------
 # opt=(calcfc,ts,tight) RHF/Gen gfp
 -----------------------------------
 1/5=1,7=10,10=4,18=20,38=1/1,3;
 2/9=110,12=2,17=6,18=5,40=1/2;
 3/5=7,11=1,16=1,24=100,25=1,30=1,71=2,116=1,140=1/1,2,3;
 4//1;
 5/5=2,38=5/2;
 8/6=4,10=90,11=11/1;
 11/6=1,8=1,9=11,15=111,16=1/1,2,10;
 10/6=1,13=1/2;
 6/7=2,8=2,9=2,10=2,28=1/1;
 7/10=1,18=20,25=1/1,2,3,16;
 1/5=1,7=10,10=4,18=20/3(2);
 2/9=110/2;
 99//99;
 2/9=110/2;
 3/5=7,6=1,11=1,16=1,25=1,30=1,71=1,82=7,116=1/1,2,3;
 4/5=5,16=3,69=1/1;
 5/5=2,38=5/2;
 7//1,2,3,16;
 1/5=1,7=10,18=20/3(-5);
 2/9=110/2;
 6/7=2,8=2,9=2,10=2,19=2,28=1/1;
 99/9=1/99;
 -------
 HNC-HCN
 -------
 Symbolic Z-matrix:
 Charge =  0 Multiplicity = 1
 N
 C                    1    B1
 H                    2    B2       1    A1
       Variables:
  B1                    1.                       
  B2                    1.1                      
  A1                   80.                       
 

 GradGradGradGradGradGradGradGradGradGradGradGradGradGradGradGradGradGrad
 Berny optimization.
 Initialization pass.
                           ----------------------------
                           !    Initial Parameters    !
                           ! (Angstroms and Degrees)  !
 --------------------------                            --------------------------
 ! Name  Definition              Value          Derivative Info.                !
 --------------------------------------------------------------------------------
 ! R1    R(1,2)                  1.0            calculate D2E/DX2 analytically  !
 ! R2    R(2,3)                  1.1            calculate D2E/DX2 analytically  !
 ! A1    A(1,2,3)               80.0            calculate D2E/DX2 analytically  !
 --------------------------------------------------------------------------------
 Trust Radius=3.00D-01 FncErr=1.00D-07 GrdErr=1.00D-07
 Number of steps in this run=     20 maximum allowed number of steps=    100.
 Search for a saddle point of order  1.
 GradGradGradGradGradGradGradGradGradGradGradGradGradGradGradGradGradGrad

                          Input orientation:                          
 ---------------------------------------------------------------------
 Center     Atomic      Atomic             Coordinates (Angstroms)
 Number     Number       Type             X           Y           Z
 ---------------------------------------------------------------------
      1          7           0        0.000000    0.000000    0.000000
      2          6           0        0.000000    0.000000    1.000000
      3          1           0        1.083289    0.000000    0.808987
 ---------------------------------------------------------------------
                    Distance matrix (angstroms):
                    1          2          3
     1  N    0.000000
     2  C    1.000000   0.000000
     3  H    1.352026   1.100000   0.000000
 Stoichiometry    CHN
 Framework group  CS[SG(CHN)]
 Deg. of freedom     3
 Full point group                 CS      NOp   2
 Largest Abelian subgroup         CS      NOp   2
 Largest concise Abelian subgroup C1      NOp   1
                         Standard orientation:                         
 ---------------------------------------------------------------------
 Center     Atomic      Atomic             Coordinates (Angstroms)
 Number     Number       Type             X           Y           Z
 ---------------------------------------------------------------------
      1          7           0        0.077378   -0.486356    0.000000
      2          6           0        0.077378    0.513644    0.000000
      3          1           0       -1.005911    0.322631    0.000000
 ---------------------------------------------------------------------
 Rotational constants (GHZ):    453.5965319     76.5289306     65.4812115
 General basis read from cards:  (5D, 7F)
 AO basis set (Overlap normalization):
 Atom N1       Shell     1 S   6     bf    1 -     1          0.146222760101         -0.919080048643          0.000000000000
      0.5909440000D+04  0.2004000152D-02
      0.8874510000D+03  0.1531000116D-01
      0.2047490000D+03  0.7429300562D-01
      0.5983760000D+02  0.2533640192D+00
      0.1999810000D+02  0.6005760454D+00
      0.2686000000D+01  0.2451110185D+00
 Atom N1       Shell     2 S   1     bf    2 -     2          0.146222760101         -0.919080048643          0.000000000000
      0.7192700000D+01  0.1000000000D+01
 Atom N1       Shell     3 S   1     bf    3 -     3          0.146222760101         -0.919080048643          0.000000000000
      0.7000000000D+00  0.1000000000D+01
 Atom N1       Shell     4 S   1     bf    4 -     4          0.146222760101         -0.919080048643          0.000000000000
      0.2133000000D+00  0.1000000000D+01
 Atom N1       Shell     5 P   4     bf    5 -     7          0.146222760101         -0.919080048643          0.000000000000
      0.2678600000D+02  0.1825699251D-01
      0.5956400000D+01  0.1164069523D+00
      0.1707400000D+01  0.3901108400D+00
      0.5314000000D+00  0.6372207387D+00
 Atom N1       Shell     6 P   1     bf    8 -    10          0.146222760101         -0.919080048643          0.000000000000
      0.1654000000D+00  0.1000000000D+01
 Atom N1       Shell     7 P   1     bf   11 -    13          0.146222760101         -0.919080048643          0.000000000000
      0.4800000000D-01  0.1000000000D+01
 Atom N1       Shell     8 D   1     bf   14 -    18          0.146222760101         -0.919080048643          0.000000000000
      0.8000000000D+00  0.1000000000D+01
 Atom C2       Shell     9 S   6     bf   19 -    19          0.146222760101          0.970646084242          0.000000000000
      0.4232610000D+04  0.2029000503D-02
      0.6348820000D+03  0.1553500385D-01
      0.1460970000D+03  0.7541101870D-01
      0.4249740000D+02  0.2571210638D+00
      0.1418920000D+02  0.5965551480D+00
      0.1966600000D+01  0.2425170602D+00
 Atom C2       Shell    10 S   1     bf   20 -    20          0.146222760101          0.970646084242          0.000000000000
      0.5147700000D+01  0.1000000000D+01
 Atom C2       Shell    11 S   1     bf   21 -    21          0.146222760101          0.970646084242          0.000000000000
      0.4962000000D+00  0.1000000000D+01
 Atom C2       Shell    12 S   1     bf   22 -    22          0.146222760101          0.970646084242          0.000000000000
      0.1533000000D+00  0.1000000000D+01
 Atom C2       Shell    13 P   4     bf   23 -    25          0.146222760101          0.970646084242          0.000000000000
      0.1815570000D+02  0.1853400257D-01
      0.3986400000D+01  0.1154420160D+00
      0.1142900000D+01  0.3862060535D+00
      0.3594000000D+00  0.6400890887D+00
 Atom C2       Shell    14 P   1     bf   26 -    28          0.146222760101          0.970646084242          0.000000000000
      0.1146000000D+00  0.1000000000D+01
 Atom C2       Shell    15 P   1     bf   29 -    31          0.146222760101          0.970646084242          0.000000000000
      0.3400000000D-01  0.1000000000D+01
 Atom C2       Shell    16 D   1     bf   32 -    36          0.146222760101          0.970646084242          0.000000000000
      0.7500000000D+00  0.1000000000D+01
 Atom H3       Shell    17 S   3     bf   37 -    37         -1.900895881308          0.609683835051          0.000000000000
      0.1924060000D+02  0.3282807697D-01
      0.2899200000D+01  0.2312085421D+00
      0.6534000000D+00  0.8172399161D+00
 Atom H3       Shell    18 S   1     bf   38 -    38         -1.900895881308          0.609683835051          0.000000000000
      0.1776000000D+00  0.1000000000D+01
 Atom H3       Shell    19 S   1     bf   39 -    39         -1.900895881308          0.609683835051          0.000000000000
      0.4827300000D-01  0.1000000000D+01
 Atom H3       Shell    20 P   1     bf   40 -    42         -1.900895881308          0.609683835051          0.000000000000
      0.1000000000D+01  0.1000000000D+01
 There are    33 symmetry adapted cartesian basis functions of A'  symmetry.
 There are    11 symmetry adapted cartesian basis functions of A"  symmetry.
 There are    31 symmetry adapted basis functions of A'  symmetry.
 There are    11 symmetry adapted basis functions of A"  symmetry.
    42 basis functions,    74 primitive gaussians,    44 cartesian basis functions
     7 alpha electrons        7 beta electrons
       nuclear repulsion energy        27.8516342577 Hartrees.
 NAtoms=    3 NActive=    3 NUniq=    3 SFac= 1.00D+00 NAtFMM=   60 NAOKFM=F Big=F
 Integral buffers will be    131072 words long.
 Raffenetti 1 integral format.
 Two-electron integral symmetry is turned on.
 One-electron integrals computed using PRISM.
 NBasis=    42 RedAO= T EigKep=  1.01D-02  NBF=    31    11
 NBsUse=    42 1.00D-06 EigRej= -1.00D+00 NBFU=    31    11
 ExpMin= 3.40D-02 ExpMax= 5.91D+03 ExpMxC= 8.87D+02 IAcc=3 IRadAn=         5 AccDes= 0.00D+00
 Harris functional with IExCor=  205 and IRadAn=       5 diagonalized for initial guess.
 HarFok:  IExCor=  205 AccDes= 0.00D+00 IRadAn=         5 IDoV= 1 UseB2=F ITyADJ=14
 ICtDFT=  3500011 ScaDFX=  1.000000  1.000000  1.000000  1.000000
 FoFCou: FMM=F IPFlag=           0 FMFlag=      100000 FMFlg1=           0
         NFxFlg=           0 DoJE=T BraDBF=F KetDBF=T FulRan=T
         wScrn=  0.000000 ICntrl=     500 IOpCl=  0 I1Cent=   200000004 NGrid=           0
         NMat0=    1 NMatS0=      1 NMatT0=    0 NMatD0=    1 NMtDS0=    0 NMtDT0=    0
 Petite list used in FoFCou.
 Initial guess orbital symmetries:
       Occupied  (A') (A') (A') (A') (A") (A') (A')
       Virtual   (A') (A") (A') (A') (A") (A') (A') (A') (A") (A')
                 (A') (A') (A") (A') (A') (A") (A') (A') (A') (A")
                 (A') (A') (A") (A') (A") (A') (A') (A") (A') (A")
                 (A') (A') (A') (A') (A')
 The electronic state of the initial guess is 1-A'.
 Keep R1 ints in memory in symmetry-blocked form, NReq=1271824.
 Requested convergence on RMS density matrix=1.00D-08 within 128 cycles.
 Requested convergence on MAX density matrix=1.00D-06.
 Requested convergence on             energy=1.00D-06.
 No special actions if energy rises.
 SCF Done:  E(RHF) =  -92.7169394921     A.U. after   12 cycles
            NFock= 12  Conv=0.62D-08     -V/T= 1.9884
 Range of M.O.s used for correlation:     1    42
 NBasis=    42 NAE=     7 NBE=     7 NFC=     0 NFV=     0
 NROrb=     42 NOA=     7 NOB=     7 NVA=    35 NVB=    35
 Symmetrizing basis deriv contribution to polar:
 IMax=3 JMax=2 DiffMx= 0.00D+00
 G2DrvN: will do     4 centers at a time, making    1 passes.
 Calling FoFCou, ICntrl=  3107 FMM=F I1Cent=   0 AccDes= 0.00D+00.
 End of G2Drv F.D. properties file   721 does not exist.
 End of G2Drv F.D. properties file   722 does not exist.
 End of G2Drv F.D. properties file   788 does not exist.
          IDoAtm=111
          Differentiating once with respect to nuclear coordinates.
 Keep R1 ints in memory in symmetry-blocked form, NReq=1253746.
          There are    12 degrees of freedom in the 1st order CPHF.  IDoFFX=6 NUNeed=     0.
      6 vectors produced by pass  0 Test12= 2.04D-15 8.33D-09 XBig12= 9.39D-02 1.35D-01.
 AX will form     6 AO Fock derivatives at one time.
      6 vectors produced by pass  1 Test12= 2.04D-15 8.33D-09 XBig12= 7.68D-03 2.83D-02.
      6 vectors produced by pass  2 Test12= 2.04D-15 8.33D-09 XBig12= 2.25D-04 4.95D-03.
      6 vectors produced by pass  3 Test12= 2.04D-15 8.33D-09 XBig12= 4.41D-06 7.50D-04.
      6 vectors produced by pass  4 Test12= 2.04D-15 8.33D-09 XBig12= 7.91D-08 7.72D-05.
      6 vectors produced by pass  5 Test12= 2.04D-15 8.33D-09 XBig12= 1.17D-09 9.15D-06.
      6 vectors produced by pass  6 Test12= 2.04D-15 8.33D-09 XBig12= 4.70D-12 7.63D-07.
      4 vectors produced by pass  7 Test12= 2.04D-15 8.33D-09 XBig12= 2.30D-14 5.10D-08.
 InvSVY:  IOpt=1 It=  1 EMax= 6.66D-16
 Solved reduced A of dimension    46 with     6 vectors.
 End of Minotr F.D. properties file   721 does not exist.
 End of Minotr F.D. properties file   722 does not exist.
 End of Minotr F.D. properties file   788 does not exist.

 **********************************************************************

            Population analysis using the SCF density.

 **********************************************************************

 Orbital symmetries:
       Occupied  (A') (A') (A') (A') (A') (A") (A')
       Virtual   (A') (A") (A') (A') (A') (A") (A') (A') (A") (A')
                 (A') (A') (A") (A') (A') (A") (A') (A') (A') (A")
                 (A') (A') (A') (A") (A") (A') (A") (A') (A') (A")
                 (A') (A') (A') (A') (A')
 The electronic state is 1-A'.
 Alpha  occ. eigenvalues --  -15.62169 -11.25936  -1.39971  -0.73665  -0.63632
 Alpha  occ. eigenvalues --   -0.59680  -0.50355
 Alpha virt. eigenvalues --    0.06655   0.07816   0.08518   0.09899   0.13943
 Alpha virt. eigenvalues --    0.16388   0.16489   0.19829   0.25601   0.32848
 Alpha virt. eigenvalues --    0.42172   0.54906   0.60000   0.66983   0.86246
 Alpha virt. eigenvalues --    0.88820   0.89124   1.18808   1.36076   1.46076
 Alpha virt. eigenvalues --    1.56905   1.78646   1.91098   1.91956   2.21595
 Alpha virt. eigenvalues --    2.28947   2.51682   2.58286   2.81674   3.03008
 Alpha virt. eigenvalues --    3.03616   3.38855   3.65667  24.12734  33.31706
          Condensed to atoms (all electrons):
               1          2          3
     1  N    6.238470   0.741385   0.068164
     2  C    0.741385   5.169751   0.267252
     3  H    0.068164   0.267252   0.438176
 Mulliken charges:
               1
     1  N   -0.048019
     2  C   -0.178389
     3  H    0.226408
 Sum of Mulliken charges =   0.00000
 Mulliken charges with hydrogens summed into heavy atoms:
               1
     1  N   -0.048019
     2  C    0.048019
 APT charges:
               1
     1  N   -0.160757
     2  C   -0.160183
     3  H    0.320940
 Sum of APT charges =   0.00000
 APT charges with hydrogens summed into heavy atoms:
               1
     1  N   -0.160757
     2  C    0.160757
 Electronic spatial extent (au):  <R**2>=             41.7335
 Charge=              0.0000 electrons
 Dipole moment (field-independent basis, Debye):
    X=             -1.5862    Y=              0.1346    Z=              0.0000  Tot=              1.5919
 Quadrupole moment (field-independent basis, Debye-Ang):
   XX=             -9.2386   YY=            -14.0488   ZZ=            -11.5551
   XY=             -0.5028   XZ=              0.0000   YZ=              0.0000
 Traceless Quadrupole moment (field-independent basis, Debye-Ang):
   XX=              2.3755   YY=             -2.4346   ZZ=              0.0591
   XY=             -0.5028   XZ=              0.0000   YZ=              0.0000
 Octapole moment (field-independent basis, Debye-Ang**2):
  XXX=             -3.0026  YYY=             -2.7500  ZZZ=              0.0000  XYY=             -0.4299
  XXY=             -0.3502  XXZ=              0.0000  XZZ=             -0.3970  YZZ=             -0.5498
  YYZ=              0.0000  XYZ=              0.0000
 Hexadecapole moment (field-independent basis, Debye-Ang**3):
 XXXX=            -12.3719 YYYY=            -36.6162 ZZZZ=            -11.3600 XXXY=             -0.2678
 XXXZ=              0.0000 YYYX=              0.4108 YYYZ=              0.0000 ZZZX=              0.0000
 ZZZY=              0.0000 XXYY=             -7.9474 XXZZ=             -4.3612 YYZZ=             -7.5104
 XXYZ=              0.0000 YYXZ=              0.0000 ZZXY=              0.1439
 N-N= 2.785163425768D+01 E-N=-2.734338159795D+02  KE= 9.380486504825D+01
 Symmetry A'   KE= 9.080898264207D+01
 Symmetry A"   KE= 2.995882406179D+00
  Exact polarizability:   0.000   0.000   0.000   0.000   0.000   0.000
 Approx polarizability:  12.014   0.354  15.199   0.000   0.000   9.267
 Calling FoFJK, ICntrl=    100147 FMM=F ISym2X=1 I1Cent= 0 IOpClX= 0 NMat=1 NMatS=1 NMatT=0.
 ***** Axes restored to original set *****
 -------------------------------------------------------------------
 Center     Atomic                   Forces (Hartrees/Bohr)
 Number     Number              X              Y              Z
 -------------------------------------------------------------------
      1        7          -0.016094215    0.000000000   -0.708159167
      2        6          -0.009680397    0.000000000    0.697847121
      3        1           0.025774613    0.000000000    0.010312046
 -------------------------------------------------------------------
 Cartesian Forces:  Max     0.708159167 RMS     0.331596041
 FormGI is forming the generalized inverse of G from B-inverse, IUseBI=4.

 GradGradGradGradGradGradGradGradGradGradGradGradGradGradGradGradGradGrad
 Berny optimization.
 Internal  Forces:  Max     0.708159169 RMS     0.409459399
 Search for a saddle point.
 Step number   1 out of a maximum of   20
 All quantities printed in internal units (Hartrees-Bohrs-Radians)
 Swapping is turned off.
 Second derivative matrix not updated -- analytic derivatives used.
 The second derivative matrix:
                          R1        R2        A1
           R1           3.48219
           R2          -0.03041   0.38723
           A1           0.06240   0.11426  -0.17963
 ITU=  0
     Eigenvalues ---   -0.20302   0.40929   3.48351
 Eigenvectors required to have negative eigenvalues:
                          A1        R2        R1
   1                    0.98144  -0.19093  -0.01819
 RFO step:  Lambda0=7.620101849D-04 Lambda=-1.40438537D-01.
 Linear search not attempted -- option 19 set.
 Iteration  1 RMS(Cart)=  0.08362690 RMS(Int)=  0.00138636
 Iteration  2 RMS(Cart)=  0.00172442 RMS(Int)=  0.00000094
 Iteration  3 RMS(Cart)=  0.00000062 RMS(Int)=  0.00000000
 ClnCor:  largest displacement from symmetrization is 2.22D-16 for atom     2.
 Variable       Old X    -DE/DX   Delta X   Delta X   Delta X     New X
                                 (Linear)    (Quad)   (Total)
    R1        1.88973   0.70816   0.00000   0.19688   0.19688   2.08661
    R2        2.07870   0.02359   0.00000   0.06898   0.06898   2.14768
    A1        1.39626   0.03041   0.00000  -0.04524  -0.04524   1.35102
         Item               Value     Threshold  Converged?
 Maximum Force            0.708159     0.000015     NO 
 RMS     Force            0.409459     0.000010     NO 
 Maximum Displacement     0.099761     0.000060     NO 
 RMS     Displacement     0.083340     0.000040     NO 
 Predicted change in Energy=-7.277400D-02
 GradGradGradGradGradGradGradGradGradGradGradGradGradGradGradGradGradGrad

                          Input orientation:                          
 ---------------------------------------------------------------------
 Center     Atomic      Atomic             Coordinates (Angstroms)
 Number     Number       Type             X           Y           Z
 ---------------------------------------------------------------------
      1          7           0       -0.004619    0.000000   -0.052791
      2          6           0       -0.011377    0.000000    1.051375
      3          1           0        1.099284    0.000000    0.810403
 ---------------------------------------------------------------------
                    Distance matrix (angstroms):
                    1          2          3
     1  N    0.000000
     2  C    1.104186   0.000000
     3  H    1.401323   1.136502   0.000000
 Stoichiometry    CHN
 Framework group  CS[SG(CHN)]
 Deg. of freedom     3
 Full point group                 CS      NOp   2
 Largest Abelian subgroup         CS      NOp   2
 Largest concise Abelian subgroup C1      NOp   1
                         Standard orientation:                         
 ---------------------------------------------------------------------
 Center     Atomic      Atomic             Coordinates (Angstroms)
 Number     Number       Type             X           Y           Z
 ---------------------------------------------------------------------
      1          7           0        0.079226   -0.534396    0.000000
      2          6           0        0.079226    0.569791    0.000000
      3          1           0       -1.029940    0.322026    0.000000
 ---------------------------------------------------------------------
 Rotational constants (GHZ):    430.7727236     63.0460201     54.9969116
 Basis read from rwf:  (5D, 7F)
 There are    33 symmetry adapted cartesian basis functions of A'  symmetry.
 There are    11 symmetry adapted cartesian basis functions of A"  symmetry.
 There are    31 symmetry adapted basis functions of A'  symmetry.
 There are    11 symmetry adapted basis functions of A"  symmetry.
    42 basis functions,    74 primitive gaussians,    44 cartesian basis functions
     7 alpha electrons        7 beta electrons
       nuclear repulsion energy        25.5654468987 Hartrees.
 NAtoms=    3 NActive=    3 NUniq=    3 SFac= 1.00D+00 NAtFMM=   60 NAOKFM=F Big=F
 Integral buffers will be    131072 words long.
 Raffenetti 1 integral format.
 Two-electron integral symmetry is turned on.
 One-electron integrals computed using PRISM.
 NBasis=    42 RedAO= T EigKep=  1.23D-02  NBF=    31    11
 NBsUse=    42 1.00D-06 EigRej= -1.00D+00 NBFU=    31    11
 Initial guess from the checkpoint file:  "/home/epktb/ts-dzp-HNC.chk"
 B after Tr=     0.000000    0.000000    0.000000
         Rot=    1.000000    0.000000    0.000000   -0.000939 Ang=  -0.11 deg.
 Initial guess orbital symmetries:
       Occupied  (A') (A') (A') (A') (A') (A") (A')
       Virtual   (A') (A') (A') (A') (A') (A') (A') (A') (A') (A')
                 (A') (A') (A') (A') (A') (A') (A') (A') (A') (A')
                 (A') (A') (A') (A') (A') (A") (A") (A") (A") (A")
                 (A") (A") (A") (A") (A")
 ExpMin= 3.40D-02 ExpMax= 5.91D+03 ExpMxC= 8.87D+02 IAcc=3 IRadAn=         5 AccDes= 0.00D+00
 Harris functional with IExCor=  205 and IRadAn=       5 diagonalized for initial guess.
 HarFok:  IExCor=  205 AccDes= 0.00D+00 IRadAn=         5 IDoV= 1 UseB2=F ITyADJ=14
 ICtDFT=  3500011 ScaDFX=  1.000000  1.000000  1.000000  1.000000
 FoFCou: FMM=F IPFlag=           0 FMFlag=      100000 FMFlg1=           0
         NFxFlg=           0 DoJE=T BraDBF=F KetDBF=T FulRan=T
         wScrn=  0.000000 ICntrl=     500 IOpCl=  0 I1Cent=   200000004 NGrid=           0
         NMat0=    1 NMatS0=      1 NMatT0=    0 NMatD0=    1 NMtDS0=    0 NMtDT0=    0
 Petite list used in FoFCou.
 Keep R1 ints in memory in symmetry-blocked form, NReq=1271754.
 Requested convergence on RMS density matrix=1.00D-08 within 128 cycles.
 Requested convergence on MAX density matrix=1.00D-06.
 Requested convergence on             energy=1.00D-06.
 No special actions if energy rises.
 SCF Done:  E(RHF) =  -92.8014192254     A.U. after   13 cycles
            NFock= 13  Conv=0.76D-08     -V/T= 1.9973
 Calling FoFJK, ICntrl=      2127 FMM=F ISym2X=1 I1Cent= 0 IOpClX= 0 NMat=1 NMatS=1 NMatT=0.
 ***** Axes restored to original set *****
 -------------------------------------------------------------------
 Center     Atomic                   Forces (Hartrees/Bohr)
 Number     Number              X              Y              Z
 -------------------------------------------------------------------
      1        7          -0.000896373    0.000000000   -0.198038491
      2        6          -0.009231039    0.000000000    0.198139544
      3        1           0.010127412    0.000000000   -0.000101054
 -------------------------------------------------------------------
 Cartesian Forces:  Max     0.198139544 RMS     0.093492194

 GradGradGradGradGradGradGradGradGradGradGradGradGradGradGradGradGradGrad
 Berny optimization.
 FormGI is forming the generalized inverse of G from B-inverse, IUseBI=4.
 Internal  Forces:  Max     0.198029297 RMS     0.114503766
 Search for a saddle point.
 Step number   2 out of a maximum of   20
 All quantities printed in internal units (Hartrees-Bohrs-Radians)
 Swapping is turned off.
 Update second derivatives using D2CorX and points    1    2
 The second derivative matrix:
                          R1        R2        A1
           R1           2.61953
           R2          -0.04543   0.39771
           A1           0.05482   0.10643  -0.17418
 ITU=  0  0
     Eigenvalues ---   -0.19472   0.41632   2.62145
 Eigenvectors required to have negative eigenvalues:
                          A1        R2        R1
   1                    0.98371  -0.17842  -0.02204
 RFO step:  Lambda0=1.675978219D-05 Lambda=-1.52788624D-02.
 Linear search not attempted -- option 19 set.
 Iteration  1 RMS(Cart)=  0.04224068 RMS(Int)=  0.00032619
 Iteration  2 RMS(Cart)=  0.00040631 RMS(Int)=  0.00000007
 Iteration  3 RMS(Cart)=  0.00000006 RMS(Int)=  0.00000000
 ClnCor:  largest displacement from symmetrization is 9.16D-16 for atom     3.
 Variable       Old X    -DE/DX   Delta X   Delta X   Delta X     New X
                                 (Linear)    (Quad)   (Total)
    R1        2.08661   0.19803   0.00000   0.07530   0.07530   2.16191
    R2        2.14768   0.00992   0.00000   0.02806   0.02806   2.17574
    A1        1.35102   0.00440   0.00000   0.01621   0.01621   1.36723
         Item               Value     Threshold  Converged?
 Maximum Force            0.198029     0.000015     NO 
 RMS     Force            0.114504     0.000010     NO 
 Maximum Displacement     0.049480     0.000060     NO 
 RMS     Displacement     0.042471     0.000040     NO 
 Predicted change in Energy=-7.681735D-03
 GradGradGradGradGradGradGradGradGradGradGradGradGradGradGradGradGradGrad

                          Input orientation:                          
 ---------------------------------------------------------------------
 Center     Atomic      Atomic             Coordinates (Angstroms)
 Number     Number       Type             X           Y           Z
 ---------------------------------------------------------------------
      1          7           0       -0.020420    0.000000   -0.078975
      2          6           0       -0.010953    0.000000    1.065022
      3          1           0        1.114662    0.000000    0.822940
 ---------------------------------------------------------------------
                    Distance matrix (angstroms):
                    1          2          3
     1  N    0.000000
     2  C    1.144036   0.000000
     3  H    1.449780   1.151352   0.000000
 Stoichiometry    CHN
 Framework group  CS[SG(CHN)]
 Deg. of freedom     3
 Full point group                 CS      NOp   2
 Largest Abelian subgroup         CS      NOp   2
 Largest concise Abelian subgroup C1      NOp   1
                         Standard orientation:                         
 ---------------------------------------------------------------------
 Center     Atomic      Atomic             Coordinates (Angstroms)
 Number     Number       Type             X           Y           Z
 ---------------------------------------------------------------------
      1          7           0        0.080541   -0.555392    0.000000
      2          6           0        0.080541    0.588643    0.000000
      3          1           0       -1.047038    0.355885    0.000000
 ---------------------------------------------------------------------
 Rotational constants (GHZ):    417.7453259     58.6001763     51.3911638
 Basis read from rwf:  (5D, 7F)
 There are    33 symmetry adapted cartesian basis functions of A'  symmetry.
 There are    11 symmetry adapted cartesian basis functions of A"  symmetry.
 There are    31 symmetry adapted basis functions of A'  symmetry.
 There are    11 symmetry adapted basis functions of A"  symmetry.
    42 basis functions,    74 primitive gaussians,    44 cartesian basis functions
     7 alpha electrons        7 beta electrons
       nuclear repulsion energy        24.7399481054 Hartrees.
 NAtoms=    3 NActive=    3 NUniq=    3 SFac= 1.00D+00 NAtFMM=   60 NAOKFM=F Big=F
 Integral buffers will be    131072 words long.
 Raffenetti 1 integral format.
 Two-electron integral symmetry is turned on.
 One-electron integrals computed using PRISM.
 NBasis=    42 RedAO= T EigKep=  1.32D-02  NBF=    31    11
 NBsUse=    42 1.00D-06 EigRej= -1.00D+00 NBFU=    31    11
 Initial guess from the checkpoint file:  "/home/epktb/ts-dzp-HNC.chk"
 B after Tr=     0.000000    0.000000    0.000000
         Rot=    0.999996    0.000000    0.000000    0.002947 Ang=   0.34 deg.
 Initial guess orbital symmetries:
       Occupied  (A') (A') (A') (A') (A') (A") (A')
       Virtual   (A') (A') (A') (A') (A') (A') (A') (A') (A') (A')
                 (A') (A') (A') (A') (A') (A') (A') (A') (A') (A')
                 (A') (A') (A') (A') (A') (A") (A") (A") (A") (A")
                 (A") (A") (A") (A") (A")
 ExpMin= 3.40D-02 ExpMax= 5.91D+03 ExpMxC= 8.87D+02 IAcc=3 IRadAn=         5 AccDes= 0.00D+00
 Harris functional with IExCor=  205 and IRadAn=       5 diagonalized for initial guess.
 HarFok:  IExCor=  205 AccDes= 0.00D+00 IRadAn=         5 IDoV= 1 UseB2=F ITyADJ=14
 ICtDFT=  3500011 ScaDFX=  1.000000  1.000000  1.000000  1.000000
 FoFCou: FMM=F IPFlag=           0 FMFlag=      100000 FMFlg1=           0
         NFxFlg=           0 DoJE=T BraDBF=F KetDBF=T FulRan=T
         wScrn=  0.000000 ICntrl=     500 IOpCl=  0 I1Cent=   200000004 NGrid=           0
         NMat0=    1 NMatS0=      1 NMatT0=    0 NMatD0=    1 NMtDS0=    0 NMtDT0=    0
 Petite list used in FoFCou.
 Keep R1 ints in memory in symmetry-blocked form, NReq=1271740.
 Requested convergence on RMS density matrix=1.00D-08 within 128 cycles.
 Requested convergence on MAX density matrix=1.00D-06.
 Requested convergence on             energy=1.00D-06.
 No special actions if energy rises.
 SCF Done:  E(RHF) =  -92.8115915653     A.U. after   12 cycles
            NFock= 12  Conv=0.21D-08     -V/T= 1.9999
 Calling FoFJK, ICntrl=      2127 FMM=F ISym2X=1 I1Cent= 0 IOpClX= 0 NMat=1 NMatS=1 NMatT=0.
 ***** Axes restored to original set *****
 -------------------------------------------------------------------
 Center     Atomic                   Forces (Hartrees/Bohr)
 Number     Number              X              Y              Z
 -------------------------------------------------------------------
      1        7          -0.001244604    0.000000000   -0.072171274
      2        6           0.000271293    0.000000000    0.071722721
      3        1           0.000973311    0.000000000    0.000448553
 -------------------------------------------------------------------
 Cartesian Forces:  Max     0.072171274 RMS     0.033920844

 GradGradGradGradGradGradGradGradGradGradGradGradGradGradGradGradGradGrad
 Berny optimization.
 FormGI is forming the generalized inverse of G from B-inverse, IUseBI=4.
 Internal  Forces:  Max     0.072179103 RMS     0.041683394
 Search for a saddle point.
 Step number   3 out of a maximum of   20
 All quantities printed in internal units (Hartrees-Bohrs-Radians)
 Swapping is turned off.
 Update second derivatives using D2CorX and points    1    2    3
 The second derivative matrix:
                          R1        R2        A1
           R1           1.68454
           R2          -0.05631   0.41029
           A1           0.03563   0.11032  -0.17142
 ITU=  0  0  0
     Eigenvalues ---   -0.19273   0.42860   1.68753
 Eigenvectors required to have negative eigenvalues:
                          A1        R2        R1
   1                   -0.98299   0.18209   0.02412
 RFO step:  Lambda0=1.409594587D-06 Lambda=-3.10926808D-03.
 Linear search not attempted -- option 19 set.
 Iteration  1 RMS(Cart)=  0.02093601 RMS(Int)=  0.00007919
 Iteration  2 RMS(Cart)=  0.00010235 RMS(Int)=  0.00000000
 Iteration  3 RMS(Cart)=  0.00000000 RMS(Int)=  0.00000000
 ClnCor:  largest displacement from symmetrization is 9.16D-16 for atom     3.
 Variable       Old X    -DE/DX   Delta X   Delta X   Delta X     New X
                                 (Linear)    (Quad)   (Total)
    R1        2.16191   0.07218   0.00000   0.04288   0.04288   2.20480
    R2        2.17574   0.00086   0.00000   0.00657   0.00657   2.18231
    A1        1.36723   0.00140   0.00000   0.00502   0.00502   1.37225
         Item               Value     Threshold  Converged?
 Maximum Force            0.072179     0.000015     NO 
 RMS     Force            0.041683     0.000010     NO 
 Maximum Displacement     0.026577     0.000060     NO 
 RMS     Displacement     0.020987     0.000040     NO 
 Predicted change in Energy=-1.556883D-03
 GradGradGradGradGradGradGradGradGradGradGradGradGradGradGradGradGradGrad

                          Input orientation:                          
 ---------------------------------------------------------------------
 Center     Atomic      Atomic             Coordinates (Angstroms)
 Number     Number       Type             X           Y           Z
 ---------------------------------------------------------------------
      1          7           0       -0.026982    0.000000   -0.093039
      2          6           0       -0.009127    0.000000    1.073553
      3          1           0        1.119397    0.000000    0.828473
 ---------------------------------------------------------------------
                    Distance matrix (angstroms):
                    1          2          3
     1  N    0.000000
     2  C    1.166728   0.000000
     3  H    1.470840   1.154829   0.000000
 Stoichiometry    CHN
 Framework group  CS[SG(CHN)]
 Deg. of freedom     3
 Full point group                 CS      NOp   2
 Largest Abelian subgroup         CS      NOp   2
 Largest concise Abelian subgroup C1      NOp   1
                         Standard orientation:                         
 ---------------------------------------------------------------------
 Center     Atomic      Atomic             Coordinates (Angstroms)
 Number     Number       Type             X           Y           Z
 ---------------------------------------------------------------------
      1          7           0        0.080867   -0.567094    0.000000
      2          6           0        0.080867    0.599634    0.000000
      3          1           0       -1.051275    0.371854    0.000000
 ---------------------------------------------------------------------
 Rotational constants (GHZ):    414.7377521     56.2948661     49.5668566
 Basis read from rwf:  (5D, 7F)
 There are    33 symmetry adapted cartesian basis functions of A'  symmetry.
 There are    11 symmetry adapted cartesian basis functions of A"  symmetry.
 There are    31 symmetry adapted basis functions of A'  symmetry.
 There are    11 symmetry adapted basis functions of A"  symmetry.
    42 basis functions,    74 primitive gaussians,    44 cartesian basis functions
     7 alpha electrons        7 beta electrons
       nuclear repulsion energy        24.3172105195 Hartrees.
 NAtoms=    3 NActive=    3 NUniq=    3 SFac= 1.00D+00 NAtFMM=   60 NAOKFM=F Big=F
 Integral buffers will be    131072 words long.
 Raffenetti 1 integral format.
 Two-electron integral symmetry is turned on.
 One-electron integrals computed using PRISM.
 NBasis=    42 RedAO= T EigKep=  1.37D-02  NBF=    31    11
 NBsUse=    42 1.00D-06 EigRej= -1.00D+00 NBFU=    31    11
 Initial guess from the checkpoint file:  "/home/epktb/ts-dzp-HNC.chk"
 B after Tr=     0.000000    0.000000    0.000000
         Rot=    0.999999    0.000000    0.000000    0.001452 Ang=   0.17 deg.
 Initial guess orbital symmetries:
       Occupied  (A') (A') (A') (A') (A') (A") (A')
       Virtual   (A') (A') (A') (A') (A') (A') (A') (A') (A') (A')
                 (A') (A') (A') (A') (A') (A') (A') (A') (A') (A')
                 (A') (A') (A') (A') (A') (A") (A") (A") (A") (A")
                 (A") (A") (A") (A") (A")
 ExpMin= 3.40D-02 ExpMax= 5.91D+03 ExpMxC= 8.87D+02 IAcc=3 IRadAn=         5 AccDes= 0.00D+00
 Harris functional with IExCor=  205 and IRadAn=       5 diagonalized for initial guess.
 HarFok:  IExCor=  205 AccDes= 0.00D+00 IRadAn=         5 IDoV= 1 UseB2=F ITyADJ=14
 ICtDFT=  3500011 ScaDFX=  1.000000  1.000000  1.000000  1.000000
 FoFCou: FMM=F IPFlag=           0 FMFlag=      100000 FMFlg1=           0
         NFxFlg=           0 DoJE=T BraDBF=F KetDBF=T FulRan=T
         wScrn=  0.000000 ICntrl=     500 IOpCl=  0 I1Cent=   200000004 NGrid=           0
         NMat0=    1 NMatS0=      1 NMatT0=    0 NMatD0=    1 NMtDS0=    0 NMtDT0=    0
 Petite list used in FoFCou.
 Keep R1 ints in memory in symmetry-blocked form, NReq=1271726.
 Requested convergence on RMS density matrix=1.00D-08 within 128 cycles.
 Requested convergence on MAX density matrix=1.00D-06.
 Requested convergence on             energy=1.00D-06.
 No special actions if energy rises.
 SCF Done:  E(RHF) =  -92.8134027542     A.U. after   11 cycles
            NFock= 11  Conv=0.73D-08     -V/T= 2.0011
 Calling FoFJK, ICntrl=      2127 FMM=F ISym2X=1 I1Cent= 0 IOpClX= 0 NMat=1 NMatS=1 NMatT=0.
 ***** Axes restored to original set *****
 -------------------------------------------------------------------
 Center     Atomic                   Forces (Hartrees/Bohr)
 Number     Number              X              Y              Z
 -------------------------------------------------------------------
      1        7          -0.000396958    0.000000000   -0.013533026
      2        6           0.001210264    0.000000000    0.013160170
      3        1          -0.000813306    0.000000000    0.000372855
 -------------------------------------------------------------------
 Cartesian Forces:  Max     0.013533026 RMS     0.006313616

 GradGradGradGradGradGradGradGradGradGradGradGradGradGradGradGradGradGrad
 Berny optimization.
 FormGI is forming the generalized inverse of G from B-inverse, IUseBI=4.
 Internal  Forces:  Max     0.013537515 RMS     0.007835882
 Search for a saddle point.
 Step number   4 out of a maximum of   20
 All quantities printed in internal units (Hartrees-Bohrs-Radians)
 Swapping is turned off.
 Update second derivatives using D2CorX and points    1    2    3    4
 The second derivative matrix:
                          R1        R2        A1
           R1           1.37005
           R2          -0.03592   0.41024
           A1           0.02528   0.11472  -0.17071
 ITU=  0  0  0  0
     Eigenvalues ---   -0.19318   0.43108   1.37168
 Eigenvectors required to have negative eigenvalues:
                          A1        R2        R1
   1                   -0.98198   0.18790   0.02020
 RFO step:  Lambda0=4.711984856D-07 Lambda=-1.34393663D-04.
 Linear search not attempted -- option 19 set.
 Iteration  1 RMS(Cart)=  0.00411042 RMS(Int)=  0.00000337
 Iteration  2 RMS(Cart)=  0.00000265 RMS(Int)=  0.00000000
 Iteration  3 RMS(Cart)=  0.00000000 RMS(Int)=  0.00000000
 ClnCor:  largest displacement from symmetrization is 1.83D-15 for atom     3.
 Variable       Old X    -DE/DX   Delta X   Delta X   Delta X     New X
                                 (Linear)    (Quad)   (Total)
    R1        2.20480   0.01354   0.00000   0.00989   0.00989   2.21468
    R2        2.18231  -0.00087   0.00000  -0.00083  -0.00083   2.18148
    A1        1.37225   0.00042   0.00000  -0.00155  -0.00155   1.37071
         Item               Value     Threshold  Converged?
 Maximum Force            0.013538     0.000015     NO 
 RMS     Force            0.007836     0.000010     NO 
 Maximum Displacement     0.005141     0.000060     NO 
 RMS     Displacement     0.004111     0.000040     NO 
 Predicted change in Energy=-6.696784D-05
 GradGradGradGradGradGradGradGradGradGradGradGradGradGradGradGradGradGrad

                          Input orientation:                          
 ---------------------------------------------------------------------
 Center     Atomic      Atomic             Coordinates (Angstroms)
 Number     Number       Type             X           Y           Z
 ---------------------------------------------------------------------
      1          7           0       -0.027156    0.000000   -0.095759
      2          6           0       -0.008566    0.000000    1.076053
      3          1           0        1.119010    0.000000    0.828693
 ---------------------------------------------------------------------
                    Distance matrix (angstroms):
                    1          2          3
     1  N    0.000000
     2  C    1.171960   0.000000
     3  H    1.472518   1.154389   0.000000
 Stoichiometry    CHN
 Framework group  CS[SG(CHN)]
 Deg. of freedom     3
 Full point group                 CS      NOp   2
 Largest Abelian subgroup         CS      NOp   2
 Largest concise Abelian subgroup C1      NOp   1
                         Standard orientation:                         
 ---------------------------------------------------------------------
 Center     Atomic      Atomic             Coordinates (Angstroms)
 Number     Number       Type             X           Y           Z
 ---------------------------------------------------------------------
      1          7           0        0.080811   -0.569591    0.000000
      2          6           0        0.080811    0.602369    0.000000
      3          1           0       -1.050546    0.372926    0.000000
 ---------------------------------------------------------------------
 Rotational constants (GHZ):    415.2731460     55.7987723     49.1893718
 Basis read from rwf:  (5D, 7F)
 There are    33 symmetry adapted cartesian basis functions of A'  symmetry.
 There are    11 symmetry adapted cartesian basis functions of A"  symmetry.
 There are    31 symmetry adapted basis functions of A'  symmetry.
 There are    11 symmetry adapted basis functions of A"  symmetry.
    42 basis functions,    74 primitive gaussians,    44 cartesian basis functions
     7 alpha electrons        7 beta electrons
       nuclear repulsion energy        24.2303487285 Hartrees.
 NAtoms=    3 NActive=    3 NUniq=    3 SFac= 1.00D+00 NAtFMM=   60 NAOKFM=F Big=F
 Integral buffers will be    131072 words long.
 Raffenetti 1 integral format.
 Two-electron integral symmetry is turned on.
 One-electron integrals computed using PRISM.
 NBasis=    42 RedAO= T EigKep=  1.38D-02  NBF=    31    11
 NBsUse=    42 1.00D-06 EigRej= -1.00D+00 NBFU=    31    11
 Initial guess from the checkpoint file:  "/home/epktb/ts-dzp-HNC.chk"
 B after Tr=     0.000000    0.000000    0.000000
         Rot=    1.000000    0.000000    0.000000    0.000131 Ang=   0.01 deg.
 Initial guess orbital symmetries:
       Occupied  (A') (A') (A') (A') (A') (A") (A')
       Virtual   (A') (A') (A') (A') (A') (A') (A') (A') (A') (A')
                 (A') (A') (A') (A') (A') (A') (A') (A') (A') (A')
                 (A') (A') (A') (A') (A') (A") (A") (A") (A") (A")
                 (A") (A") (A") (A") (A")
 Keep R1 ints in memory in symmetry-blocked form, NReq=1271726.
 Requested convergence on RMS density matrix=1.00D-08 within 128 cycles.
 Requested convergence on MAX density matrix=1.00D-06.
 Requested convergence on             energy=1.00D-06.
 No special actions if energy rises.
 SCF Done:  E(RHF) =  -92.8134755653     A.U. after   11 cycles
            NFock= 11  Conv=0.20D-08     -V/T= 2.0013
 Calling FoFJK, ICntrl=      2127 FMM=F ISym2X=1 I1Cent= 0 IOpClX= 0 NMat=1 NMatS=1 NMatT=0.
 ***** Axes restored to original set *****
 -------------------------------------------------------------------
 Center     Atomic                   Forces (Hartrees/Bohr)
 Number     Number              X              Y              Z
 -------------------------------------------------------------------
      1        7          -0.000036737    0.000000000   -0.001236189
      2        6           0.000304747    0.000000000    0.001159597
      3        1          -0.000268011    0.000000000    0.000076592
 -------------------------------------------------------------------
 Cartesian Forces:  Max     0.001236189 RMS     0.000581640

 GradGradGradGradGradGradGradGradGradGradGradGradGradGradGradGradGradGrad
 Berny optimization.
 FormGI is forming the generalized inverse of G from B-inverse, IUseBI=4.
 Internal  Forces:  Max     0.001236616 RMS     0.000732132
 Search for a saddle point.
 Step number   5 out of a maximum of   20
 All quantities printed in internal units (Hartrees-Bohrs-Radians)
 Swapping is turned off.
 Update second derivatives using D2CorX and points    2    3    4    5
 The second derivative matrix:
                          R1        R2        A1
           R1           1.24682
           R2          -0.00836   0.40338
           A1           0.02143   0.11486  -0.17089
 ITU=  0  0  0  0
     Eigenvalues ---   -0.19337   0.42548   1.24720
 Eigenvectors required to have negative eigenvalues:
                          A1        R2        R1
   1                   -0.98181   0.18920   0.01571
 RFO step:  Lambda0=2.566471372D-08 Lambda=-1.38981845D-06.
 Linear search not attempted -- option 19 set.
 Iteration  1 RMS(Cart)=  0.00055819 RMS(Int)=  0.00000012
 Iteration  2 RMS(Cart)=  0.00000009 RMS(Int)=  0.00000000
 ClnCor:  largest displacement from symmetrization is 9.93D-16 for atom     3.
 Variable       Old X    -DE/DX   Delta X   Delta X   Delta X     New X
                                 (Linear)    (Quad)   (Total)
    R1        2.21468   0.00124   0.00000   0.00100   0.00100   2.21568
    R2        2.18148  -0.00028   0.00000  -0.00054  -0.00054   2.18094
    A1        1.37071   0.00004   0.00000  -0.00046  -0.00046   1.37025
         Item               Value     Threshold  Converged?
 Maximum Force            0.001237     0.000015     NO 
 RMS     Force            0.000732     0.000010     NO 
 Maximum Displacement     0.000594     0.000060     NO 
 RMS     Displacement     0.000558     0.000040     NO 
 Predicted change in Energy=-6.820769D-07
 GradGradGradGradGradGradGradGradGradGradGradGradGradGradGradGradGradGrad

                          Input orientation:                          
 ---------------------------------------------------------------------
 Center     Atomic      Atomic             Coordinates (Angstroms)
 Number     Number       Type             X           Y           Z
 ---------------------------------------------------------------------
      1          7           0       -0.027005    0.000000   -0.095973
      2          6           0       -0.008449    0.000000    1.076367
      3          1           0        1.118743    0.000000    0.828592
 ---------------------------------------------------------------------
                    Distance matrix (angstroms):
                    1          2          3
     1  N    0.000000
     2  C    1.172487   0.000000
     3  H    1.472264   1.154104   0.000000
 Stoichiometry    CHN
 Framework group  CS[SG(CHN)]
 Deg. of freedom     3
 Full point group                 CS      NOp   2
 Largest Abelian subgroup         CS      NOp   2
 Largest concise Abelian subgroup C1      NOp   1
                         Standard orientation:                         
 ---------------------------------------------------------------------
 Center     Atomic      Atomic             Coordinates (Angstroms)
 Number     Number       Type             X           Y           Z
 ---------------------------------------------------------------------
      1          7           0        0.080784   -0.569822    0.000000
      2          6           0        0.080784    0.602665    0.000000
      3          1           0       -1.050189    0.372760    0.000000
 ---------------------------------------------------------------------
 Rotational constants (GHZ):    415.5387166     55.7508808     49.1558684
 Basis read from rwf:  (5D, 7F)
 There are    33 symmetry adapted cartesian basis functions of A'  symmetry.
 There are    11 symmetry adapted cartesian basis functions of A"  symmetry.
 There are    31 symmetry adapted basis functions of A'  symmetry.
 There are    11 symmetry adapted basis functions of A"  symmetry.
    42 basis functions,    74 primitive gaussians,    44 cartesian basis functions
     7 alpha electrons        7 beta electrons
       nuclear repulsion energy        24.2229359941 Hartrees.
 NAtoms=    3 NActive=    3 NUniq=    3 SFac= 1.00D+00 NAtFMM=   60 NAOKFM=F Big=F
 Integral buffers will be    131072 words long.
 Raffenetti 1 integral format.
 Two-electron integral symmetry is turned on.
 One-electron integrals computed using PRISM.
 NBasis=    42 RedAO= T EigKep=  1.38D-02  NBF=    31    11
 NBsUse=    42 1.00D-06 EigRej= -1.00D+00 NBFU=    31    11
 Initial guess from the checkpoint file:  "/home/epktb/ts-dzp-HNC.chk"
 B after Tr=     0.000000    0.000000    0.000000
         Rot=    1.000000    0.000000    0.000000   -0.000004 Ang=   0.00 deg.
 Initial guess orbital symmetries:
       Occupied  (A') (A') (A') (A') (A') (A") (A')
       Virtual   (A') (A') (A') (A') (A') (A') (A') (A') (A') (A')
                 (A') (A') (A') (A') (A') (A') (A') (A') (A') (A')
                 (A') (A') (A') (A') (A') (A") (A") (A") (A") (A")
                 (A") (A") (A") (A") (A")
 Keep R1 ints in memory in symmetry-blocked form, NReq=1271726.
 Requested convergence on RMS density matrix=1.00D-08 within 128 cycles.
 Requested convergence on MAX density matrix=1.00D-06.
 Requested convergence on             energy=1.00D-06.
 No special actions if energy rises.
 SCF Done:  E(RHF) =  -92.8134762694     A.U. after    9 cycles
            NFock=  9  Conv=0.20D-08     -V/T= 2.0013
 Calling FoFJK, ICntrl=      2127 FMM=F ISym2X=1 I1Cent= 0 IOpClX= 0 NMat=1 NMatS=1 NMatT=0.
 ***** Axes restored to original set *****
 -------------------------------------------------------------------
 Center     Atomic                   Forces (Hartrees/Bohr)
 Number     Number              X              Y              Z
 -------------------------------------------------------------------
      1        7          -0.000001786    0.000000000   -0.000019445
      2        6           0.000050068    0.000000000    0.000007292
      3        1          -0.000048282    0.000000000    0.000012154
 -------------------------------------------------------------------
 Cartesian Forces:  Max     0.000050068 RMS     0.000024541

 GradGradGradGradGradGradGradGradGradGradGradGradGradGradGradGradGradGrad
 Berny optimization.
 FormGI is forming the generalized inverse of G from B-inverse, IUseBI=4.
 Internal  Forces:  Max     0.000049765 RMS     0.000030911
 Search for a saddle point.
 Step number   6 out of a maximum of   20
 All quantities printed in internal units (Hartrees-Bohrs-Radians)
 Swapping is turned off.
 Update second derivatives using D2CorX and points    3    4    5    6
 The second derivative matrix:
                          R1        R2        A1
           R1           1.24124
           R2           0.02187   0.37393
           A1           0.01627   0.10658  -0.16522
 ITU=  0  0  0  0
     Eigenvalues ---   -0.18563   0.39353   1.24204
 Eigenvectors required to have negative eigenvalues:
                          A1        R2        R1
   1                   -0.98237   0.18678   0.00834
 RFO step:  Lambda0=8.221380382D-10 Lambda= 0.00000000D+00.
 Linear search not attempted -- option 19 set.
 Iteration  1 RMS(Cart)=  0.00009384 RMS(Int)=  0.00000000
 Iteration  2 RMS(Cart)=  0.00000000 RMS(Int)=  0.00000000
 ClnCor:  largest displacement from symmetrization is 4.49D-16 for atom     2.
 Variable       Old X    -DE/DX   Delta X   Delta X   Delta X     New X
                                 (Linear)    (Quad)   (Total)
    R1        2.21568   0.00002   0.00000   0.00002   0.00002   2.21570
    R2        2.18094  -0.00005   0.00000  -0.00011  -0.00011   2.18083
    A1        1.37025   0.00000   0.00000  -0.00009  -0.00009   1.37016
         Item               Value     Threshold  Converged?
 Maximum Force            0.000050     0.000015     NO 
 RMS     Force            0.000031     0.000010     NO 
 Maximum Displacement     0.000110     0.000060     NO 
 RMS     Displacement     0.000094     0.000040     NO 
 Predicted change in Energy=-2.750397D-09
 GradGradGradGradGradGradGradGradGradGradGradGradGradGradGradGradGradGrad

                          Input orientation:                          
 ---------------------------------------------------------------------
 Center     Atomic      Atomic             Coordinates (Angstroms)
 Number     Number       Type             X           Y           Z
 ---------------------------------------------------------------------
      1          7           0       -0.026960    0.000000   -0.095961
      2          6           0       -0.008436    0.000000    1.076390
      3          1           0        1.118685    0.000000    0.828558
 ---------------------------------------------------------------------
                    Distance matrix (angstroms):
                    1          2          3
     1  N    0.000000
     2  C    1.172497   0.000000
     3  H    1.472154   1.154046   0.000000
 Stoichiometry    CHN
 Framework group  CS[SG(CHN)]
 Deg. of freedom     3
 Full point group                 CS      NOp   2
 Largest Abelian subgroup         CS      NOp   2
 Largest concise Abelian subgroup C1      NOp   1
                         Standard orientation:                         
 ---------------------------------------------------------------------
 Center     Atomic      Atomic             Coordinates (Angstroms)
 Number     Number       Type             X           Y           Z
 ---------------------------------------------------------------------
      1          7           0        0.080778   -0.569820    0.000000
      2          6           0        0.080778    0.602677    0.000000
      3          1           0       -1.050118    0.372683    0.000000
 ---------------------------------------------------------------------
 Rotational constants (GHZ):    415.5914192     55.7504417     49.1562645
 Basis read from rwf:  (5D, 7F)
 There are    33 symmetry adapted cartesian basis functions of A'  symmetry.
 There are    11 symmetry adapted cartesian basis functions of A"  symmetry.
 There are    31 symmetry adapted basis functions of A'  symmetry.
 There are    11 symmetry adapted basis functions of A"  symmetry.
    42 basis functions,    74 primitive gaussians,    44 cartesian basis functions
     7 alpha electrons        7 beta electrons
       nuclear repulsion energy        24.2230996978 Hartrees.
 NAtoms=    3 NActive=    3 NUniq=    3 SFac= 1.00D+00 NAtFMM=   60 NAOKFM=F Big=F
 Integral buffers will be    131072 words long.
 Raffenetti 1 integral format.
 Two-electron integral symmetry is turned on.
 One-electron integrals computed using PRISM.
 NBasis=    42 RedAO= T EigKep=  1.38D-02  NBF=    31    11
 NBsUse=    42 1.00D-06 EigRej= -1.00D+00 NBFU=    31    11
 Initial guess from the checkpoint file:  "/home/epktb/ts-dzp-HNC.chk"
 B after Tr=     0.000000    0.000000    0.000000
         Rot=    1.000000    0.000000    0.000000   -0.000005 Ang=   0.00 deg.
 Initial guess orbital symmetries:
       Occupied  (A') (A') (A') (A') (A') (A") (A')
       Virtual   (A') (A') (A') (A') (A') (A') (A') (A') (A') (A')
                 (A') (A') (A') (A') (A') (A') (A') (A') (A') (A')
                 (A') (A') (A') (A') (A') (A") (A") (A") (A") (A")
                 (A") (A") (A") (A") (A")
 Keep R1 ints in memory in symmetry-blocked form, NReq=1271726.
 Requested convergence on RMS density matrix=1.00D-08 within 128 cycles.
 Requested convergence on MAX density matrix=1.00D-06.
 Requested convergence on             energy=1.00D-06.
 No special actions if energy rises.
 SCF Done:  E(RHF) =  -92.8134762725     A.U. after    7 cycles
            NFock=  7  Conv=0.60D-08     -V/T= 2.0013
 Calling FoFJK, ICntrl=      2127 FMM=F ISym2X=1 I1Cent= 0 IOpClX= 0 NMat=1 NMatS=1 NMatT=0.
 ***** Axes restored to original set *****
 -------------------------------------------------------------------
 Center     Atomic                   Forces (Hartrees/Bohr)
 Number     Number              X              Y              Z
 -------------------------------------------------------------------
      1        7          -0.000000340    0.000000000    0.000003458
      2        6           0.000007181    0.000000000   -0.000005369
      3        1          -0.000006841    0.000000000    0.000001911
 -------------------------------------------------------------------
 Cartesian Forces:  Max     0.000007181 RMS     0.000003985

 GradGradGradGradGradGradGradGradGradGradGradGradGradGradGradGradGradGrad
 Berny optimization.
 FormGI is forming the generalized inverse of G from B-inverse, IUseBI=4.
 Internal  Forces:  Max     0.000007093 RMS     0.000004582
 Search for a saddle point.
 Step number   7 out of a maximum of   20
 All quantities printed in internal units (Hartrees-Bohrs-Radians)
 Swapping is turned off.
 Update second derivatives using D2CorX and points    4    5    6    7
 The second derivative matrix:
                          R1        R2        A1
           R1           1.24752
           R2           0.00472   0.31635
           A1          -0.00031   0.09369  -0.14299
 ITU=  0  0  0  0
     Eigenvalues ---   -0.16137   0.33470   1.24755
 Eigenvectors required to have negative eigenvalues:
                          A1        R2        R1
   1                   -0.98130   0.19247  -0.00086
 RFO step:  Lambda0=3.042251173D-11 Lambda= 0.00000000D+00.
 Linear search not attempted -- option 19 set.
 Iteration  1 RMS(Cart)=  0.00001788 RMS(Int)=  0.00000000
 Iteration  2 RMS(Cart)=  0.00000000 RMS(Int)=  0.00000000
 ClnCor:  largest displacement from symmetrization is 4.21D-15 for atom     3.
 Variable       Old X    -DE/DX   Delta X   Delta X   Delta X     New X
                                 (Linear)    (Quad)   (Total)
    R1        2.21570   0.00000   0.00000   0.00000   0.00000   2.21570
    R2        2.18083  -0.00001   0.00000  -0.00002  -0.00002   2.18081
    A1        1.37016   0.00000   0.00000  -0.00002  -0.00002   1.37014
         Item               Value     Threshold  Converged?
 Maximum Force            0.000007     0.000015     YES
 RMS     Force            0.000005     0.000010     YES
 Maximum Displacement     0.000020     0.000060     YES
 RMS     Displacement     0.000018     0.000040     YES
 Predicted change in Energy=-5.824300D-11
 Optimization completed.
    -- Stationary point found.
                           ----------------------------
                           !   Optimized Parameters   !
                           ! (Angstroms and Degrees)  !
 --------------------------                            --------------------------
 ! Name  Definition              Value          Derivative Info.                !
 --------------------------------------------------------------------------------
 ! R1    R(1,2)                  1.1725         -DE/DX =    0.0                 !
 ! R2    R(2,3)                  1.154          -DE/DX =    0.0                 !
 ! A1    A(1,2,3)               78.5044         -DE/DX =    0.0                 !
 --------------------------------------------------------------------------------
 GradGradGradGradGradGradGradGradGradGradGradGradGradGradGradGradGradGrad

                          Input orientation:                          
 ---------------------------------------------------------------------
 Center     Atomic      Atomic             Coordinates (Angstroms)
 Number     Number       Type             X           Y           Z
 ---------------------------------------------------------------------
      1          7           0       -0.026960    0.000000   -0.095961
      2          6           0       -0.008436    0.000000    1.076390
      3          1           0        1.118685    0.000000    0.828558
 ---------------------------------------------------------------------
                    Distance matrix (angstroms):
                    1          2          3
     1  N    0.000000
     2  C    1.172497   0.000000
     3  H    1.472154   1.154046   0.000000
 Stoichiometry    CHN
 Framework group  CS[SG(CHN)]
 Deg. of freedom     3
 Full point group                 CS      NOp   2
 Largest Abelian subgroup         CS      NOp   2
 Largest concise Abelian subgroup C1      NOp   1
                         Standard orientation:                         
 ---------------------------------------------------------------------
 Center     Atomic      Atomic             Coordinates (Angstroms)
 Number     Number       Type             X           Y           Z
 ---------------------------------------------------------------------
      1          7           0        0.080778   -0.569820    0.000000
      2          6           0        0.080778    0.602677    0.000000
      3          1           0       -1.050118    0.372683    0.000000
 ---------------------------------------------------------------------
 Rotational constants (GHZ):    415.5914192     55.7504417     49.1562645

 **********************************************************************

            Population analysis using the SCF density.

 **********************************************************************

 Orbital symmetries:
       Occupied  (A') (A') (A') (A') (A') (A") (A')
       Virtual   (A') (A") (A') (A') (A') (A") (A') (A') (A") (A')
                 (A') (A') (A") (A') (A') (A") (A') (A') (A') (A')
                 (A") (A') (A") (A') (A") (A') (A') (A") (A') (A")
                 (A') (A') (A') (A') (A')
 The electronic state is 1-A'.
 Alpha  occ. eigenvalues --  -15.66457 -11.30277  -1.30991  -0.71909  -0.62340
 Alpha  occ. eigenvalues --   -0.53663  -0.49563
 Alpha virt. eigenvalues --    0.06352   0.07769   0.08472   0.09516   0.10472
 Alpha virt. eigenvalues --    0.14803   0.15926   0.18650   0.20763   0.30910
 Alpha virt. eigenvalues --    0.41521   0.54118   0.59159   0.69665   0.85497
 Alpha virt. eigenvalues --    0.86884   0.87352   1.00338   1.24035   1.45984
 Alpha virt. eigenvalues --    1.50102   1.64108   1.75788   1.87903   2.12056
 Alpha virt. eigenvalues --    2.17623   2.44478   2.45597   2.72056   2.81387
 Alpha virt. eigenvalues --    2.85826   3.10364   3.28483  24.00930  33.13792
          Condensed to atoms (all electrons):
               1          2          3
     1  N    6.393875   0.629154   0.061450
     2  C    0.629154   5.208308   0.266476
     3  H    0.061450   0.266476   0.483658
 Mulliken charges:
               1
     1  N   -0.084478
     2  C   -0.103938
     3  H    0.188416
 Sum of Mulliken charges =   0.00000
 Mulliken charges with hydrogens summed into heavy atoms:
               1
     1  N   -0.084478
     2  C    0.084478
 Electronic spatial extent (au):  <R**2>=             47.8950
 Charge=              0.0000 electrons
 Dipole moment (field-independent basis, Debye):
    X=             -1.4867    Y=              0.2007    Z=              0.0000  Tot=              1.5002
 Quadrupole moment (field-independent basis, Debye-Ang):
   XX=             -9.8408   YY=            -14.5516   ZZ=            -12.2720
   XY=             -0.6980   XZ=              0.0000   YZ=              0.0000
 Traceless Quadrupole moment (field-independent basis, Debye-Ang):
   XX=              2.3807   YY=             -2.3301   ZZ=             -0.0506
   XY=             -0.6980   XZ=              0.0000   YZ=              0.0000
 Octapole moment (field-independent basis, Debye-Ang**2):
  XXX=             -2.9620  YYY=             -3.2351  ZZZ=              0.0000  XYY=             -0.6496
  XXY=             -0.4748  XXZ=              0.0000  XZZ=             -0.4368  YZZ=             -0.4336
  YYZ=              0.0000  XYZ=              0.0000
 Hexadecapole moment (field-independent basis, Debye-Ang**3):
 XXXX=            -13.9400 YYYY=            -44.8456 ZZZZ=            -12.8169 XXXY=             -0.5241
 XXXZ=              0.0000 YYYX=              0.1903 YYYZ=              0.0000 ZZZX=              0.0000
 ZZZY=              0.0000 XXYY=             -9.3663 XXZZ=             -4.8885 YYZZ=             -9.0442
 XXYZ=              0.0000 YYXZ=              0.0000 ZZXY=              0.1274
 N-N= 2.422309969776D+01 E-N=-2.654598300569D+02  KE= 9.269069028748D+01
 Symmetry A'   KE= 8.983683745861D+01
 Symmetry A"   KE= 2.853852828872D+00
 B after Tr=     0.034775    0.000000    0.025228
         Rot=    0.999992    0.000000    0.004056    0.000000 Ang=   0.46 deg.
 Final structure in terms of initial Z-matrix:
 N
 C,1,B1
 H,2,B2,1,A1
      Variables:
 B1=1.1724969
 B2=1.15404631
 A1=78.50437304
 1\1\GINC-TC-NODE166\FTS\RHF\Gen\C1H1N1\EPKTB\27-Sep-2016\0\\# opt=(cal
 cfc,ts,tight) RHF/Gen gfp\\HNC-HCN\\0,1\N,-0.0307952354,0.,-0.09546691
 57\C,-0.0122713262,0.,1.0768836478\H,1.1148499771,0.,0.8290521681\\Ver
 sion=ES64L-G09RevD.01\State=1-A'\HF=-92.8134763\RMSD=6.013e-09\RMSF=3.
 985e-06\Dipole=0.5861027,0.,0.069707\Quadrupole=1.7854855,-0.0375907,-
 1.7478947,0.,0.4633479,0.\PG=CS [SG(C1H1N1)]\\@


 COMMON SENSE IS NOT SO COMMON.   -- VOLTAIRE
 Job cpu time:       0 days  0 hours  0 minutes 31.8 seconds.
 File lengths (MBytes):  RWF=     82 Int=      0 D2E=      0 Chk=      2 Scr=      1
 Normal termination of Gaussian 09 at Tue Sep 27 10:28:38 2016.
