 Entering Gaussian System, Link 0=g09
 Initial command:
 /cluster/software/gaussian/gaussian-09-D.01/g09/l1.exe "/local/scratch/maxb2/Gau-3885.inp" -scrdir="/local/scratch/maxb2/"
 Entering Link 1 = /cluster/software/gaussian/gaussian-09-D.01/g09/l1.exe PID=      3886.
  
 Copyright (c) 1988,1990,1992,1993,1995,1998,2003,2009,2013,
            Gaussian, Inc.  All Rights Reserved.
  
 This is part of the Gaussian(R) 09 program.  It is based on
 the Gaussian(R) 03 system (copyright 2003, Gaussian, Inc.),
 the Gaussian(R) 98 system (copyright 1998, Gaussian, Inc.),
 the Gaussian(R) 94 system (copyright 1995, Gaussian, Inc.),
 the Gaussian 92(TM) system (copyright 1992, Gaussian, Inc.),
 the Gaussian 90(TM) system (copyright 1990, Gaussian, Inc.),
 the Gaussian 88(TM) system (copyright 1988, Gaussian, Inc.),
 the Gaussian 86(TM) system (copyright 1986, Carnegie Mellon
 University), and the Gaussian 82(TM) system (copyright 1983,
 Carnegie Mellon University). Gaussian is a federally registered
 trademark of Gaussian, Inc.
  
 This software contains proprietary and confidential information,
 including trade secrets, belonging to Gaussian, Inc.
  
 This software is provided under written license and may be
 used, copied, transmitted, or stored only in accord with that
 written license.
  
 The following legend is applicable only to US Government
 contracts under FAR:
  
                    RESTRICTED RIGHTS LEGEND
  
 Use, reproduction and disclosure by the US Government is
 subject to restrictions as set forth in subparagraphs (a)
 and (c) of the Commercial Computer Software - Restricted
 Rights clause in FAR 52.227-19.
  
 Gaussian, Inc.
 340 Quinnipiac St., Bldg. 40, Wallingford CT 06492
  
  
 ---------------------------------------------------------------
 Warning -- This program may not be used in any manner that
 competes with the business of Gaussian, Inc. or will provide
 assistance to any competitor of Gaussian, Inc.  The licensee
 of this program is prohibited from giving any competitor of
 Gaussian, Inc. access to this program.  By using this program,
 the user acknowledges that Gaussian, Inc. is engaged in the
 business of creating and licensing software in the field of
 computational chemistry and represents and warrants to the
 licensee that it is not a competitor of Gaussian, Inc. and that
 it will not use this program in any manner prohibited above.
 ---------------------------------------------------------------
  

 Cite this work as:
 Gaussian 09, Revision D.01,
 M. J. Frisch, G. W. Trucks, H. B. Schlegel, G. E. Scuseria, 
 M. A. Robb, J. R. Cheeseman, G. Scalmani, V. Barone, B. Mennucci, 
 G. A. Petersson, H. Nakatsuji, M. Caricato, X. Li, H. P. Hratchian, 
 A. F. Izmaylov, J. Bloino, G. Zheng, J. L. Sonnenberg, M. Hada, 
 M. Ehara, K. Toyota, R. Fukuda, J. Hasegawa, M. Ishida, T. Nakajima, 
 Y. Honda, O. Kitao, H. Nakai, T. Vreven, J. A. Montgomery, Jr., 
 J. E. Peralta, F. Ogliaro, M. Bearpark, J. J. Heyd, E. Brothers, 
 K. N. Kudin, V. N. Staroverov, T. Keith, R. Kobayashi, J. Normand, 
 K. Raghavachari, A. Rendell, J. C. Burant, S. S. Iyengar, J. Tomasi, 
 M. Cossi, N. Rega, J. M. Millam, M. Klene, J. E. Knox, J. B. Cross, 
 V. Bakken, C. Adamo, J. Jaramillo, R. Gomperts, R. E. Stratmann, 
 O. Yazyev, A. J. Austin, R. Cammi, C. Pomelli, J. W. Ochterski, 
 R. L. Martin, K. Morokuma, V. G. Zakrzewski, G. A. Voth, 
 P. Salvador, J. J. Dannenberg, S. Dapprich, A. D. Daniels, 
 O. Farkas, J. B. Foresman, J. V. Ortiz, J. Cioslowski, 
 and D. J. Fox, Gaussian, Inc., Wallingford CT, 2013.
 
 ******************************************
 Gaussian 09:  ES64L-G09RevD.01 24-Apr-2013
                16-Nov-2016 
 ******************************************
 %nprocshared=8
 Will use up to    8 processors via shared memory.
 %mem=6GB
 %chk=c2h4-c2f4-camb3lyp-pople
 -------------------------------------------------------
 # opt freq=raman cam-b3lyp/6-311++g** geom=connectivity
 -------------------------------------------------------
 1/14=-1,18=20,19=15,26=3,38=1,57=2/1,3;
 2/9=110,12=2,17=6,18=5,40=1/2;
 3/5=4,6=6,7=1111,11=2,16=1,25=1,30=1,71=1,74=-40/1,2,3;
 4//1;
 5/5=2,38=5/2;
 6/7=2,8=2,9=2,10=2,28=1/1;
 7//1,2,3,16;
 1/14=-1,18=20,19=15,26=3/3(2);
 2/9=110/2;
 99//99;
 2/9=110/2;
 3/5=4,6=6,7=1111,11=2,16=1,25=1,30=1,71=1,74=-40/1,2,3;
 4/5=5,16=3,69=1/1;
 5/5=2,38=5/2;
 7//1,2,3,16;
 1/14=-1,18=20,19=15,26=3/3(-5);
 2/9=110/2;
 6/7=2,8=2,9=2,10=2,19=2,28=1/1;
 99/9=1/99;
 -----
 Title
 -----
 Symbolic Z-matrix:
 Charge =  0 Multiplicity = 1
 C
 H                    1    B1
 H                    1    B2       2    A1
 C                    1    B3       3    A2       2    D1       0
 H                    4    B4       1    A3       3    D2       0
 H                    4    B5       1    A4       3    D3       0
 C                    1    B6       4    A5       6    D4       0
 C                    7    B7       1    A6       4    D5       0
 F                    7    B8       1    A7       4    D6       0
 F                    7    B9       1    A8       4    D7       0
 F                    8    B10      7    A9       1    D8       0
 F                    8    B11      7    A10      1    D9       0
       Variables:
  B1                    1.07                     
  B2                    1.07                     
  B3                    1.3552                   
  B4                    1.07                     
  B5                    1.07                     
  B6                    4.                       
  B7                    1.3552                   
  B8                    1.35                     
  B9                    1.35                     
  B10                   1.35                     
  B11                   1.35                     
  A1                  119.88653                  
  A2                  119.88653                  
  A3                  120.22695                  
  A4                  119.88653                  
  A5                   86.85591                  
  A6                   93.14409                  
  A7                   88.43394                  
  A8                   88.41777                  
  A9                  120.22695                  
  A10                 119.88653                  
  D1                 -180.                       
  D2                  180.                       
  D3                    0.                       
  D4                   90.                       
  D5                    0.                       
  D6                 -119.84925                  
  D7                  120.18942                  
  D8                  -90.                       
  D9                   90.                       
 
 Add virtual bond connecting atoms C7         and C1         Dist= 7.56D+00.
 Add virtual bond connecting atoms C7         and C4         Dist= 7.85D+00.
 Add virtual bond connecting atoms C8         and C4         Dist= 7.56D+00.
 Add virtual bond connecting atoms C8         and H5         Dist= 7.77D+00.
 Add virtual bond connecting atoms C8         and H6         Dist= 7.77D+00.

 GradGradGradGradGradGradGradGradGradGradGradGradGradGradGradGradGradGrad
 Berny optimization.
 Initialization pass.
                           ----------------------------
                           !    Initial Parameters    !
                           ! (Angstroms and Degrees)  !
 --------------------------                            --------------------------
 ! Name  Definition              Value          Derivative Info.                !
 --------------------------------------------------------------------------------
 ! R1    R(1,2)                  1.07           estimate D2E/DX2                !
 ! R2    R(1,3)                  1.07           estimate D2E/DX2                !
 ! R3    R(1,4)                  1.3552         estimate D2E/DX2                !
 ! R4    R(1,7)                  4.0            estimate D2E/DX2                !
 ! R5    R(4,5)                  1.07           estimate D2E/DX2                !
 ! R6    R(4,6)                  1.07           estimate D2E/DX2                !
 ! R7    R(4,7)                  4.1523         estimate D2E/DX2                !
 ! R8    R(4,8)                  4.0            estimate D2E/DX2                !
 ! R9    R(5,8)                  4.112          estimate D2E/DX2                !
 ! R10   R(6,8)                  4.1123         estimate D2E/DX2                !
 ! R11   R(7,8)                  1.3552         estimate D2E/DX2                !
 ! R12   R(7,9)                  1.35           estimate D2E/DX2                !
 ! R13   R(7,10)                 1.35           estimate D2E/DX2                !
 ! R14   R(8,11)                 1.35           estimate D2E/DX2                !
 ! R15   R(8,12)                 1.35           estimate D2E/DX2                !
 ! A1    A(2,1,3)              119.8865         estimate D2E/DX2                !
 ! A2    A(2,1,4)              120.2269         estimate D2E/DX2                !
 ! A3    A(2,1,7)               91.5822         estimate D2E/DX2                !
 ! A4    A(3,1,4)              119.8865         estimate D2E/DX2                !
 ! A5    A(3,1,7)               91.5661         estimate D2E/DX2                !
 ! A6    A(1,4,5)              120.2269         estimate D2E/DX2                !
 ! A7    A(1,4,6)              119.8865         estimate D2E/DX2                !
 ! A8    A(1,4,8)               93.1441         estimate D2E/DX2                !
 ! A9    A(5,4,6)              119.8865         estimate D2E/DX2                !
 ! A10   A(5,4,7)               97.9151         estimate D2E/DX2                !
 ! A11   A(6,4,7)               97.8337         estimate D2E/DX2                !
 ! A12   A(1,7,8)               93.1441         estimate D2E/DX2                !
 ! A13   A(1,7,9)               88.4339         estimate D2E/DX2                !
 ! A14   A(1,7,10)              88.4178         estimate D2E/DX2                !
 ! A15   A(4,7,9)               97.8337         estimate D2E/DX2                !
 ! A16   A(4,7,10)              97.9151         estimate D2E/DX2                !
 ! A17   A(8,7,9)              119.8865         estimate D2E/DX2                !
 ! A18   A(8,7,10)             120.2269         estimate D2E/DX2                !
 ! A19   A(9,7,10)             119.8865         estimate D2E/DX2                !
 ! A20   A(4,8,11)              91.5822         estimate D2E/DX2                !
 ! A21   A(4,8,12)              91.5661         estimate D2E/DX2                !
 ! A22   A(5,8,6)               26.031          estimate D2E/DX2                !
 ! A23   A(5,8,7)               94.4532         estimate D2E/DX2                !
 ! A24   A(5,8,11)              98.9271         estimate D2E/DX2                !
 ! A25   A(5,8,12)              76.4895         estimate D2E/DX2                !
 ! A26   A(6,8,7)               94.376          estimate D2E/DX2                !
 ! A27   A(6,8,11)              76.5066         estimate D2E/DX2                !
 ! A28   A(6,8,12)              99.066          estimate D2E/DX2                !
 ! A29   A(7,8,11)             120.2269         estimate D2E/DX2                !
 ! A30   A(7,8,12)             119.8865         estimate D2E/DX2                !
 ! A31   A(11,8,12)            119.8865         estimate D2E/DX2                !
 ! D1    D(2,1,4,5)              0.0            estimate D2E/DX2                !
 ! D2    D(2,1,4,6)            180.0            estimate D2E/DX2                !
 ! D3    D(2,1,4,8)             90.0            estimate D2E/DX2                !
 ! D4    D(3,1,4,5)            180.0            estimate D2E/DX2                !
 ! D5    D(3,1,4,6)              0.0            estimate D2E/DX2                !
 ! D6    D(3,1,4,8)            -90.0            estimate D2E/DX2                !
 ! D7    D(2,1,7,8)           -120.1894         estimate D2E/DX2                !
 ! D8    D(2,1,7,9)            119.9613         estimate D2E/DX2                !
 ! D9    D(2,1,7,10)             0.0            estimate D2E/DX2                !
 ! D10   D(3,1,7,8)            119.8493         estimate D2E/DX2                !
 ! D11   D(3,1,7,9)              0.0            estimate D2E/DX2                !
 ! D12   D(3,1,7,10)          -119.9613         estimate D2E/DX2                !
 ! D13   D(5,4,7,9)           -179.6663         estimate D2E/DX2                !
 ! D14   D(5,4,7,10)            58.5345         estimate D2E/DX2                !
 ! D15   D(6,4,7,9)            -57.8671         estimate D2E/DX2                !
 ! D16   D(6,4,7,10)          -179.6663         estimate D2E/DX2                !
 ! D17   D(1,4,8,11)           120.1894         estimate D2E/DX2                !
 ! D18   D(1,4,8,12)          -119.8493         estimate D2E/DX2                !
 ! D19   D(1,7,8,5)             13.0332         estimate D2E/DX2                !
 ! D20   D(1,7,8,6)            -13.0765         estimate D2E/DX2                !
 ! D21   D(1,7,8,11)           -90.0            estimate D2E/DX2                !
 ! D22   D(1,7,8,12)            90.0            estimate D2E/DX2                !
 ! D23   D(9,7,8,5)            103.0332         estimate D2E/DX2                !
 ! D24   D(9,7,8,6)             76.9235         estimate D2E/DX2                !
 ! D25   D(9,7,8,11)             0.0            estimate D2E/DX2                !
 ! D26   D(9,7,8,12)           180.0            estimate D2E/DX2                !
 ! D27   D(10,7,8,5)           -76.9668         estimate D2E/DX2                !
 ! D28   D(10,7,8,6)          -103.0765         estimate D2E/DX2                !
 ! D29   D(10,7,8,11)          180.0            estimate D2E/DX2                !
 ! D30   D(10,7,8,12)            0.0            estimate D2E/DX2                !
 --------------------------------------------------------------------------------
 Trust Radius=3.00D-01 FncErr=1.00D-07 GrdErr=1.00D-06
 Number of steps in this run=     86 maximum allowed number of steps=    100.
 GradGradGradGradGradGradGradGradGradGradGradGradGradGradGradGradGradGrad

                          Input orientation:                          
 ---------------------------------------------------------------------
 Center     Atomic      Atomic             Coordinates (Angstroms)
 Number     Number       Type             X           Y           Z
 ---------------------------------------------------------------------
      1          6           0        0.000000    0.000000    0.000000
      2          1           0        0.000000    0.000000    1.070000
      3          1           0        0.927705    0.000000   -0.533164
      4          6           0       -1.170944    0.000000   -0.682243
      5          1           0       -2.101801    0.000000   -0.154601
      6          1           0       -1.164587    0.000000   -1.752225
      7          6           0       -0.189560    3.993979   -0.110446
      8          6           0       -1.360505    3.993979   -0.792690
      9          9           0        0.980908    3.993979   -0.783129
     10          9           0       -0.189560    3.993979    1.239554
     11          9           0       -1.360505    3.993979   -2.142690
     12          9           0       -2.530974    3.993979   -0.120006
 ---------------------------------------------------------------------
                    Distance matrix (angstroms):
                    1          2          3          4          5
     1  C    0.000000
     2  H    1.070000   0.000000
     3  H    1.070000   1.852234   0.000000
     4  C    1.355200   2.107479   2.103938   0.000000
     5  H    2.107479   2.432532   3.053066   1.070000   0.000000
     6  H    2.103938   3.053066   2.421527   1.070000   1.852234
     7  C    4.000000   4.169083   4.168794   4.152341   4.428372
     8  C    4.293157   4.612207   4.610328   4.000000   4.112000
     9  F    4.186567   4.510891   4.002147   4.537898   5.084291
    10  F    4.186203   4.002068   4.510286   4.539635   4.642435
    11  F    4.732226   5.303227   4.876305   4.256842   4.522597
    12  F    4.729915   4.875840   5.299531   4.256484   4.017120
                    6          7          8          9         10
     6  H    0.000000
     7  C    4.426961   0.000000
     8  C    4.112294   1.355200   0.000000
     9  F    4.636180   1.350000   2.341433   0.000000
    10  F    5.084612   1.350000   2.345448   2.336931   0.000000
    11  F    4.017800   2.345448   1.350000   2.707512   3.579201
    12  F    4.525817   2.341433   1.350000   3.573940   2.707512
                   11         12
    11  F    0.000000
    12  F    2.336931   0.000000
 Stoichiometry    C4H4F4
 Framework group  C1[X(C4H4F4)]
 Deg. of freedom    30
 Full point group                 C1      NOp   1
 Largest Abelian subgroup         C1      NOp   1
 Largest concise Abelian subgroup C1      NOp   1
                         Standard orientation:                         
 ---------------------------------------------------------------------
 Center     Atomic      Atomic             Coordinates (Angstroms)
 Number     Number       Type             X           Y           Z
 ---------------------------------------------------------------------
      1          6           0       -3.062519    0.550552    0.000481
      2          1           0       -3.114158    1.088234   -0.923170
      3          1           0       -3.113822    1.079738    0.929045
      4          6           0       -2.932361   -0.798381   -0.001704
      5          1           0       -2.880530   -1.333050   -0.927093
      6          1           0       -2.881250   -1.330592    0.925140
      7          6           0        0.934068    0.715772    0.001164
      8          6           0        1.064226   -0.633162   -0.001022
      9          9           0        0.869340    1.383436    1.172716
     10          9           0        0.868915    1.394156   -1.164190
     11          9           0        1.129379   -1.311546    1.164332
     12          9           0        1.128953   -1.300826   -1.172574
 ---------------------------------------------------------------------
 Rotational constants (GHZ):      1.8478192      1.1023159      0.9764892
 Standard basis: 6-311++G(d,p) (5D, 7F)
 There are   212 symmetry adapted cartesian basis functions of A   symmetry.
 There are   204 symmetry adapted basis functions of A   symmetry.
   204 basis functions,   324 primitive gaussians,   212 cartesian basis functions
    32 alpha electrons       32 beta electrons
       nuclear repulsion energy       365.9518417123 Hartrees.
 NAtoms=   12 NActive=   12 NUniq=   12 SFac= 1.00D+00 NAtFMM=   60 NAOKFM=F Big=F
 Integral buffers will be    131072 words long.
 Raffenetti 2 integral format.
 Two-electron integral symmetry is turned on.
 One-electron integrals computed using PRISM.
 NBasis=   204 RedAO= T EigKep=  3.42D-05  NBF=   204
 NBsUse=   204 1.00D-06 EigRej= -1.00D+00 NBFU=   204
 ExpMin= 3.60D-02 ExpMax= 1.14D+04 ExpMxC= 1.72D+03 IAcc=3 IRadAn=         5 AccDes= 0.00D+00
 Harris functional with IExCor=20419 and IRadAn=       5 diagonalized for initial guess.
 HarFok:  IExCor=20419 AccDes= 0.00D+00 IRadAn=         5 IDoV= 1 UseB2=F ITyADJ=14
 ICtDFT=  3500011 ScaDFX=  1.000000  1.000000  1.000000  1.000000
 FoFCou: FMM=F IPFlag=           0 FMFlag=      100000 FMFlg1=           0
         NFxFlg=           0 DoJE=T BraDBF=F KetDBF=T FulRan=T
         wScrn=  0.000000 ICntrl=     500 IOpCl=  0 I1Cent=   200000004 NGrid=           0
         NMat0=    1 NMatS0=      1 NMatT0=    0 NMatD0=    1 NMtDS0=    0 NMtDT0=    0
 Petite list used in FoFCou.
 Keep R1 ints in memory in canonical form, NReq=442237348.
 Requested convergence on RMS density matrix=1.00D-08 within 128 cycles.
 Requested convergence on MAX density matrix=1.00D-06.
 Requested convergence on             energy=1.00D-06.
 No special actions if energy rises.
 SCF Done:  E(RCAM-B3LYP) =  -554.090678347     A.U. after   12 cycles
            NFock= 12  Conv=0.86D-08     -V/T= 2.0033

 **********************************************************************

            Population analysis using the SCF density.

 **********************************************************************

 Orbital symmetries:
       Occupied  (A) (A) (A) (A) (A) (A) (A) (A) (A) (A) (A) (A)
                 (A) (A) (A) (A) (A) (A) (A) (A) (A) (A) (A) (A)
                 (A) (A) (A) (A) (A) (A) (A) (A)
       Virtual   (A) (A) (A) (A) (A) (A) (A) (A) (A) (A) (A) (A)
                 (A) (A) (A) (A) (A) (A) (A) (A) (A) (A) (A) (A)
                 (A) (A) (A) (A) (A) (A) (A) (A) (A) (A) (A) (A)
                 (A) (A) (A) (A) (A) (A) (A) (A) (A) (A) (A) (A)
                 (A) (A) (A) (A) (A) (A) (A) (A) (A) (A) (A) (A)
                 (A) (A) (A) (A) (A) (A) (A) (A) (A) (A) (A) (A)
                 (A) (A) (A) (A) (A) (A) (A) (A) (A) (A) (A) (A)
                 (A) (A) (A) (A) (A) (A) (A) (A) (A) (A) (A) (A)
                 (A) (A) (A) (A) (A) (A) (A) (A) (A) (A) (A) (A)
                 (A) (A) (A) (A) (A) (A) (A) (A) (A) (A) (A) (A)
                 (A) (A) (A) (A) (A) (A) (A) (A) (A) (A) (A) (A)
                 (A) (A) (A) (A) (A) (A) (A) (A) (A) (A) (A) (A)
                 (A) (A) (A) (A) (A) (A) (A) (A) (A) (A) (A) (A)
                 (A) (A) (A) (A) (A) (A) (A) (A) (A) (A) (A) (A)
                 (A) (A) (A) (A)
 The electronic state is 1-A.
 Alpha  occ. eigenvalues --  -24.82503 -24.82486 -24.82461 -24.82444 -10.45718
 Alpha  occ. eigenvalues --  -10.45646 -10.25071 -10.24997  -1.39504  -1.37900
 Alpha  occ. eigenvalues --   -1.35005  -1.33821  -0.89848  -0.84900  -0.75162
 Alpha  occ. eigenvalues --   -0.70012  -0.69999  -0.66573  -0.65538  -0.64105
 Alpha  occ. eigenvalues --   -0.59719  -0.57005  -0.55753  -0.55436  -0.55323
 Alpha  occ. eigenvalues --   -0.54914  -0.53173  -0.52896  -0.48945  -0.43709
 Alpha  occ. eigenvalues --   -0.34602  -0.33592
 Alpha virt. eigenvalues --    0.01525   0.02313   0.03474   0.03746   0.03814
 Alpha virt. eigenvalues --    0.04286   0.06534   0.06685   0.06896   0.09334
 Alpha virt. eigenvalues --    0.10188   0.11388   0.11802   0.12015   0.12438
 Alpha virt. eigenvalues --    0.13582   0.13894   0.14877   0.15741   0.16453
 Alpha virt. eigenvalues --    0.17598   0.18551   0.19354   0.21045   0.21654
 Alpha virt. eigenvalues --    0.22685   0.22999   0.25199   0.27295   0.28986
 Alpha virt. eigenvalues --    0.29625   0.30741   0.32850   0.34509   0.35995
 Alpha virt. eigenvalues --    0.36201   0.37703   0.38274   0.39260   0.39441
 Alpha virt. eigenvalues --    0.40726   0.42185   0.42342   0.43214   0.45369
 Alpha virt. eigenvalues --    0.45610   0.48475   0.48584   0.50683   0.54231
 Alpha virt. eigenvalues --    0.55325   0.61653   0.62202   0.63291   0.65233
 Alpha virt. eigenvalues --    0.69516   0.70146   0.72908   0.77332   0.79384
 Alpha virt. eigenvalues --    0.81406   0.81735   0.82083   0.84408   0.87810
 Alpha virt. eigenvalues --    0.92801   0.94429   0.97109   1.06318   1.13759
 Alpha virt. eigenvalues --    1.15092   1.16969   1.17643   1.27521   1.32030
 Alpha virt. eigenvalues --    1.39140   1.41095   1.43198   1.43376   1.43472
 Alpha virt. eigenvalues --    1.44745   1.46378   1.46546   1.46933   1.47496
 Alpha virt. eigenvalues --    1.50151   1.50587   1.51357   1.60442   1.61179
 Alpha virt. eigenvalues --    1.65412   1.66078   1.68190   1.68369   1.68842
 Alpha virt. eigenvalues --    1.71292   1.84653   1.88953   1.88974   1.91870
 Alpha virt. eigenvalues --    1.91942   2.01235   2.01587   2.06640   2.07456
 Alpha virt. eigenvalues --    2.14379   2.17779   2.18453   2.21619   2.23398
 Alpha virt. eigenvalues --    2.25045   2.31332   2.50195   2.52332   2.60365
 Alpha virt. eigenvalues --    2.63942   2.65634   2.77708   2.77791   2.83700
 Alpha virt. eigenvalues --    2.86646   2.94014   2.97968   3.00383   3.06416
 Alpha virt. eigenvalues --    3.10186   3.22170   3.44774   3.47839   3.76261
 Alpha virt. eigenvalues --    3.79179   3.79434   3.79824   3.79985   3.82620
 Alpha virt. eigenvalues --    3.82721   3.84576   3.85433   3.88235   3.92251
 Alpha virt. eigenvalues --    3.98047   3.98654   3.99521   4.08214   4.13412
 Alpha virt. eigenvalues --    4.17149   4.22399   4.24405   4.49468   4.86761
 Alpha virt. eigenvalues --    4.88701   4.98029   6.27767   6.30198   6.34169
 Alpha virt. eigenvalues --    6.35284   6.35775   6.36910   6.38559   6.41282
 Alpha virt. eigenvalues --    6.42683   6.78241   6.80201   6.88968  23.41740
 Alpha virt. eigenvalues --   23.85766  24.00744  24.25782  66.72964  66.75822
 Alpha virt. eigenvalues --   66.76885  66.79234
          Condensed to atoms (all electrons):
               1          2          3          4          5          6
     1  C    5.058842   0.415989   0.416238   0.450385  -0.040603  -0.041138
     2  H    0.415989   0.539244  -0.038258  -0.039993  -0.011644   0.007873
     3  H    0.416238  -0.038258   0.540021  -0.040515   0.007873  -0.011907
     4  C    0.450385  -0.039993  -0.040515   5.070476   0.416912   0.417169
     5  H   -0.040603  -0.011644   0.007873   0.416912   0.539634  -0.039251
     6  H   -0.041138   0.007873  -0.011907   0.417169  -0.039251   0.540397
     7  C   -0.057606   0.000173   0.000162   0.051487  -0.000548  -0.000604
     8  C    0.040336  -0.000110  -0.000064  -0.060458   0.000884   0.000947
     9  F    0.002439   0.000754  -0.001608  -0.003882  -0.000134   0.000432
    10  F    0.002536  -0.001605   0.000735  -0.003928   0.000427  -0.000134
    11  F    0.003378  -0.000347   0.000640  -0.006284   0.001115  -0.001623
    12  F    0.003482   0.000645  -0.000349  -0.006432  -0.001657   0.001146
               7          8          9         10         11         12
     1  C   -0.057606   0.040336   0.002439   0.002536   0.003378   0.003482
     2  H    0.000173  -0.000110   0.000754  -0.001605  -0.000347   0.000645
     3  H    0.000162  -0.000064  -0.001608   0.000735   0.000640  -0.000349
     4  C    0.051487  -0.060458  -0.003882  -0.003928  -0.006284  -0.006432
     5  H   -0.000548   0.000884  -0.000134   0.000427   0.001115  -0.001657
     6  H   -0.000604   0.000947   0.000432  -0.000134  -0.001623   0.001146
     7  C    5.775208  -0.241715   0.334671   0.335571  -0.190303  -0.190688
     8  C   -0.241715   5.813880  -0.193154  -0.192702   0.332927   0.332022
     9  F    0.334671  -0.193154   8.999536  -0.065870   0.008794   0.007966
    10  F    0.335571  -0.192702  -0.065870   8.998605   0.007835   0.008784
    11  F   -0.190303   0.332927   0.008794   0.007835   8.999770  -0.065732
    12  F   -0.190688   0.332022   0.007966   0.008784  -0.065732   9.000615
 Mulliken charges:
               1
     1  C   -0.254279
     2  H    0.127278
     3  H    0.127031
     4  C   -0.244936
     5  H    0.126992
     6  H    0.126693
     7  C    0.184190
     8  C    0.167205
     9  F   -0.089944
    10  F   -0.090255
    11  F   -0.090172
    12  F   -0.089802
 Sum of Mulliken charges =   0.00000
 Mulliken charges with hydrogens summed into heavy atoms:
               1
     1  C    0.000030
     4  C    0.008749
     7  C    0.184190
     8  C    0.167205
     9  F   -0.089944
    10  F   -0.090255
    11  F   -0.090172
    12  F   -0.089802
 Electronic spatial extent (au):  <R**2>=           1271.3978
 Charge=              0.0000 electrons
 Dipole moment (field-independent basis, Debye):
    X=             -0.1499    Y=              0.0054    Z=              0.0006  Tot=              0.1500
 Quadrupole moment (field-independent basis, Debye-Ang):
   XX=            -45.5927   YY=            -45.4253   ZZ=            -46.1625
   XY=             -0.0425   XZ=             -0.0013   YZ=             -0.0080
 Traceless Quadrupole moment (field-independent basis, Debye-Ang):
   XX=              0.1341   YY=              0.3016   ZZ=             -0.4357
   XY=             -0.0425   XZ=             -0.0013   YZ=             -0.0080
 Octapole moment (field-independent basis, Debye-Ang**2):
  XXX=             51.5242  YYY=              0.6054  ZZZ=              0.0127  XYY=              4.6756
  XXY=              3.2630  XXZ=              0.0171  XZZ=              2.8091  YZZ=              0.1285
  YYZ=             -0.0242  XYZ=             -0.0033
 Hexadecapole moment (field-independent basis, Debye-Ang**3):
 XXXX=          -1079.4315 YYYY=           -345.2649 ZZZZ=           -213.1523 XXXY=            -15.3319
 XXXZ=             -0.0555 YYYX=             -3.3209 YYYZ=             -0.0118 ZZZX=             -0.0372
 ZZZY=             -0.0927 XXYY=           -210.0525 XXZZ=           -187.8534 YYZZ=            -95.3147
 XXYZ=             -0.0382 YYXZ=              0.0678 ZZXY=             -0.9830
 N-N= 3.659518417123D+02 E-N=-2.043352009612D+03  KE= 5.522639214476D+02
 Calling FoFJK, ICntrl=      2127 FMM=F ISym2X=0 I1Cent= 0 IOpClX= 0 NMat=1 NMatS=1 NMatT=0.
 ***** Axes restored to original set *****
 -------------------------------------------------------------------
 Center     Atomic                   Forces (Hartrees/Bohr)
 Number     Number              X              Y              Z
 -------------------------------------------------------------------
      1        6          -0.040405767    0.000433840   -0.023628021
      2        1           0.003311132   -0.000153987    0.009339145
      3        1           0.009950320   -0.000152770   -0.001526872
      4        6           0.040486474    0.000525074    0.023504702
      5        1          -0.009772301   -0.000170929    0.001744991
      6        1          -0.003566612   -0.000171512   -0.009431952
      7        6          -0.031405557    0.000328687   -0.019136320
      8        6           0.031677046    0.000373050    0.019295518
      9        9          -0.021866064   -0.000268493    0.030434654
     10        9           0.015007767   -0.000272610   -0.034710142
     11        9          -0.015049086   -0.000233506    0.034463323
     12        9           0.021632646   -0.000236843   -0.030349026
 -------------------------------------------------------------------
 Cartesian Forces:  Max     0.040486474 RMS     0.019111710

 GradGradGradGradGradGradGradGradGradGradGradGradGradGradGradGradGradGrad
 Berny optimization.
 FormGI is forming the generalized inverse of G from B-inverse, IUseBI=4.
 Internal  Forces:  Max     0.042839406 RMS     0.010973551
 Search for a local minimum.
 Step number   1 out of a maximum of   86
 All quantities printed in internal units (Hartrees-Bohrs-Radians)
 Mixed Optimization -- RFO/linear search
 Second derivative matrix not updated -- first step.
 ITU=  0
     Eigenvalues ---    0.00562   0.00768   0.02973   0.02998   0.04068
     Eigenvalues ---    0.04918   0.05347   0.05919   0.06779   0.06928
     Eigenvalues ---    0.08170   0.08490   0.08989   0.10090   0.11201
     Eigenvalues ---    0.12859   0.14277   0.15786   0.18808   0.19401
     Eigenvalues ---    0.34593   0.35927   0.37230   0.37230   0.52048
     Eigenvalues ---    0.53247   0.55021   0.55021   0.55021   0.55021
 RFO step:  Lambda=-2.16630801D-02 EMin= 5.61849243D-03
 Linear search not attempted -- first point.
 Iteration  1 RMS(Cart)=  0.02687761 RMS(Int)=  0.00079968
 Iteration  2 RMS(Cart)=  0.00084796 RMS(Int)=  0.00010125
 Iteration  3 RMS(Cart)=  0.00000053 RMS(Int)=  0.00010125
 Variable       Old X    -DE/DX   Delta X   Delta X   Delta X     New X
                                 (Linear)    (Quad)   (Total)
    R1        2.02201   0.00934   0.00000   0.02371   0.02371   2.04572
    R2        2.02201   0.00939   0.00000   0.02383   0.02383   2.04584
    R3        2.56096  -0.03118   0.00000  -0.05650  -0.05650   2.50446
    R4        7.55890   0.00141   0.00000  -0.00182  -0.00187   7.55703
    R5        2.02201   0.00822   0.00000   0.02365   0.02370   2.04571
    R6        2.02201   0.00821   0.00000   0.02374   0.02379   2.04580
    R7        7.84679  -0.00584   0.00000  -0.02200  -0.02184   7.82495
    R8        7.55890  -0.00057   0.00000  -0.00087  -0.00100   7.55791
    R9        7.77055   0.00228   0.00000   0.00692   0.00691   7.77747
   R10        7.77111   0.00237   0.00000   0.00739   0.00738   7.77849
   R11        2.56096  -0.04284   0.00000  -0.07927  -0.07925   2.48171
   R12        2.55113  -0.03412   0.00000  -0.05967  -0.05967   2.49146
   R13        2.55113  -0.03471   0.00000  -0.06070  -0.06070   2.49043
   R14        2.55113  -0.03446   0.00000  -0.06026  -0.06026   2.49087
   R15        2.55113  -0.03388   0.00000  -0.05924  -0.05924   2.49189
    A1        2.09241  -0.00234   0.00000  -0.02275  -0.02275   2.06967
    A2        2.09836   0.00114   0.00000   0.01008   0.01009   2.10845
    A3        1.59841  -0.00004   0.00000   0.00181   0.00183   1.60024
    A4        2.09241   0.00120   0.00000   0.01266   0.01266   2.10507
    A5        1.59813  -0.00012   0.00000   0.00160   0.00164   1.59977
    A6        2.09836   0.00109   0.00000   0.00978   0.00977   2.10812
    A7        2.09241   0.00129   0.00000   0.01232   0.01230   2.10471
    A8        1.62567  -0.00208   0.00000  -0.00106  -0.00103   1.62464
    A9        2.09241  -0.00239   0.00000  -0.02211  -0.02207   2.07035
   A10        1.70894  -0.00183   0.00000  -0.00047  -0.00056   1.70838
   A11        1.70752  -0.00186   0.00000  -0.00023  -0.00033   1.70719
   A12        1.62567  -0.00108   0.00000   0.00282   0.00285   1.62852
   A13        1.54346   0.00051   0.00000  -0.00440  -0.00440   1.53906
   A14        1.54318   0.00040   0.00000  -0.00450  -0.00449   1.53869
   A15        1.70752   0.00019   0.00000   0.00477   0.00436   1.71188
   A16        1.70894   0.00003   0.00000   0.00423   0.00385   1.71279
   A17        2.09241   0.00585   0.00000   0.04434   0.04434   2.13675
   A18        2.09836   0.00521   0.00000   0.04036   0.04035   2.13870
   A19        2.09241  -0.01105   0.00000  -0.08470  -0.08469   2.00773
   A20        1.59841  -0.00013   0.00000   0.00280   0.00280   1.60122
   A21        1.59813  -0.00003   0.00000   0.00320   0.00319   1.60132
   A22        0.45433   0.00142   0.00000   0.00204   0.00199   0.45632
   A23        1.64852   0.00336   0.00000   0.00418   0.00417   1.65269
   A24        1.72660  -0.00207   0.00000  -0.00849  -0.00880   1.71780
   A25        1.33499  -0.00107   0.00000   0.00022   0.00039   1.33538
   A26        1.64717   0.00328   0.00000   0.00414   0.00413   1.65130
   A27        1.33529  -0.00113   0.00000  -0.00006   0.00008   1.33537
   A28        1.72903  -0.00208   0.00000  -0.00894  -0.00931   1.71972
   A29        2.09836   0.00922   0.00000   0.04395   0.04393   2.14228
   A30        2.09241   0.01012   0.00000   0.04829   0.04827   2.14068
   A31        2.09241  -0.01934   0.00000  -0.09224  -0.09220   2.00022
    D1        0.00000   0.00074   0.00000  -0.00129  -0.00133  -0.00133
    D2        3.14159  -0.00042   0.00000   0.00159   0.00162  -3.13997
    D3        1.57080   0.00012   0.00000  -0.00005  -0.00005   1.57074
    D4        3.14159   0.00042   0.00000  -0.00172  -0.00175   3.13984
    D5        0.00000  -0.00074   0.00000   0.00116   0.00120   0.00120
    D6       -1.57080  -0.00020   0.00000  -0.00048  -0.00047  -1.57127
    D7       -2.09770  -0.00086   0.00000  -0.00867  -0.00867  -2.10637
    D8        2.09372  -0.00674   0.00000  -0.05287  -0.05287   2.04085
    D9        0.00000   0.00437   0.00000   0.03153   0.03153   0.03153
   D10        2.09176   0.00149   0.00000   0.01394   0.01395   2.10571
   D11        0.00000  -0.00439   0.00000  -0.03025  -0.03025  -0.03025
   D12       -2.09372   0.00672   0.00000   0.05415   0.05414  -2.03958
   D13       -3.13577  -0.00415   0.00000  -0.03323  -0.03329   3.11412
   D14        1.02162   0.00728   0.00000   0.05258   0.05264   1.07426
   D15       -1.00997  -0.00755   0.00000  -0.05639  -0.05644  -1.06641
   D16       -3.13577   0.00389   0.00000   0.02943   0.02950  -3.10627
   D17        2.09770   0.00952   0.00000   0.04522   0.04521   2.14291
   D18       -2.09176  -0.00986   0.00000  -0.04687  -0.04684  -2.13861
   D19        0.22747   0.00066   0.00000   0.00062   0.00061   0.22808
   D20       -0.22823  -0.00089   0.00000  -0.00157  -0.00154  -0.22977
   D21       -1.57080  -0.00096   0.00000  -0.00140  -0.00145  -1.57225
   D22        1.57080   0.00081   0.00000   0.00070   0.00076   1.57156
   D23        1.79827   0.00095   0.00000  -0.00041  -0.00034   1.79793
   D24        1.34257  -0.00059   0.00000  -0.00260  -0.00248   1.34008
   D25        0.00000  -0.00067   0.00000  -0.00243  -0.00239  -0.00239
   D26        3.14159   0.00111   0.00000  -0.00032  -0.00018   3.14141
   D27       -1.34332   0.00053   0.00000   0.00198   0.00187  -1.34145
   D28       -1.79903  -0.00102   0.00000  -0.00021  -0.00027  -1.79930
   D29        3.14159  -0.00109   0.00000  -0.00005  -0.00018   3.14141
   D30        0.00000   0.00068   0.00000   0.00206   0.00203   0.00203
         Item               Value     Threshold  Converged?
 Maximum Force            0.042839     0.000450     NO 
 RMS     Force            0.010974     0.000300     NO 
 Maximum Displacement     0.110189     0.001800     NO 
 RMS     Displacement     0.027006     0.001200     NO 
 Predicted change in Energy=-1.161457D-02
 GradGradGradGradGradGradGradGradGradGradGradGradGradGradGradGradGradGrad

                          Input orientation:                          
 ---------------------------------------------------------------------
 Center     Atomic      Atomic             Coordinates (Angstroms)
 Number     Number       Type             X           Y           Z
 ---------------------------------------------------------------------
      1          6           0       -0.012165    0.000326   -0.007538
      2          1           0       -0.001254   -0.000188    1.074953
      3          1           0        0.933232   -0.000075   -0.535052
      4          6           0       -1.157270    0.000958   -0.674742
      5          1           0       -2.104211   -0.000266   -0.150147
      6          1           0       -1.164144   -0.000038   -1.757311
      7          6           0       -0.206655    3.992980   -0.121406
      8          6           0       -1.342247    3.994737   -0.781021
      9          9           0        0.963621    3.990767   -0.728607
     10          9           0       -0.151740    3.990841    1.195328
     11          9           0       -1.401889    3.997082   -2.097780
     12          9           0       -2.515101    3.996750   -0.178316
 ---------------------------------------------------------------------
                    Distance matrix (angstroms):
                    1          2          3          4          5
     1  C    0.000000
     2  H    1.082546   0.000000
     3  H    1.082611   1.861553   0.000000
     4  C    1.325303   2.097094   2.095164   0.000000
     5  H    2.096901   2.433783   3.061733   1.082542   0.000000
     6  H    2.094937   3.061704   2.427530   1.082591   1.861908
     7  C    3.999009   4.173590   4.173120   4.140784   4.421262
     8  C    4.280503   4.604598   4.604001   3.999473   4.115657
     9  F    4.170817   4.484589   3.995648   4.518812   5.067006
    10  F    4.170201   3.995679   4.483167   4.519670   4.642346
    11  F    4.719586   5.292086   4.885915   4.248986   4.501701
    12  F    4.718607   4.885245   5.290828   4.249294   4.018178
                    6          7          8          9         10
     6  H    0.000000
     7  C    4.420086   0.000000
     8  C    4.116198   1.313265   0.000000
     9  F    4.638118   1.318424   2.306466   0.000000
    10  F    5.066572   1.317880   2.307222   2.223860   0.000000
    11  F    4.018632   2.309687   1.318111   2.733187   3.522424
    12  F    4.504733   2.309150   1.318652   3.521982   2.733570
                   11         12
    11  F    0.000000
    12  F    2.218914   0.000000
 Stoichiometry    C4H4F4
 Framework group  C1[X(C4H4F4)]
 Deg. of freedom    30
 Full point group                 C1      NOp   1
 Largest Abelian subgroup         C1      NOp   1
 Largest concise Abelian subgroup C1      NOp   1
                         Standard orientation:                         
 ---------------------------------------------------------------------
 Center     Atomic      Atomic             Coordinates (Angstroms)
 Number     Number       Type             X           Y           Z
 ---------------------------------------------------------------------
      1          6           0       -3.062377    0.528329   -0.001122
      2          1           0       -3.117472    1.078764   -0.931655
      3          1           0       -3.117454    1.078069    0.929898
      4          6           0       -2.930785   -0.790423    0.000596
      5          1           0       -2.877048   -1.343112   -0.928675
      6          1           0       -2.877534   -1.337573    0.933225
      7          6           0        0.933005    0.698609   -0.000005
      8          6           0        1.064528   -0.608053   -0.000070
      9          9           0        0.860850    1.401834    1.112879
     10          9           0        0.860922    1.403836   -1.110981
     11          9           0        1.137221   -1.317340    1.108552
     12          9           0        1.136928   -1.315765   -1.110361
 ---------------------------------------------------------------------
 Rotational constants (GHZ):      1.9073417      1.1268041      0.9737787
 Standard basis: 6-311++G(d,p) (5D, 7F)
 There are   212 symmetry adapted cartesian basis functions of A   symmetry.
 There are   204 symmetry adapted basis functions of A   symmetry.
   204 basis functions,   324 primitive gaussians,   212 cartesian basis functions
    32 alpha electrons       32 beta electrons
       nuclear repulsion energy       371.5872069086 Hartrees.
 NAtoms=   12 NActive=   12 NUniq=   12 SFac= 1.00D+00 NAtFMM=   60 NAOKFM=F Big=F
 Integral buffers will be    131072 words long.
 Raffenetti 2 integral format.
 Two-electron integral symmetry is turned on.
 One-electron integrals computed using PRISM.
 NBasis=   204 RedAO= T EigKep=  2.96D-05  NBF=   204
 NBsUse=   204 1.00D-06 EigRej= -1.00D+00 NBFU=   204
 Initial guess from the checkpoint file:  "c2h4-c2f4-camb3lyp-pople.chk"
 B after Tr=     0.000000    0.000000    0.000000
         Rot=    0.999998    0.001461    0.000030   -0.001539 Ang=   0.24 deg.
 ExpMin= 3.60D-02 ExpMax= 1.14D+04 ExpMxC= 1.72D+03 IAcc=3 IRadAn=         5 AccDes= 0.00D+00
 Harris functional with IExCor=20419 and IRadAn=       5 diagonalized for initial guess.
 HarFok:  IExCor=20419 AccDes= 0.00D+00 IRadAn=         5 IDoV= 1 UseB2=F ITyADJ=14
 ICtDFT=  3500011 ScaDFX=  1.000000  1.000000  1.000000  1.000000
 FoFCou: FMM=F IPFlag=           0 FMFlag=      100000 FMFlg1=           0
         NFxFlg=           0 DoJE=T BraDBF=F KetDBF=T FulRan=T
         wScrn=  0.000000 ICntrl=     500 IOpCl=  0 I1Cent=   200000004 NGrid=           0
         NMat0=    1 NMatS0=      1 NMatT0=    0 NMatD0=    1 NMtDS0=    0 NMtDT0=    0
 Petite list used in FoFCou.
 Keep R1 ints in memory in canonical form, NReq=442237348.
 Requested convergence on RMS density matrix=1.00D-08 within 128 cycles.
 Requested convergence on MAX density matrix=1.00D-06.
 Requested convergence on             energy=1.00D-06.
 No special actions if energy rises.
 SCF Done:  E(RCAM-B3LYP) =  -554.103384416     A.U. after   10 cycles
            NFock= 10  Conv=0.59D-08     -V/T= 2.0025
 Calling FoFJK, ICntrl=      2127 FMM=F ISym2X=0 I1Cent= 0 IOpClX= 0 NMat=1 NMatS=1 NMatT=0.
 ***** Axes restored to original set *****
 -------------------------------------------------------------------
 Center     Atomic                   Forces (Hartrees/Bohr)
 Number     Number              X              Y              Z
 -------------------------------------------------------------------
      1        6          -0.004317308    0.000457306   -0.002626328
      2        1           0.002604370   -0.000132357    0.000869912
      3        1           0.002123415   -0.000126947    0.001997939
      4        6           0.004499491    0.000365081    0.002516468
      5        1          -0.002080738   -0.000100612   -0.001861228
      6        1          -0.002828984   -0.000105578   -0.000896520
      7        6          -0.000525676    0.000147865   -0.000849665
      8        6          -0.000787795    0.000455137    0.000093075
      9        9          -0.001232645   -0.000231008    0.006425215
     10        9           0.004857763   -0.000244328   -0.004022381
     11        9          -0.003883836   -0.000248699    0.003822153
     12        9           0.001571943   -0.000235859   -0.005468638
 -------------------------------------------------------------------
 Cartesian Forces:  Max     0.006425215 RMS     0.002537990

 GradGradGradGradGradGradGradGradGradGradGradGradGradGradGradGradGradGrad
 Berny optimization.
 Using GEDIIS/GDIIS optimizer.
 FormGI is forming the generalized inverse of G from B-inverse, IUseBI=4.
 Internal  Forces:  Max     0.005049786 RMS     0.001602772
 Search for a local minimum.
 Step number   2 out of a maximum of   86
 All quantities printed in internal units (Hartrees-Bohrs-Radians)
 Mixed Optimization -- RFO/linear search
 Update second derivatives using D2CorX and points    1    2
 DE= -1.27D-02 DEPred=-1.16D-02 R= 1.09D+00
 TightC=F SS=  1.41D+00  RLast= 2.69D-01 DXNew= 5.0454D-01 8.0587D-01
 Trust test= 1.09D+00 RLast= 2.69D-01 DXMaxT set to 5.05D-01
 ITU=  1  0
 Use linear search instead of GDIIS.
     Eigenvalues ---    0.00562   0.00761   0.02991   0.03023   0.04058
     Eigenvalues ---    0.04901   0.05266   0.05903   0.06678   0.06816
     Eigenvalues ---    0.08073   0.08391   0.08751   0.09804   0.10890
     Eigenvalues ---    0.12638   0.14633   0.15741   0.18013   0.19418
     Eigenvalues ---    0.34615   0.35911   0.37211   0.37230   0.51974
     Eigenvalues ---    0.53074   0.55017   0.55021   0.55021   0.57595
 RFO step:  Lambda=-6.84083571D-04 EMin= 5.62035546D-03
 Quartic linear search produced a step of  0.13882.
 Iteration  1 RMS(Cart)=  0.01154702 RMS(Int)=  0.00008683
 Iteration  2 RMS(Cart)=  0.00008275 RMS(Int)=  0.00002159
 Iteration  3 RMS(Cart)=  0.00000000 RMS(Int)=  0.00002159
 Variable       Old X    -DE/DX   Delta X   Delta X   Delta X     New X
                                 (Linear)    (Quad)   (Total)
    R1        2.04572   0.00090   0.00329  -0.00046   0.00283   2.04855
    R2        2.04584   0.00088   0.00331  -0.00053   0.00278   2.04862
    R3        2.50446   0.00052  -0.00784   0.00796   0.00012   2.50457
    R4        7.55703  -0.00032  -0.00026  -0.01456  -0.01482   7.54222
    R5        2.04571   0.00100   0.00329  -0.00020   0.00311   2.04882
    R6        2.04580   0.00098   0.00330  -0.00024   0.00309   2.04889
    R7        7.82495   0.00002  -0.00303  -0.00880  -0.01181   7.81313
    R8        7.55791  -0.00006  -0.00014  -0.00815  -0.00832   7.54959
    R9        7.77747  -0.00004   0.00096  -0.01198  -0.01102   7.76645
   R10        7.77849  -0.00001   0.00102  -0.01220  -0.01118   7.76731
   R11        2.48171   0.00347  -0.01100   0.01774   0.00674   2.48845
   R12        2.49146  -0.00405  -0.00828  -0.00074  -0.00903   2.48243
   R13        2.49043  -0.00382  -0.00843  -0.00012  -0.00855   2.48188
   R14        2.49087  -0.00364  -0.00837   0.00019  -0.00818   2.48269
   R15        2.49189  -0.00390  -0.00822  -0.00047  -0.00870   2.48320
    A1        2.06967  -0.00184  -0.00316  -0.02065  -0.02381   2.04586
    A2        2.10845   0.00088   0.00140   0.00946   0.01086   2.11931
    A3        1.60024   0.00009   0.00025   0.00096   0.00120   1.60144
    A4        2.10507   0.00096   0.00176   0.01119   0.01294   2.11802
    A5        1.59977   0.00008   0.00023   0.00085   0.00107   1.60084
    A6        2.10812   0.00104   0.00136   0.00927   0.01062   2.11874
    A7        2.10471   0.00116   0.00171   0.01098   0.01268   2.11739
    A8        1.62464   0.00031  -0.00014   0.00005  -0.00008   1.62455
    A9        2.07035  -0.00219  -0.00306  -0.02024  -0.02329   2.04706
   A10        1.70838   0.00042  -0.00008   0.00201   0.00193   1.71030
   A11        1.70719   0.00044  -0.00005   0.00217   0.00212   1.70931
   A12        1.62852  -0.00003   0.00040   0.00116   0.00155   1.63007
   A13        1.53906  -0.00010  -0.00061  -0.00236  -0.00297   1.53609
   A14        1.53869  -0.00012  -0.00062  -0.00248  -0.00309   1.53560
   A15        1.71188   0.00044   0.00061   0.00136   0.00190   1.71377
   A16        1.71279   0.00041   0.00053   0.00129   0.00176   1.71455
   A17        2.13675   0.00188   0.00616   0.01096   0.01712   2.15387
   A18        2.13870   0.00174   0.00560   0.01041   0.01601   2.15471
   A19        2.00773  -0.00362  -0.01176  -0.02137  -0.03313   1.97460
   A20        1.60122   0.00023   0.00039   0.00035   0.00076   1.60198
   A21        1.60132   0.00025   0.00044   0.00049   0.00096   1.60228
   A22        0.45632  -0.00008   0.00028  -0.00212  -0.00188   0.45443
   A23        1.65269  -0.00003   0.00058   0.00001   0.00059   1.65328
   A24        1.71780  -0.00056  -0.00122  -0.00362  -0.00491   1.71289
   A25        1.33538   0.00013   0.00005   0.00010   0.00021   1.33559
   A26        1.65130  -0.00003   0.00057   0.00024   0.00081   1.65211
   A27        1.33537   0.00011   0.00001  -0.00006  -0.00001   1.33537
   A28        1.71972  -0.00058  -0.00129  -0.00378  -0.00515   1.71457
   A29        2.14228   0.00244   0.00610   0.00780   0.01389   2.15618
   A30        2.14068   0.00261   0.00670   0.00815   0.01484   2.15552
   A31        2.00022  -0.00505  -0.01280  -0.01594  -0.02873   1.97148
    D1       -0.00133  -0.00003  -0.00018   0.00302   0.00283   0.00151
    D2       -3.13997   0.00021   0.00022  -0.00071  -0.00048  -3.14045
    D3        1.57074   0.00008  -0.00001   0.00117   0.00116   1.57191
    D4        3.13984  -0.00021  -0.00024   0.00066   0.00042   3.14026
    D5        0.00120   0.00004   0.00017  -0.00306  -0.00290  -0.00170
    D6       -1.57127  -0.00010  -0.00007  -0.00119  -0.00125  -1.57252
    D7       -2.10637  -0.00082  -0.00120  -0.00907  -0.01027  -2.11664
    D8        2.04085  -0.00270  -0.00734  -0.01993  -0.02727   2.01359
    D9        0.03153   0.00092   0.00438   0.00124   0.00561   0.03714
   D10        2.10571   0.00101   0.00194   0.01153   0.01346   2.11918
   D11       -0.03025  -0.00086  -0.00420   0.00066  -0.00353  -0.03379
   D12       -2.03958   0.00275   0.00752   0.02183   0.02935  -2.01023
   D13        3.11412  -0.00081  -0.00462  -0.00154  -0.00618   3.10794
   D14        1.07426   0.00275   0.00731   0.02000   0.02731   1.10156
   D15       -1.06641  -0.00288  -0.00783  -0.02154  -0.02937  -1.09578
   D16       -3.10627   0.00068   0.00409   0.00000   0.00411  -3.10216
   D17        2.14291   0.00249   0.00628   0.00816   0.01443   2.15734
   D18       -2.13861  -0.00255  -0.00650  -0.00777  -0.01427  -2.15288
   D19        0.22808  -0.00006   0.00008  -0.00112  -0.00106   0.22702
   D20       -0.22977   0.00002  -0.00021   0.00099   0.00080  -0.22897
   D21       -1.57225   0.00007  -0.00020   0.00143   0.00123  -1.57101
   D22        1.57156  -0.00009   0.00011  -0.00152  -0.00141   1.57015
   D23        1.79793  -0.00009  -0.00005  -0.00256  -0.00261   1.79532
   D24        1.34008  -0.00001  -0.00034  -0.00044  -0.00075   1.33933
   D25       -0.00239   0.00004  -0.00033   0.00000  -0.00032  -0.00271
   D26        3.14141  -0.00013  -0.00003  -0.00295  -0.00296   3.13845
   D27       -1.34145   0.00002   0.00026   0.00048   0.00071  -1.34074
   D28       -1.79930   0.00009  -0.00004   0.00260   0.00257  -1.79673
   D29        3.14141   0.00014  -0.00003   0.00304   0.00300  -3.13877
   D30        0.00203  -0.00002   0.00028   0.00009   0.00036   0.00239
         Item               Value     Threshold  Converged?
 Maximum Force            0.005050     0.000450     NO 
 RMS     Force            0.001603     0.000300     NO 
 Maximum Displacement     0.041786     0.001800     NO 
 RMS     Displacement     0.011539     0.001200     NO 
 Predicted change in Energy=-6.298789D-04
 GradGradGradGradGradGradGradGradGradGradGradGradGradGradGradGradGradGrad

                          Input orientation:                          
 ---------------------------------------------------------------------
 Center     Atomic      Atomic             Coordinates (Angstroms)
 Number     Number       Type             X           Y           Z
 ---------------------------------------------------------------------
      1          6           0       -0.011727    0.004531   -0.007610
      2          1           0        0.010862    0.003309    1.076197
      3          1           0        0.941766    0.003658   -0.523448
      4          6           0       -1.156817    0.003909   -0.674960
      5          1           0       -2.110776    0.003549   -0.159759
      6          1           0       -1.177334    0.004077   -1.758990
      7          6           0       -0.205932    3.989348   -0.121384
      8          6           0       -1.344902    3.993108   -0.782276
      9          9           0        0.970014    3.984290   -0.706870
     10          9           0       -0.129628    3.984214    1.189744
     11          9           0       -1.423163    3.995158   -2.093724
     12          9           0       -2.522187    3.994724   -0.198558
 ---------------------------------------------------------------------
                    Distance matrix (angstroms):
                    1          2          3          4          5
     1  C    0.000000
     2  H    1.084044   0.000000
     3  H    1.084084   1.850796   0.000000
     4  C    1.325364   2.104763   2.104046   0.000000
     5  H    2.104556   2.455389   3.074131   1.084191   0.000000
     6  H    2.103799   3.074102   2.452988   1.084224   1.851717
     7  C    3.991169   4.167698   4.167084   4.134532   4.417748
     8  C    4.276237   4.605487   4.605599   3.995072   4.109826
     9  F    4.158276   4.466263   3.984955   4.513077   5.063289
    10  F    4.157575   3.985001   4.464049   4.513875   4.646698
    11  F    4.719018   5.295251   4.898033   4.244279   4.488427
    12  F    4.718104   4.896195   5.294632   4.244738   4.012511
                    6          7          8          9         10
     6  H    0.000000
     7  C    4.416759   0.000000
     8  C    4.110282   1.316831   0.000000
     9  F    4.643291   1.313647   2.316161   0.000000
    10  F    5.063024   1.313357   2.316427   2.192340   0.000000
    11  F    4.012631   2.317716   1.313783   2.766005   3.529096
    12  F    4.490973   2.317546   1.314050   3.529016   2.766194
                   11         12
    11  F    0.000000
    12  F    2.190777   0.000000
 Stoichiometry    C4H4F4
 Framework group  C1[X(C4H4F4)]
 Deg. of freedom    30
 Full point group                 C1      NOp   1
 Largest Abelian subgroup         C1      NOp   1
 Largest concise Abelian subgroup C1      NOp   1
                         Standard orientation:                         
 ---------------------------------------------------------------------
 Center     Atomic      Atomic             Coordinates (Angstroms)
 Number     Number       Type             X           Y           Z
 ---------------------------------------------------------------------
      1          6           0       -3.058077    0.518826   -0.001193
      2          1           0       -3.116837    1.079446   -0.927153
      3          1           0       -3.116880    1.081374    0.923642
      4          6           0       -2.923166   -0.799652    0.001023
      5          1           0       -2.865515   -1.363044   -0.923495
      6          1           0       -2.865626   -1.358708    0.928217
      7          6           0        0.928868    0.702411    0.000116
      8          6           0        1.067264   -0.607127   -0.000180
      9          9           0        0.849785    1.421118    1.096872
     10          9           0        0.849811    1.422378   -1.095468
     11          9           0        1.143442   -1.329253    1.094697
     12          9           0        1.143131   -1.328221   -1.096080
 ---------------------------------------------------------------------
 Rotational constants (GHZ):      1.9006082      1.1362486      0.9694994
 Standard basis: 6-311++G(d,p) (5D, 7F)
 There are   212 symmetry adapted cartesian basis functions of A   symmetry.
 There are   204 symmetry adapted basis functions of A   symmetry.
   204 basis functions,   324 primitive gaussians,   212 cartesian basis functions
    32 alpha electrons       32 beta electrons
       nuclear repulsion energy       371.8465553939 Hartrees.
 NAtoms=   12 NActive=   12 NUniq=   12 SFac= 1.00D+00 NAtFMM=   60 NAOKFM=F Big=F
 Integral buffers will be    131072 words long.
 Raffenetti 2 integral format.
 Two-electron integral symmetry is turned on.
 One-electron integrals computed using PRISM.
 NBasis=   204 RedAO= T EigKep=  2.99D-05  NBF=   204
 NBsUse=   204 1.00D-06 EigRej= -1.00D+00 NBFU=   204
 Initial guess from the checkpoint file:  "c2h4-c2f4-camb3lyp-pople.chk"
 B after Tr=     0.000000    0.000000    0.000000
         Rot=    0.999998    0.000110   -0.000003   -0.001849 Ang=   0.21 deg.
 ExpMin= 3.60D-02 ExpMax= 1.14D+04 ExpMxC= 1.72D+03 IAcc=3 IRadAn=         5 AccDes= 0.00D+00
 Harris functional with IExCor=20419 and IRadAn=       5 diagonalized for initial guess.
 HarFok:  IExCor=20419 AccDes= 0.00D+00 IRadAn=         5 IDoV= 1 UseB2=F ITyADJ=14
 ICtDFT=  3500011 ScaDFX=  1.000000  1.000000  1.000000  1.000000
 FoFCou: FMM=F IPFlag=           0 FMFlag=      100000 FMFlg1=           0
         NFxFlg=           0 DoJE=T BraDBF=F KetDBF=T FulRan=T
         wScrn=  0.000000 ICntrl=     500 IOpCl=  0 I1Cent=   200000004 NGrid=           0
         NMat0=    1 NMatS0=      1 NMatT0=    0 NMatD0=    1 NMtDS0=    0 NMtDT0=    0
 Petite list used in FoFCou.
 Keep R1 ints in memory in canonical form, NReq=442237348.
 Requested convergence on RMS density matrix=1.00D-08 within 128 cycles.
 Requested convergence on MAX density matrix=1.00D-06.
 Requested convergence on             energy=1.00D-06.
 No special actions if energy rises.
 SCF Done:  E(RCAM-B3LYP) =  -554.103950769     A.U. after    9 cycles
            NFock=  9  Conv=0.74D-08     -V/T= 2.0025
 Calling FoFJK, ICntrl=      2127 FMM=F ISym2X=0 I1Cent= 0 IOpClX= 0 NMat=1 NMatS=1 NMatT=0.
 ***** Axes restored to original set *****
 -------------------------------------------------------------------
 Center     Atomic                   Forces (Hartrees/Bohr)
 Number     Number              X              Y              Z
 -------------------------------------------------------------------
      1        6          -0.002204771    0.000238960   -0.001336932
      2        1           0.000722755   -0.000078803    0.000040880
      3        1           0.000410852   -0.000071213    0.000675526
      4        6           0.002305942    0.000610172    0.001287236
      5        1          -0.000357584   -0.000170569   -0.000722693
      6        1          -0.000877279   -0.000178129    0.000056003
      7        6          -0.003062641   -0.000031377   -0.002047360
      8        6           0.002469325    0.000267799    0.001689436
      9        9           0.001022620   -0.000137946   -0.000646720
     10        9          -0.000088280   -0.000149314    0.001366706
     11        9           0.000476221   -0.000154584   -0.001349140
     12        9          -0.000817161   -0.000144997    0.000987058
 -------------------------------------------------------------------
 Cartesian Forces:  Max     0.003062641 RMS     0.001135380

 GradGradGradGradGradGradGradGradGradGradGradGradGradGradGradGradGradGrad
 Berny optimization.
 Using GEDIIS/GDIIS optimizer.
 FormGI is forming the generalized inverse of G from B-inverse, IUseBI=4.
 Internal  Forces:  Max     0.002362614 RMS     0.000470993
 Search for a local minimum.
 Step number   3 out of a maximum of   86
 All quantities printed in internal units (Hartrees-Bohrs-Radians)
 Mixed Optimization -- En-DIIS/RFO-DIIS
 Update second derivatives using D2CorX and points    1    2    3
 DE= -5.66D-04 DEPred=-6.30D-04 R= 8.99D-01
 TightC=F SS=  1.41D+00  RLast= 9.88D-02 DXNew= 8.4853D-01 2.9652D-01
 Trust test= 8.99D-01 RLast= 9.88D-02 DXMaxT set to 5.05D-01
 ITU=  1  1  0
 Use linear search instead of GDIIS.
     Eigenvalues ---    0.00559   0.00763   0.02986   0.03016   0.04033
     Eigenvalues ---    0.04896   0.05209   0.05888   0.06631   0.06767
     Eigenvalues ---    0.07430   0.08354   0.08699   0.09452   0.11644
     Eigenvalues ---    0.12553   0.14725   0.15729   0.19403   0.19581
     Eigenvalues ---    0.34659   0.35916   0.37218   0.37231   0.52402
     Eigenvalues ---    0.54991   0.55021   0.55021   0.56640   0.58776
 RFO step:  Lambda=-5.63677901D-05 EMin= 5.59176765D-03
 Quartic linear search produced a step of -0.02288.
 Iteration  1 RMS(Cart)=  0.00327775 RMS(Int)=  0.00000374
 Iteration  2 RMS(Cart)=  0.00000350 RMS(Int)=  0.00000090
 Iteration  3 RMS(Cart)=  0.00000000 RMS(Int)=  0.00000090
 Variable       Old X    -DE/DX   Delta X   Delta X   Delta X     New X
                                 (Linear)    (Quad)   (Total)
    R1        2.04855   0.00006  -0.00006   0.00036   0.00030   2.04885
    R2        2.04862   0.00004  -0.00006   0.00032   0.00026   2.04888
    R3        2.50457  -0.00124   0.00000  -0.00245  -0.00245   2.50212
    R4        7.54222  -0.00007   0.00034  -0.01583  -0.01549   7.52672
    R5        2.04882  -0.00005  -0.00007   0.00017   0.00010   2.04892
    R6        2.04889  -0.00006  -0.00007   0.00013   0.00007   2.04895
    R7        7.81313  -0.00044   0.00027  -0.01583  -0.01556   7.79758
    R8        7.54959  -0.00011   0.00019  -0.01310  -0.01291   7.53668
    R9        7.76645   0.00012   0.00025  -0.01022  -0.00997   7.75647
   R10        7.76731   0.00013   0.00026  -0.01027  -0.01001   7.75729
   R11        2.48845  -0.00236  -0.00015  -0.00417  -0.00432   2.48413
   R12        2.48243   0.00120   0.00021   0.00150   0.00170   2.48414
   R13        2.48188   0.00136   0.00020   0.00180   0.00199   2.48388
   R14        2.48269   0.00132   0.00019   0.00175   0.00194   2.48463
   R15        2.48320   0.00117   0.00020   0.00146   0.00166   2.48486
    A1        2.04586  -0.00052   0.00054  -0.00771  -0.00717   2.03869
    A2        2.11931   0.00025  -0.00025   0.00338   0.00313   2.12243
    A3        1.60144   0.00006  -0.00003   0.00074   0.00071   1.60215
    A4        2.11802   0.00027  -0.00030   0.00433   0.00404   2.12205
    A5        1.60084   0.00005  -0.00002   0.00065   0.00062   1.60146
    A6        2.11874   0.00030  -0.00024   0.00347   0.00322   2.12196
    A7        2.11739   0.00035  -0.00029   0.00442   0.00413   2.12152
    A8        1.62455  -0.00013   0.00000  -0.00018  -0.00018   1.62437
    A9        2.04706  -0.00065   0.00053  -0.00789  -0.00736   2.03970
   A10        1.71030   0.00006  -0.00004   0.00223   0.00219   1.71249
   A11        1.70931   0.00006  -0.00005   0.00234   0.00229   1.71160
   A12        1.63007   0.00003  -0.00004   0.00122   0.00118   1.63126
   A13        1.53609  -0.00004   0.00007  -0.00085  -0.00078   1.53531
   A14        1.53560  -0.00005   0.00007  -0.00091  -0.00084   1.53476
   A15        1.71377  -0.00013  -0.00004  -0.00046  -0.00050   1.71327
   A16        1.71455  -0.00014  -0.00004  -0.00052  -0.00056   1.71399
   A17        2.15387  -0.00003  -0.00039   0.00093   0.00054   2.15441
   A18        2.15471  -0.00008  -0.00037   0.00043   0.00007   2.15477
   A19        1.97460   0.00011   0.00076  -0.00137  -0.00061   1.97399
   A20        1.60198  -0.00011  -0.00002  -0.00033  -0.00035   1.60163
   A21        1.60228  -0.00010  -0.00002  -0.00023  -0.00025   1.60203
   A22        0.45443  -0.00011   0.00004  -0.00047  -0.00043   0.45401
   A23        1.65328   0.00019  -0.00001   0.00012   0.00010   1.65338
   A24        1.71289  -0.00010   0.00011  -0.00084  -0.00073   1.71216
   A25        1.33559  -0.00009   0.00000  -0.00066  -0.00066   1.33492
   A26        1.65211   0.00019  -0.00002   0.00022   0.00020   1.65231
   A27        1.33537  -0.00010   0.00000  -0.00077  -0.00077   1.33460
   A28        1.71457  -0.00011   0.00012  -0.00094  -0.00082   1.71374
   A29        2.15618  -0.00037  -0.00032  -0.00097  -0.00128   2.15489
   A30        2.15552  -0.00030  -0.00034  -0.00058  -0.00092   2.15460
   A31        1.97148   0.00067   0.00066   0.00155   0.00220   1.97369
    D1        0.00151  -0.00004  -0.00006  -0.00092  -0.00098   0.00052
    D2       -3.14045   0.00012   0.00001   0.00206   0.00207  -3.13838
    D3        1.57191   0.00003  -0.00003   0.00055   0.00053   1.57243
    D4        3.14026  -0.00012  -0.00001  -0.00203  -0.00204   3.13822
    D5       -0.00170   0.00005   0.00007   0.00094   0.00101  -0.00069
    D6       -1.57252  -0.00004   0.00003  -0.00056  -0.00053  -1.57306
    D7       -2.11664  -0.00022   0.00023  -0.00309  -0.00286  -2.11950
    D8        2.01359  -0.00019   0.00062  -0.00398  -0.00336   2.01023
    D9        0.03714  -0.00031  -0.00013  -0.00271  -0.00284   0.03430
   D10        2.11918   0.00029  -0.00031   0.00456   0.00426   2.12343
   D11       -0.03379   0.00033   0.00008   0.00367   0.00375  -0.03003
   D12       -2.01023   0.00021  -0.00067   0.00495   0.00428  -2.00596
   D13        3.10794   0.00033   0.00014   0.00226   0.00240   3.11034
   D14        1.10156   0.00027  -0.00062   0.00389   0.00327   1.10483
   D15       -1.09578  -0.00032   0.00067  -0.00484  -0.00417  -1.09995
   D16       -3.10216  -0.00038  -0.00009  -0.00320  -0.00330  -3.10546
   D17        2.15734  -0.00034  -0.00033  -0.00070  -0.00103   2.15631
   D18       -2.15288   0.00032   0.00033   0.00082   0.00115  -2.15173
   D19        0.22702  -0.00006   0.00002  -0.00029  -0.00026   0.22676
   D20       -0.22897   0.00005  -0.00002   0.00018   0.00016  -0.22881
   D21       -1.57101   0.00002  -0.00003   0.00089   0.00086  -1.57015
   D22        1.57015  -0.00003   0.00003  -0.00096  -0.00093   1.56922
   D23        1.79532  -0.00009   0.00006  -0.00045  -0.00039   1.79493
   D24        1.33933   0.00002   0.00002   0.00001   0.00003   1.33936
   D25       -0.00271  -0.00001   0.00001   0.00073   0.00073  -0.00198
   D26        3.13845  -0.00006   0.00007  -0.00113  -0.00106   3.13739
   D27       -1.34074  -0.00002  -0.00002  -0.00002  -0.00004  -1.34078
   D28       -1.79673   0.00009  -0.00006   0.00044   0.00038  -1.79634
   D29       -3.13877   0.00007  -0.00007   0.00116   0.00109  -3.13769
   D30        0.00239   0.00002  -0.00001  -0.00070  -0.00070   0.00168
         Item               Value     Threshold  Converged?
 Maximum Force            0.002363     0.000450     NO 
 RMS     Force            0.000471     0.000300     NO 
 Maximum Displacement     0.008881     0.001800     NO 
 RMS     Displacement     0.003278     0.001200     NO 
 Predicted change in Energy=-2.840727D-05
 GradGradGradGradGradGradGradGradGradGradGradGradGradGradGradGradGradGrad

                          Input orientation:                          
 ---------------------------------------------------------------------
 Center     Atomic      Atomic             Coordinates (Angstroms)
 Number     Number       Type             X           Y           Z
 ---------------------------------------------------------------------
      1          6           0       -0.012331    0.008954   -0.008111
      2          1           0        0.013599    0.007299    1.075780
      3          1           0        0.943381    0.007785   -0.520111
      4          6           0       -1.156268    0.008053   -0.674865
      5          1           0       -2.111953    0.006105   -0.162765
      6          1           0       -1.181210    0.006745   -1.758836
      7          6           0       -0.207173    3.985517   -0.122284
      8          6           0       -1.344287    3.990424   -0.781807
      9          9           0        0.969781    3.979656   -0.707759
     10          9           0       -0.130474    3.979514    1.189874
     11          9           0       -1.421178    3.992145   -2.094365
     12          9           0       -2.521710    3.991676   -0.196390
 ---------------------------------------------------------------------
                    Distance matrix (angstroms):
                    1          2          3          4          5
     1  C    0.000000
     2  H    1.084202   0.000000
     3  H    1.084219   1.846987   0.000000
     4  C    1.324067   2.105552   2.105345   0.000000
     5  H    2.105312   2.460075   3.076161   1.084243   0.000000
     6  H    2.105070   3.076136   2.459334   1.084259   1.847627
     7  C    3.982970   4.160566   4.159855   4.126300   4.411978
     8  C    4.269053   4.599975   4.600361   3.988242   4.104550
     9  F    4.149762   4.458129   3.976389   4.504975   5.057985
    10  F    4.149033   3.976464   4.455541   4.505775   4.641538
    11  F    4.712018   5.290311   4.893316   4.237706   4.482941
    12  F    4.711105   4.890958   5.289900   4.238234   4.006721
                    6          7          8          9         10
     6  H    0.000000
     7  C    4.411085   0.000000
     8  C    4.104982   1.314543   0.000000
     9  F    4.638485   1.314548   2.315277   0.000000
    10  F    5.057848   1.314412   2.315381   2.193530   0.000000
    11  F    4.006691   2.315806   1.314809   2.763967   3.528782
    12  F    4.485293   2.315731   1.314929   3.528760   2.764034
                   11         12
    11  F    0.000000
    12  F    2.193964   0.000000
 Stoichiometry    C4H4F4
 Framework group  C1[X(C4H4F4)]
 Deg. of freedom    30
 Full point group                 C1      NOp   1
 Largest Abelian subgroup         C1      NOp   1
 Largest concise Abelian subgroup C1      NOp   1
                         Standard orientation:                         
 ---------------------------------------------------------------------
 Center     Atomic      Atomic             Coordinates (Angstroms)
 Number     Number       Type             X           Y           Z
 ---------------------------------------------------------------------
      1          6           0       -3.052162    0.516615   -0.001187
      2          1           0       -3.111995    1.080020   -0.925573
      3          1           0       -3.112036    1.082969    0.921412
      4          6           0       -2.916818   -0.800515    0.001165
      5          1           0       -2.860053   -1.367117   -0.921507
      6          1           0       -2.860016   -1.363414    0.926117
      7          6           0        0.926530    0.701158    0.000219
      8          6           0        1.066671   -0.605893   -0.000256
      9          9           0        0.846076    1.420662    1.097433
     10          9           0        0.846083    1.421781   -1.096097
     11          9           0        1.142896   -1.327321    1.096309
     12          9           0        1.142586   -1.326304   -1.097655
 ---------------------------------------------------------------------
 Rotational constants (GHZ):      1.9013607      1.1392766      0.9725265
 Standard basis: 6-311++G(d,p) (5D, 7F)
 There are   212 symmetry adapted cartesian basis functions of A   symmetry.
 There are   204 symmetry adapted basis functions of A   symmetry.
   204 basis functions,   324 primitive gaussians,   212 cartesian basis functions
    32 alpha electrons       32 beta electrons
       nuclear repulsion energy       371.9901412965 Hartrees.
 NAtoms=   12 NActive=   12 NUniq=   12 SFac= 1.00D+00 NAtFMM=   60 NAOKFM=F Big=F
 Integral buffers will be    131072 words long.
 Raffenetti 2 integral format.
 Two-electron integral symmetry is turned on.
 One-electron integrals computed using PRISM.
 NBasis=   204 RedAO= T EigKep=  2.96D-05  NBF=   204
 NBsUse=   204 1.00D-06 EigRej= -1.00D+00 NBFU=   204
 Initial guess from the checkpoint file:  "c2h4-c2f4-camb3lyp-pople.chk"
 B after Tr=     0.000000    0.000000    0.000000
         Rot=    1.000000    0.000014   -0.000001   -0.000386 Ang=   0.04 deg.
 Keep R1 ints in memory in canonical form, NReq=442237348.
 Requested convergence on RMS density matrix=1.00D-08 within 128 cycles.
 Requested convergence on MAX density matrix=1.00D-06.
 Requested convergence on             energy=1.00D-06.
 No special actions if energy rises.
 SCF Done:  E(RCAM-B3LYP) =  -554.103986943     A.U. after    8 cycles
            NFock=  8  Conv=0.52D-08     -V/T= 2.0025
 Calling FoFJK, ICntrl=      2127 FMM=F ISym2X=0 I1Cent= 0 IOpClX= 0 NMat=1 NMatS=1 NMatT=0.
 ***** Axes restored to original set *****
 -------------------------------------------------------------------
 Center     Atomic                   Forces (Hartrees/Bohr)
 Number     Number              X              Y              Z
 -------------------------------------------------------------------
      1        6          -0.000420101    0.000203826   -0.000260771
      2        1           0.000197208   -0.000041538    0.000019668
      3        1           0.000116242   -0.000035092    0.000182742
      4        6           0.000532408    0.000417770    0.000286058
      5        1          -0.000137926   -0.000093375   -0.000226026
      6        1          -0.000288375   -0.000099679   -0.000001944
      7        6           0.000215253   -0.000065417    0.000001829
      8        6          -0.000265824    0.000159144   -0.000041439
      9        9           0.000235880   -0.000113066   -0.000258926
     10        9          -0.000121011   -0.000123014    0.000409543
     11        9           0.000108363   -0.000109277   -0.000321939
     12        9          -0.000172115   -0.000100283    0.000211204
 -------------------------------------------------------------------
 Cartesian Forces:  Max     0.000532408 RMS     0.000222350

 GradGradGradGradGradGradGradGradGradGradGradGradGradGradGradGradGradGrad
 Berny optimization.
 Using GEDIIS/GDIIS optimizer.
 FormGI is forming the generalized inverse of G from B-inverse, IUseBI=4.
 Internal  Forces:  Max     0.000400555 RMS     0.000112954
 Search for a local minimum.
 Step number   4 out of a maximum of   86
 All quantities printed in internal units (Hartrees-Bohrs-Radians)
 Mixed Optimization -- En-DIIS/RFO-DIIS
 Swapping is turned off.
 Update second derivatives using D2CorX and points    1    2    3    4
 DE= -3.62D-05 DEPred=-2.84D-05 R= 1.27D+00
 TightC=F SS=  1.41D+00  RLast= 3.48D-02 DXNew= 8.4853D-01 1.0444D-01
 Trust test= 1.27D+00 RLast= 3.48D-02 DXMaxT set to 5.05D-01
 ITU=  1  1  1  0
     Eigenvalues ---    0.00459   0.00764   0.02887   0.02988   0.04009
     Eigenvalues ---    0.04886   0.05213   0.05888   0.06494   0.06639
     Eigenvalues ---    0.06890   0.08349   0.08675   0.09324   0.11603
     Eigenvalues ---    0.12556   0.14742   0.15725   0.19242   0.19404
     Eigenvalues ---    0.34662   0.35907   0.37216   0.37231   0.52237
     Eigenvalues ---    0.54936   0.55006   0.55021   0.55655   0.66312
 En-DIIS/RFO-DIIS IScMMF=        0 using points:     4    3
 RFO step:  Lambda=-2.69963777D-06.
 DidBck=F Rises=F RFO-DIIS coefs:    1.36495   -0.36495
 Iteration  1 RMS(Cart)=  0.00451126 RMS(Int)=  0.00000202
 Iteration  2 RMS(Cart)=  0.00000178 RMS(Int)=  0.00000088
 Iteration  3 RMS(Cart)=  0.00000000 RMS(Int)=  0.00000088
 Variable       Old X    -DE/DX   Delta X   Delta X   Delta X     New X
                                 (Linear)    (Quad)   (Total)
    R1        2.04885   0.00003   0.00011   0.00014   0.00025   2.04909
    R2        2.04888   0.00002   0.00009   0.00012   0.00021   2.04909
    R3        2.50212  -0.00011  -0.00089  -0.00005  -0.00095   2.50118
    R4        7.52672  -0.00017  -0.00565  -0.01849  -0.02414   7.50258
    R5        2.04892   0.00002   0.00004   0.00012   0.00016   2.04908
    R6        2.04895   0.00001   0.00002   0.00010   0.00013   2.04908
    R7        7.79758  -0.00011  -0.00568  -0.01586  -0.02154   7.77604
    R8        7.53668  -0.00008  -0.00471  -0.01498  -0.01969   7.51699
    R9        7.75647   0.00000  -0.00364  -0.01244  -0.01608   7.74039
   R10        7.75729   0.00000  -0.00365  -0.01238  -0.01603   7.74126
   R11        2.48413   0.00037  -0.00158   0.00174   0.00016   2.48429
   R12        2.48414   0.00033   0.00062   0.00020   0.00082   2.48496
   R13        2.48388   0.00040   0.00073   0.00034   0.00106   2.48494
   R14        2.48463   0.00032   0.00071   0.00014   0.00085   2.48548
   R15        2.48486   0.00025   0.00061   0.00003   0.00063   2.48549
    A1        2.03869  -0.00014  -0.00262  -0.00143  -0.00404   2.03465
    A2        2.12243   0.00007   0.00114   0.00061   0.00175   2.12419
    A3        1.60215   0.00001   0.00026   0.00017   0.00043   1.60258
    A4        2.12205   0.00007   0.00147   0.00081   0.00228   2.12433
    A5        1.60146   0.00000   0.00023   0.00012   0.00034   1.60181
    A6        2.12196   0.00011   0.00118   0.00081   0.00199   2.12395
    A7        2.12152   0.00012   0.00151   0.00104   0.00255   2.12407
    A8        1.62437   0.00003  -0.00007  -0.00048  -0.00055   1.62383
    A9        2.03970  -0.00023  -0.00269  -0.00186  -0.00454   2.03515
   A10        1.71249   0.00009   0.00080   0.00167   0.00247   1.71496
   A11        1.71160   0.00009   0.00083   0.00173   0.00257   1.71416
   A12        1.63126  -0.00001   0.00043   0.00068   0.00111   1.63237
   A13        1.53531  -0.00003  -0.00029  -0.00069  -0.00098   1.53433
   A14        1.53476  -0.00004  -0.00031  -0.00073  -0.00104   1.53372
   A15        1.71327  -0.00005  -0.00018  -0.00037  -0.00056   1.71271
   A16        1.71399  -0.00005  -0.00020  -0.00042  -0.00063   1.71337
   A17        2.15441  -0.00004   0.00020  -0.00020   0.00000   2.15441
   A18        2.15477  -0.00006   0.00002  -0.00037  -0.00035   2.15443
   A19        1.97399   0.00010  -0.00022   0.00057   0.00034   1.97433
   A20        1.60163  -0.00002  -0.00013  -0.00026  -0.00039   1.60125
   A21        1.60203  -0.00002  -0.00009  -0.00021  -0.00030   1.60173
   A22        0.45401  -0.00003  -0.00016   0.00050   0.00034   0.45435
   A23        1.65338  -0.00003   0.00004  -0.00041  -0.00037   1.65301
   A24        1.71216  -0.00003  -0.00027  -0.00028  -0.00055   1.71161
   A25        1.33492  -0.00002  -0.00024  -0.00067  -0.00092   1.33401
   A26        1.65231  -0.00003   0.00007  -0.00039  -0.00032   1.65199
   A27        1.33460  -0.00003  -0.00028  -0.00073  -0.00101   1.33359
   A28        1.71374  -0.00003  -0.00030  -0.00029  -0.00059   1.71316
   A29        2.15489  -0.00009  -0.00047  -0.00006  -0.00053   2.15437
   A30        2.15460  -0.00006  -0.00034   0.00009  -0.00025   2.15436
   A31        1.97369   0.00015   0.00080  -0.00004   0.00077   1.97445
    D1        0.00052  -0.00004  -0.00036  -0.00035  -0.00070  -0.00018
    D2       -3.13838   0.00009   0.00075   0.00154   0.00230  -3.13609
    D3        1.57243   0.00002   0.00019   0.00057   0.00076   1.57320
    D4        3.13822  -0.00009  -0.00075  -0.00146  -0.00220   3.13602
    D5       -0.00069   0.00004   0.00037   0.00043   0.00080   0.00011
    D6       -1.57306  -0.00002  -0.00019  -0.00054  -0.00073  -1.57379
    D7       -2.11950  -0.00006  -0.00104  -0.00055  -0.00159  -2.12108
    D8        2.01023  -0.00002  -0.00123  -0.00031  -0.00154   2.00869
    D9        0.03430  -0.00012  -0.00104  -0.00096  -0.00199   0.03231
   D10        2.12343   0.00008   0.00155   0.00087   0.00242   2.12585
[...]
 ! R9    R(5,8)                  3.8434         -DE/DX =   -0.0009              !
 ! R10   R(6,8)                  3.8435         -DE/DX =   -0.0009              !
 ! R11   R(7,8)                  1.3246         -DE/DX =    0.0214              !
 ! R12   R(7,9)                  1.3166         -DE/DX =    0.0033              !
 ! R13   R(7,10)                 1.3166         -DE/DX =    0.0033              !
 ! R14   R(8,11)                 1.3166         -DE/DX =    0.0033              !
 ! R15   R(8,12)                 1.3166         -DE/DX =    0.0033              !
 ! A1    A(2,1,3)              116.6606         -DE/DX =   -0.0001              !
 ! A2    A(2,1,4)              121.6694         -DE/DX =    0.0                 !
 ! A3    A(2,1,7)               90.8456         -DE/DX =   -0.0003              !
 ! A4    A(3,1,4)              121.6692         -DE/DX =    0.0                 !
 ! A5    A(3,1,7)               90.8235         -DE/DX =   -0.0003              !
 ! A6    A(1,4,5)              121.679          -DE/DX =    0.0002              !
 ! A7    A(1,4,6)              121.679          -DE/DX =    0.0002              !
 ! A8    A(1,4,8)               91.2905         -DE/DX =    0.0015              !
 ! A9    A(5,4,6)              116.641          -DE/DX =   -0.0005              !
 ! A10   A(5,4,7)               99.7055         -DE/DX =    0.001               !
 ! A11   A(6,4,7)               99.6842         -DE/DX =    0.001               !
 ! A12   A(1,7,8)               89.7521         -DE/DX =   -0.0003              !
 ! A13   A(1,7,9)               89.8007         -DE/DX =    0.0001              !
 ! A14   A(1,7,10)              89.8241         -DE/DX =    0.0001              !
 ! A15   A(4,7,9)              100.5032         -DE/DX =    0.0005              !
 ! A16   A(4,7,10)             100.5531         -DE/DX =    0.0005              !
 ! A17   A(8,7,9)              123.4387         -DE/DX =    0.0002              !
 ! A18   A(8,7,10)             123.4388         -DE/DX =    0.0002              !
 ! A19   A(9,7,10)             113.1185         -DE/DX =   -0.0003              !
 ! A20   A(4,8,11)              89.4851         -DE/DX =    0.0006              !
 ! A21   A(4,8,12)              89.5379         -DE/DX =    0.0006              !
 ! A22   A(5,8,6)               27.7949         -DE/DX =    0.0002              !
 ! A23   A(5,8,7)               98.7966         -DE/DX =   -0.0017              !
 ! A24   A(5,8,11)              96.3083         -DE/DX =    0.0005              !
 ! A25   A(5,8,12)              73.152          -DE/DX =    0.0005              !
 ! A26   A(6,8,7)               98.7728         -DE/DX =   -0.0017              !
 ! A27   A(6,8,11)              73.1007         -DE/DX =    0.0005              !
 ! A28   A(6,8,12)              96.384          -DE/DX =    0.0005              !
 ! A29   A(7,8,11)             123.4498         -DE/DX =    0.0003              !
 ! A30   A(7,8,12)             123.4496         -DE/DX =    0.0003              !
 ! A31   A(11,8,12)            113.0963         -DE/DX =   -0.0006              !
 ! D1    D(2,1,4,5)             -0.0211         -DE/DX =   -0.0002              !
 ! D2    D(2,1,4,6)           -179.637          -DE/DX =    0.0004              !
 ! D3    D(2,1,4,8)             90.1667         -DE/DX =    0.0001              !
 ! D4    D(3,1,4,5)            179.637          -DE/DX =   -0.0004              !
 ! D5    D(3,1,4,6)              0.0211         -DE/DX =    0.0002              !
 ! D6    D(3,1,4,8)            -90.1752         -DE/DX =   -0.0001              !
 ! D7    D(2,1,7,8)           -121.6117         -DE/DX =   -0.0001              !
 ! D8    D(2,1,7,9)            114.948          -DE/DX =   -0.0002              !
 ! D9    D(2,1,7,10)             1.8286         -DE/DX =    0.0001              !
 ! D10   D(3,1,7,8)            121.708          -DE/DX =    0.0001              !
 ! D11   D(3,1,7,9)             -1.7323         -DE/DX =   -0.0001              !
 ! D12   D(3,1,7,10)          -114.8517         -DE/DX =    0.0002              !
 ! D13   D(5,4,7,9)            178.4233         -DE/DX =   -0.0001              !
 ! D14   D(5,4,7,10)            62.2726         -DE/DX =    0.0                 !
 ! D15   D(6,4,7,9)            -62.1919         -DE/DX =    0.0                 !
 ! D16   D(6,4,7,10)          -178.3426         -DE/DX =    0.0001              !
 ! D17   D(1,4,8,11)           123.4973         -DE/DX =    0.0003              !
 ! D18   D(1,4,8,12)          -123.4001         -DE/DX =   -0.0003              !
 ! D19   D(1,7,8,5)             14.0418         -DE/DX =    0.0                 !
 ! D20   D(1,7,8,6)            -14.0898         -DE/DX =    0.0                 !
 ! D21   D(1,7,8,11)           -89.5786         -DE/DX =    0.0005              !
 ! D22   D(1,7,8,12)            89.6073         -DE/DX =   -0.0005              !
 ! D23   D(9,7,8,5)            103.6393         -DE/DX =   -0.0001              !
 ! D24   D(9,7,8,6)             75.5077         -DE/DX =   -0.0001              !
 ! D25   D(9,7,8,11)             0.0189         -DE/DX =    0.0004              !
 ! D26   D(9,7,8,12)           179.2048         -DE/DX =   -0.0006              !
 ! D27   D(10,7,8,5)           -75.5837         -DE/DX =    0.0001              !
 ! D28   D(10,7,8,6)          -103.7153         -DE/DX =    0.0001              !
 ! D29   D(10,7,8,11)         -179.2041         -DE/DX =    0.0006              !
 ! D30   D(10,7,8,12)           -0.0182         -DE/DX =   -0.0004              !
 --------------------------------------------------------------------------------
 GradGradGradGradGradGradGradGradGradGradGradGradGradGradGradGradGradGrad

                          Input orientation:                          
 ---------------------------------------------------------------------
 Center     Atomic      Atomic             Coordinates (Angstroms)
 Number     Number       Type             X           Y           Z
 ---------------------------------------------------------------------
      1          6           0       -0.047787    0.154699   -0.030137
      2          1           0       -0.019976    0.161061    1.053741
      3          1           0        0.908221    0.162204   -0.541603
      4          6           0       -1.188078    0.132707   -0.693595
      5          1           0       -2.143362    0.120254   -0.182077
      6          1           0       -1.215480    0.121397   -1.776875
      7          6           0       -0.181697    3.885554   -0.106337
      8          6           0       -1.303190    3.827410   -0.757614
      9          9           0        0.993116    3.910927   -0.690844
     10          9           0       -0.107096    3.910670    1.203733
     11          9           0       -1.377029    3.788617   -2.067501
     12          9           0       -2.477464    3.788374   -0.172531
 ---------------------------------------------------------------------
                    Distance matrix (angstroms):
                    1          2          3          4          5
     1  C    0.000000
     2  H    1.084253   0.000000
     3  H    1.084254   1.845718   0.000000
     4  C    1.319441   2.102011   2.102009   0.000000
     5  H    2.101358   2.457169   3.072975   1.083684   0.000000
     6  H    2.101359   3.072978   2.457167   1.083685   1.845087
     7  C    3.734035   3.904329   3.903935   3.929572   4.246334
     8  C    3.948932   4.285996   4.286109   3.697050   3.844494
     9  F    3.953387   4.258102   3.752653   4.362633   4.946266
    10  F    3.953893   3.753619   4.257706   4.363643   4.520410
    11  F    4.372997   4.974225   4.549901   3.910115   4.195114
    12  F    4.373466   4.549768   4.974754   3.911256   3.683317
                    6          7          8          9         10
     6  H    0.000000
     7  C    4.245973   0.000000
     8  C    3.844622   1.298187   0.000000
     9  F    4.518617   1.312432   2.298795   0.000000
    10  F    4.946830   1.312433   2.298795   2.190865   0.000000
    11  F    3.682264   2.298778   1.312540   2.743672   3.511211
    12  F    4.196814   2.298776   1.312541   3.511209   2.743665
                   11         12
    11  F    0.000000
    12  F    2.191317   0.000000
 Stoichiometry    C4H4F4
 Framework group  C1[X(C4H4F4)]
 Deg. of freedom    30
 Full point group                 C1      NOp   1
 Largest Abelian subgroup         C1      NOp   1
 Largest concise Abelian subgroup C1      NOp   1
                         Standard orientation:                         
 ---------------------------------------------------------------------
 Center     Atomic      Atomic             Coordinates (Angstroms)
 Number     Number       Type             X           Y           Z
 ---------------------------------------------------------------------
      1          6           0       -2.795364    0.666462   -0.000836
      2          1           0       -2.808842    1.234837   -0.924077
      3          1           0       -2.808959    1.236075    0.921640
      4          6           0       -2.769900   -0.652733    0.000053
      5          1           0       -2.761273   -1.221870   -0.922108
      6          1           0       -2.761391   -1.220631    0.922979
      7          6           0        0.938618    0.646662    0.000248
      8          6           0        0.927150   -0.651474    0.000021
      9          9           0        0.937281    1.369323    1.095801
     10          9           0        0.938455    1.369693   -1.095064
     11          9           0        0.913618   -1.374247    1.095548
     12          9           0        0.914806   -1.373871   -1.095768
 ---------------------------------------------------------------------
 Rotational constants (GHZ):      1.9122736      1.2758303      1.0727248

 **********************************************************************

            Population analysis using the SCF density.

 **********************************************************************

 Orbital symmetries:
       Occupied  (A) (A) (A) (A) (A) (A) (A) (A) (A) (A) (A) (A)
                 (A) (A) (A) (A) (A) (A) (A) (A) (A) (A) (A) (A)
                 (A) (A) (A) (A) (A) (A) (A) (A)
       Virtual   (A) (A) (A) (A) (A) (A) (A) (A) (A) (A) (A) (A)
                 (A) (A) (A) (A) (A) (A) (A) (A) (A) (A) (A) (A)
                 (A) (A) (A) (A) (A) (A) (A) (A) (A) (A) (A) (A)
                 (A) (A) (A) (A) (A) (A) (A) (A) (A) (A) (A) (A)
                 (A) (A) (A) (A) (A) (A) (A) (A) (A) (A) (A) (A)
                 (A) (A) (A) (A) (A) (A) (A) (A) (A) (A) (A) (A)
                 (A) (A) (A) (A) (A) (A) (A) (A) (A) (A) (A) (A)
                 (A) (A) (A) (A) (A) (A) (A) (A) (A) (A) (A) (A)
                 (A) (A) (A) (A) (A) (A) (A) (A) (A) (A) (A) (A)
                 (A) (A) (A) (A) (A) (A) (A) (A) (A) (A) (A) (A)
                 (A) (A) (A) (A) (A) (A) (A) (A) (A) (A) (A) (A)
                 (A) (A) (A) (A) (A) (A) (A) (A) (A) (A) (A) (A)
                 (A) (A) (A) (A) (A) (A) (A) (A) (A) (A) (A) (A)
                 (A) (A) (A) (A) (A) (A) (A) (A) (A) (A) (A) (A)
                 (A) (A) (A) (A)
 The electronic state is 1-A.
 Alpha  occ. eigenvalues --  -24.82008 -24.82007 -24.82002 -24.82002 -10.44156
 Alpha  occ. eigenvalues --  -10.44047 -10.24979 -10.24882  -1.41435  -1.39858
 Alpha  occ. eigenvalues --   -1.35404  -1.34157  -0.91108  -0.85525  -0.75659
 Alpha  occ. eigenvalues --   -0.71649  -0.70651  -0.66247  -0.65754  -0.65482
 Alpha  occ. eigenvalues --   -0.60659  -0.57942  -0.55639  -0.55027  -0.54847
 Alpha  occ. eigenvalues --   -0.54441  -0.53993  -0.52344  -0.49965  -0.42653
 Alpha  occ. eigenvalues --   -0.35222  -0.33520
 Alpha virt. eigenvalues --    0.01842   0.02914   0.03563   0.03798   0.04122
 Alpha virt. eigenvalues --    0.06584   0.06830   0.06928   0.07984   0.09376
 Alpha virt. eigenvalues --    0.10259   0.11992   0.12296   0.12635   0.13558
 Alpha virt. eigenvalues --    0.13676   0.14936   0.15545   0.16042   0.16470
 Alpha virt. eigenvalues --    0.17539   0.18823   0.19401   0.20615   0.23134
 Alpha virt. eigenvalues --    0.25335   0.25794   0.26500   0.28224   0.28670
 Alpha virt. eigenvalues --    0.30508   0.31598   0.33238   0.35289   0.36209
 Alpha virt. eigenvalues --    0.36497   0.38316   0.38538   0.39460   0.39731
 Alpha virt. eigenvalues --    0.41761   0.42697   0.42880   0.44309   0.45624
 Alpha virt. eigenvalues --    0.48522   0.50382   0.52053   0.52226   0.52293
 Alpha virt. eigenvalues --    0.55579   0.62228   0.63467   0.64371   0.65088
 Alpha virt. eigenvalues --    0.69287   0.71936   0.76134   0.77961   0.81381
 Alpha virt. eigenvalues --    0.81416   0.82163   0.83747   0.84313   0.85461
 Alpha virt. eigenvalues --    0.92955   0.97855   0.99961   1.06450   1.16146
 Alpha virt. eigenvalues --    1.16345   1.17535   1.18423   1.30673   1.31149
 Alpha virt. eigenvalues --    1.38576   1.41969   1.42827   1.44932   1.45543
 Alpha virt. eigenvalues --    1.46020   1.46764   1.47174   1.47939   1.49205
 Alpha virt. eigenvalues --    1.50216   1.51607   1.52232   1.57991   1.62268
 Alpha virt. eigenvalues --    1.66962   1.67841   1.68192   1.71655   1.72808
 Alpha virt. eigenvalues --    1.74692   1.85932   1.86252   1.90848   1.91744
 Alpha virt. eigenvalues --    1.93579   2.02626   2.04239   2.07639   2.10541
 Alpha virt. eigenvalues --    2.16685   2.17926   2.23290   2.23835   2.24880
 Alpha virt. eigenvalues --    2.36424   2.39801   2.47780   2.51110   2.61581
 Alpha virt. eigenvalues --    2.63655   2.66037   2.78703   2.80264   2.86026
 Alpha virt. eigenvalues --    2.90886   2.92879   3.01710   3.07482   3.11650
 Alpha virt. eigenvalues --    3.22807   3.24671   3.49279   3.54526   3.72632
 Alpha virt. eigenvalues --    3.78984   3.79254   3.79780   3.80389   3.83183
 Alpha virt. eigenvalues --    3.83433   3.84121   3.84767   3.89377   3.90627
 Alpha virt. eigenvalues --    3.98944   4.04594   4.06522   4.11997   4.19190
 Alpha virt. eigenvalues --    4.20666   4.22986   4.36424   4.53712   4.90122
 Alpha virt. eigenvalues --    4.91330   5.05083   6.28767   6.31050   6.34343
 Alpha virt. eigenvalues --    6.37631   6.38574   6.39987   6.40090   6.41365
 Alpha virt. eigenvalues --    6.45183   6.83050   6.87807   7.01031  23.46383
 Alpha virt. eigenvalues --   23.80579  24.26522  24.37451  66.73983  66.76923
 Alpha virt. eigenvalues --   66.77286  66.82247
          Condensed to atoms (all electrons):
               1          2          3          4          5          6
     1  C    5.162288   0.419101   0.419125   0.366788  -0.045578  -0.045553
     2  H    0.419101   0.539699  -0.040858  -0.044459  -0.011441   0.007731
     3  H    0.419125  -0.040858   0.539701  -0.044481   0.007735  -0.011440
     4  C    0.366788  -0.044459  -0.044481   5.170252   0.420540   0.420514
     5  H   -0.045578  -0.011441   0.007735   0.420540   0.539040  -0.041305
     6  H   -0.045553   0.007731  -0.011440   0.420514  -0.041305   0.539029
     7  C   -0.102258  -0.000252  -0.000242   0.086676   0.000163   0.000138
     8  C    0.084537   0.000033   0.000045  -0.105976  -0.000498  -0.000500
     9  F   -0.003939   0.000596  -0.001864   0.001404  -0.000239   0.000432
    10  F   -0.003868  -0.001854   0.000586   0.001330   0.000429  -0.000235
    11  F    0.002510  -0.000215   0.000403  -0.005482   0.000393  -0.001679
    12  F    0.002588   0.000407  -0.000218  -0.005574  -0.001681   0.000404
               7          8          9         10         11         12
     1  C   -0.102258   0.084537  -0.003939  -0.003868   0.002510   0.002588
     2  H   -0.000252   0.000033   0.000596  -0.001854  -0.000215   0.000407
     3  H   -0.000242   0.000045  -0.001864   0.000586   0.000403  -0.000218
     4  C    0.086676  -0.105976   0.001404   0.001330  -0.005482  -0.005574
     5  H    0.000163  -0.000498  -0.000239   0.000429   0.000393  -0.001681
     6  H    0.000138  -0.000500   0.000432  -0.000235  -0.001679   0.000404
     7  C    6.156804  -0.595771   0.366731   0.366732  -0.224081  -0.224111
     8  C   -0.595771   6.166478  -0.223165  -0.223162   0.368283   0.368345
     9  F    0.366731  -0.223165   9.008414  -0.078254   0.006410   0.009054
    10  F    0.366732  -0.223162  -0.078254   9.008405   0.009054   0.006410
    11  F   -0.224081   0.368283   0.006410   0.009054   9.007860  -0.078290
    12  F   -0.224111   0.368345   0.009054   0.006410  -0.078290   9.007817
 Mulliken charges:
               1
     1  C   -0.255742
     2  H    0.131511
     3  H    0.131507
     4  C   -0.261532
     5  H    0.132444
     6  H    0.132464
     7  C    0.169470
     8  C    0.161350
     9  F   -0.085580
    10  F   -0.085572
    11  F   -0.085168
    12  F   -0.085151
 Sum of Mulliken charges =   0.00000
 Mulliken charges with hydrogens summed into heavy atoms:
               1
     1  C    0.007275
     4  C    0.003376
     7  C    0.169470
     8  C    0.161350
     9  F   -0.085580
    10  F   -0.085572
    11  F   -0.085168
    12  F   -0.085151
 Electronic spatial extent (au):  <R**2>=           1158.1886
 Charge=              0.0000 electrons
 Dipole moment (field-independent basis, Debye):
    X=             -0.1712    Y=              0.0037    Z=              0.0000  Tot=              0.1712
 Quadrupole moment (field-independent basis, Debye-Ang):
   XX=            -45.0636   YY=            -45.5186   ZZ=            -45.7642
   XY=             -0.0986   XZ=              0.0018   YZ=             -0.0001
 Traceless Quadrupole moment (field-independent basis, Debye-Ang):
   XX=              0.3852   YY=             -0.0698   ZZ=             -0.3154
   XY=             -0.0986   XZ=              0.0018   YZ=             -0.0001
 Octapole moment (field-independent basis, Debye-Ang**2):
  XXX=             47.7620  YYY=             -0.0188  ZZZ=              0.0015  XYY=              3.4746
  XXY=              0.2907  XXZ=              0.0070  XZZ=              3.4429  YZZ=             -0.0050
  YYZ=              0.0005  XYZ=              0.0002
 Hexadecapole moment (field-independent basis, Debye-Ang**3):
 XXXX=           -926.6775 YYYY=           -347.7996 ZZZZ=           -194.3600 XXXY=             -1.0839
 XXXZ=             -0.0235 YYYX=              0.1901 YYYZ=              0.0114 ZZZX=             -0.0141
 ZZZY=             -0.0038 XXYY=           -187.9311 XXZZ=           -164.5944 YYZZ=            -91.9947
 XXYZ=              0.0011 YYXZ=             -0.0016 ZZXY=              0.0000
 N-N= 3.789091778259D+02 E-N=-2.069658559212D+03  KE= 5.528318364187D+02
 B after Tr=    -0.040788    0.131693   -0.021965
         Rot=    1.000000   -0.000277   -0.000207    0.000902 Ang=  -0.11 deg.
 Final structure in terms of initial Z-matrix:
 C
 H,1,B1
 H,1,B2,2,A1
 C,1,B3,3,A2,2,D1,0
 H,4,B4,1,A3,3,D2,0
 H,4,B5,1,A4,3,D3,0
 C,1,B6,4,A5,6,D4,0
 C,7,B7,1,A6,4,D5,0
 F,7,B8,1,A7,4,D6,0
 F,7,B9,1,A8,4,D7,0
 F,8,B10,7,A9,1,D8,0
 F,8,B11,7,A10,1,D9,0
      Variables:
 B1=1.0842533
 B2=1.08425352
 B3=1.31944105
 B4=1.08368447
 B5=1.08368542
 B6=3.73403541
 B7=1.29818706
 B8=1.3124321
 B9=1.31243292
 B10=1.31253995
 B11=1.3125409
 A1=116.67323308
 A2=121.66291885
 A3=121.64602917
 A4=121.64608974
 A5=88.59033849
 A6=89.79762472
 A7=89.78819669
 A8=89.81160362
 A9=123.40756262
 A10=123.40728726
 D1=-179.69809155
 D2=179.69212942
 D3=-0.00909126
 D4=90.13660506
 D5=0.04811197
 D6=-123.37122923
 D7=123.46720633
 D8=-89.64293353
 D9=89.67171681


 Happiness is a conscious choice, not an automatic response.
 -- Mildred Barthel
 Error termination request processed by link 9999.
 Error termination via Lnk1e in /cluster/software/gaussian/gaussian-09-D.01/g09/l9999.exe at Wed Nov 16 17:10:06 2016.
 Job cpu time:       0 days  2 hours 29 minutes 11.3 seconds.
 File lengths (MBytes):  RWF=     21 Int=      0 D2E=      0 Chk=      5 Scr=      1
