 Entering Gaussian System, Link 0=g09
 Initial command:
 /cluster/software/gaussian/gaussian-09-D.01/g09/l1.exe "/local/scratch/maxb2/Gau-17256.inp" -scrdir="/local/scratch/maxb2/"
 Entering Link 1 = /cluster/software/gaussian/gaussian-09-D.01/g09/l1.exe PID=     17257.
  
 Copyright (c) 1988,1990,1992,1993,1995,1998,2003,2009,2013,
            Gaussian, Inc.  All Rights Reserved.
  
 This is part of the Gaussian(R) 09 program.  It is based on
 the Gaussian(R) 03 system (copyright 2003, Gaussian, Inc.),
 the Gaussian(R) 98 system (copyright 1998, Gaussian, Inc.),
 the Gaussian(R) 94 system (copyright 1995, Gaussian, Inc.),
 the Gaussian 92(TM) system (copyright 1992, Gaussian, Inc.),
 the Gaussian 90(TM) system (copyright 1990, Gaussian, Inc.),
 the Gaussian 88(TM) system (copyright 1988, Gaussian, Inc.),
 the Gaussian 86(TM) system (copyright 1986, Carnegie Mellon
 University), and the Gaussian 82(TM) system (copyright 1983,
 Carnegie Mellon University). Gaussian is a federally registered
 trademark of Gaussian, Inc.
  
 This software contains proprietary and confidential information,
 including trade secrets, belonging to Gaussian, Inc.
  
 This software is provided under written license and may be
 used, copied, transmitted, or stored only in accord with that
 written license.
  
 The following legend is applicable only to US Government
 contracts under FAR:
  
                    RESTRICTED RIGHTS LEGEND
  
 Use, reproduction and disclosure by the US Government is
 subject to restrictions as set forth in subparagraphs (a)
 and (c) of the Commercial Computer Software - Restricted
 Rights clause in FAR 52.227-19.
  
 Gaussian, Inc.
 340 Quinnipiac St., Bldg. 40, Wallingford CT 06492
  
  
 ---------------------------------------------------------------
 Warning -- This program may not be used in any manner that
 competes with the business of Gaussian, Inc. or will provide
 assistance to any competitor of Gaussian, Inc.  The licensee
 of this program is prohibited from giving any competitor of
 Gaussian, Inc. access to this program.  By using this program,
 the user acknowledges that Gaussian, Inc. is engaged in the
 business of creating and licensing software in the field of
 computational chemistry and represents and warrants to the
 licensee that it is not a competitor of Gaussian, Inc. and that
 it will not use this program in any manner prohibited above.
 ---------------------------------------------------------------
  

 Cite this work as:
 Gaussian 09, Revision D.01,
 M. J. Frisch, G. W. Trucks, H. B. Schlegel, G. E. Scuseria, 
 M. A. Robb, J. R. Cheeseman, G. Scalmani, V. Barone, B. Mennucci, 
 G. A. Petersson, H. Nakatsuji, M. Caricato, X. Li, H. P. Hratchian, 
 A. F. Izmaylov, J. Bloino, G. Zheng, J. L. Sonnenberg, M. Hada, 
 M. Ehara, K. Toyota, R. Fukuda, J. Hasegawa, M. Ishida, T. Nakajima, 
 Y. Honda, O. Kitao, H. Nakai, T. Vreven, J. A. Montgomery, Jr., 
 J. E. Peralta, F. Ogliaro, M. Bearpark, J. J. Heyd, E. Brothers, 
 K. N. Kudin, V. N. Staroverov, T. Keith, R. Kobayashi, J. Normand, 
 K. Raghavachari, A. Rendell, J. C. Burant, S. S. Iyengar, J. Tomasi, 
 M. Cossi, N. Rega, J. M. Millam, M. Klene, J. E. Knox, J. B. Cross, 
 V. Bakken, C. Adamo, J. Jaramillo, R. Gomperts, R. E. Stratmann, 
 O. Yazyev, A. J. Austin, R. Cammi, C. Pomelli, J. W. Ochterski, 
 R. L. Martin, K. Morokuma, V. G. Zakrzewski, G. A. Voth, 
 P. Salvador, J. J. Dannenberg, S. Dapprich, A. D. Daniels, 
 O. Farkas, J. B. Foresman, J. V. Ortiz, J. Cioslowski, 
 and D. J. Fox, Gaussian, Inc., Wallingford CT, 2013.
 
 ******************************************
 Gaussian 09:  ES64L-G09RevD.01 24-Apr-2013
                17-Nov-2016 
 ******************************************
 %nprocshared=8
 Will use up to    8 processors via shared memory.
 %mem=6GB
 %oldchk=c2h4-c2f4-camb3lyp-aug.chk
 %chk=c2h4-c2f4-camb3lyp-aug-td
 Copying data from "c2h4-c2f4-camb3lyp-aug.chk" to current chk file "c2h4-c2f4-camb3lyp-aug-td.chk".
 --------------------------------------------------------------
 # td=(singlet,nstates=50) cam-b3lyp/aug-cc-pvtz geom=check gfp
 --------------------------------------------------------------
 1/29=2,38=1/1;
 2/12=2,40=1/2;
 3/5=16,6=1,7=10,11=9,14=-4,16=1,24=100,25=1,30=1,74=-40/1,2,8,3;
 4//1;
 5/5=2,38=5/2;
 8/6=1,10=1,108=50/1;
 9/41=50,42=1,48=1,70=2/14;
 6/7=2,8=2,9=2,10=2/1;
 99/5=1,9=1/99;
 -----
 Title
 -----
 Structure from the checkpoint file:  "c2h4-c2f4-camb3lyp-aug-td.chk"
 Charge =  0 Multiplicity = 1
 Redundant internal coordinates found in file.
 C,0,0.0723772473,0.1104115933,0.0372126524
 H,0,0.1037918266,0.1011440674,1.1183663388
 H,0,1.0240235985,0.1032197063,-0.4768670212
 C,0,-1.070692064,0.1293779921,-0.6221461464
 H,0,-2.0224773487,0.1336814348,-0.1079376562
 H,0,-1.102070621,0.1357486459,-1.7034900611
 C,0,-0.3139389476,3.6991385221,-0.181375713
 C,0,-1.4062143099,4.0528662318,-0.8200232586
 F,0,0.8405811237,3.5048409534,-0.7753115705
 F,0,-0.2653127471,3.5045866617,1.1160096419
 F,0,-1.4566918417,4.2444699161,-2.1192029024
 F,0,-2.5631988869,4.2443884853,-0.2268738805
 Recover connectivity data from disk.
                          Input orientation:                          
 ---------------------------------------------------------------------
 Center     Atomic      Atomic             Coordinates (Angstroms)
 Number     Number       Type             X           Y           Z
 ---------------------------------------------------------------------
      1          6           0        0.072377    0.110412    0.037213
      2          1           0        0.103792    0.101144    1.118366
      3          1           0        1.024024    0.103220   -0.476867
      4          6           0       -1.070692    0.129378   -0.622146
      5          1           0       -2.022477    0.133681   -0.107938
      6          1           0       -1.102071    0.135749   -1.703490
      7          6           0       -0.313939    3.699139   -0.181376
      8          6           0       -1.406214    4.052866   -0.820023
      9          9           0        0.840581    3.504841   -0.775312
     10          9           0       -0.265313    3.504587    1.116010
     11          9           0       -1.456692    4.244470   -2.119203
     12          9           0       -2.563199    4.244388   -0.226874
 ---------------------------------------------------------------------
                    Distance matrix (angstroms):
                    1          2          3          4          5
     1  C    0.000000
     2  H    1.081650   0.000000
     3  H    1.081647   1.841630   0.000000
     4  C    1.319743   2.099903   2.099910   0.000000
     5  H    2.100006   2.454771   3.068909   1.081815   0.000000
     6  H    2.100004   3.068905   2.454779   1.081818   1.841994
     7  C    3.616073   3.848297   3.848128   3.675615   3.954362
     8  C    4.296980   4.653341   4.650110   3.942777   4.030739
     9  F    3.573861   3.964092   3.419612   3.882032   4.472942
    10  F    3.577466   3.423400   3.971013   3.880961   3.993579
    11  F    4.906997   5.484899   5.099134   4.395925   4.611278
    12  F    4.909763   5.107738   5.484518   4.395125   4.147823
                    6          7          8          9         10
     6  H    0.000000
     7  C    3.954204   0.000000
     8  C    4.027012   1.313796   0.000000
     9  F    3.998274   1.312794   2.313098   0.000000
    10  F    4.472003   1.312792   2.313113   2.190912   0.000000
    11  F    4.144896   2.314831   1.314202   2.762346   3.526104
    12  F    4.603934   2.314852   1.314199   3.526107   2.762413
                   11         12
    11  F    0.000000
    12  F    2.192092   0.000000
 Stoichiometry    C4H4F4
 Framework group  C1[X(C4H4F4)]
 Deg. of freedom    30
 Full point group                 C1      NOp   1
 Largest Abelian subgroup         C1      NOp   1
 Largest concise Abelian subgroup C1      NOp   1
                         Standard orientation:                         
 ---------------------------------------------------------------------
 Center     Atomic      Atomic             Coordinates (Angstroms)
 Number     Number       Type             X           Y           Z
 ---------------------------------------------------------------------
      1          6           0       -2.988286   -0.036218    0.003267
      2          1           0       -3.189314    0.499072   -0.914893
      3          1           0       -3.185235    0.491432    0.926716
      4          6           0       -2.525698   -1.272218   -0.002894
      5          1           0       -2.331450   -1.800893   -0.926525
      6          1           0       -2.327376   -1.808544    0.915448
      7          6           0        0.540074    0.755387   -0.000912
      8          6           0        1.299532   -0.316658    0.000767
      9          9           0        0.121386    1.347087    1.093629
     10          9           0        0.122957    1.344803   -1.097281
     11          9           0        1.714716   -0.909424    1.097753
     12          9           0        1.716458   -0.911670   -1.094337
 ---------------------------------------------------------------------
 Rotational constants (GHZ):      2.2056818      1.1366806      1.0432866
 Standard basis: Aug-CC-pVTZ (5D, 7F)
 AO basis set (Overlap normalization):
 Atom C1       Shell     1 S   7     bf    1 -     1         -5.647042819195         -0.068441648850          0.006174519349
      0.8236000000D+04  0.5419783203D-03
      0.1235000000D+04  0.4192873817D-02
      0.2808000000D+03  0.2152216205D-01
      0.7927000000D+02  0.8353432195D-01
      0.2559000000D+02  0.2395828457D+00
      0.8997000000D+01  0.4428528419D+00
      0.3319000000D+01  0.3517995618D+00
 Atom C1       Shell     2 S   6     bf    2 -     2         -5.647042819195         -0.068441648850          0.006174519349
      0.2808000000D+03 -0.5949224937D-04
      0.7927000000D+02 -0.1148158310D-02
      0.2559000000D+02 -0.1001913745D-01
      0.8997000000D+01 -0.6121949230D-01
      0.3319000000D+01 -0.1732698541D+00
      0.3643000000D+00  0.1072915192D+01
 Atom C1       Shell     3 S   1     bf    3 -     3         -5.647042819195         -0.068441648850          0.006174519349
      0.9059000000D+00  0.1000000000D+01
 Atom C1       Shell     4 S   1     bf    4 -     4         -5.647042819195         -0.068441648850          0.006174519349
      0.1285000000D+00  0.1000000000D+01
 Atom C1       Shell     5 S   1     bf    5 -     5         -5.647042819195         -0.068441648850          0.006174519349
      0.4402000000D-01  0.1000000000D+01
 Atom C1       Shell     6 P   3     bf    6 -     8         -5.647042819195         -0.068441648850          0.006174519349
      0.1871000000D+02  0.3942638716D-01
      0.4133000000D+01  0.2440889849D+00
      0.1200000000D+01  0.8154920089D+00
 Atom C1       Shell     7 P   1     bf    9 -    11         -5.647042819195         -0.068441648850          0.006174519349
      0.3827000000D+00  0.1000000000D+01
 Atom C1       Shell     8 P   1     bf   12 -    14         -5.647042819195         -0.068441648850          0.006174519349
      0.1209000000D+00  0.1000000000D+01
 Atom C1       Shell     9 P   1     bf   15 -    17         -5.647042819195         -0.068441648850          0.006174519349
      0.3569000000D-01  0.1000000000D+01
 Atom C1       Shell    10 D   1     bf   18 -    22         -5.647042819195         -0.068441648850          0.006174519349
      0.1097000000D+01  0.1000000000D+01
 Atom C1       Shell    11 D   1     bf   23 -    27         -5.647042819195         -0.068441648850          0.006174519349
      0.3180000000D+00  0.1000000000D+01
 Atom C1       Shell    12 D   1     bf   28 -    32         -5.647042819195         -0.068441648850          0.006174519349
      0.1000000000D+00  0.1000000000D+01
 Atom C1       Shell    13 F   1     bf   33 -    39         -5.647042819195         -0.068441648850          0.006174519349
      0.7610000000D+00  0.1000000000D+01
 Atom C1       Shell    14 F   1     bf   40 -    46         -5.647042819195         -0.068441648850          0.006174519349
      0.2680000000D+00  0.1000000000D+01
 Atom H2       Shell    15 S   3     bf   47 -    47         -6.026929519446          0.943108735242         -1.728897981706
      0.3387000000D+02  0.2549486323D-01
      0.5095000000D+01  0.1903627659D+00
      0.1159000000D+01  0.8521620222D+00
 Atom H2       Shell    16 S   1     bf   48 -    48         -6.026929519446          0.943108735242         -1.728897981706
      0.3258000000D+00  0.1000000000D+01
 Atom H2       Shell    17 S   1     bf   49 -    49         -6.026929519446          0.943108735242         -1.728897981706
      0.1027000000D+00  0.1000000000D+01
 Atom H2       Shell    18 S   1     bf   50 -    50         -6.026929519446          0.943108735242         -1.728897981706
      0.2526000000D-01  0.1000000000D+01
 Atom H2       Shell    19 P   1     bf   51 -    53         -6.026929519446          0.943108735242         -1.728897981706
      0.1407000000D+01  0.1000000000D+01
 Atom H2       Shell    20 P   1     bf   54 -    56         -6.026929519446          0.943108735242         -1.728897981706
      0.3880000000D+00  0.1000000000D+01
 Atom H2       Shell    21 P   1     bf   57 -    59         -6.026929519446          0.943108735242         -1.728897981706
      0.1020000000D+00  0.1000000000D+01
 Atom H2       Shell    22 D   1     bf   60 -    64         -6.026929519446          0.943108735242         -1.728897981706
      0.1057000000D+01  0.1000000000D+01
 Atom H2       Shell    23 D   1     bf   65 -    69         -6.026929519446          0.943108735242         -1.728897981706
      0.2470000000D+00  0.1000000000D+01
 Atom H3       Shell    24 S   3     bf   70 -    70         -6.019221696066          0.928672013918          1.751239485991
      0.3387000000D+02  0.2549486323D-01
      0.5095000000D+01  0.1903627659D+00
      0.1159000000D+01  0.8521620222D+00
 Atom H3       Shell    25 S   1     bf   71 -    71         -6.019221696066          0.928672013918          1.751239485991
      0.3258000000D+00  0.1000000000D+01
 Atom H3       Shell    26 S   1     bf   72 -    72         -6.019221696066          0.928672013918          1.751239485991
      0.1027000000D+00  0.1000000000D+01
 Atom H3       Shell    27 S   1     bf   73 -    73         -6.019221696066          0.928672013918          1.751239485991
      0.2526000000D-01  0.1000000000D+01
 Atom H3       Shell    28 P   1     bf   74 -    76         -6.019221696066          0.928672013918          1.751239485991
      0.1407000000D+01  0.1000000000D+01
 Atom H3       Shell    29 P   1     bf   77 -    79         -6.019221696066          0.928672013918          1.751239485991
      0.3880000000D+00  0.1000000000D+01
 Atom H3       Shell    30 P   1     bf   80 -    82         -6.019221696066          0.928672013918          1.751239485991
      0.1020000000D+00  0.1000000000D+01
 Atom H3       Shell    31 D   1     bf   83 -    87         -6.019221696066          0.928672013918          1.751239485991
      0.1057000000D+01  0.1000000000D+01
 Atom H3       Shell    32 D   1     bf   88 -    92         -6.019221696066          0.928672013918          1.751239485991
      0.2470000000D+00  0.1000000000D+01
 Atom C4       Shell    33 S   7     bf   93 -    93         -4.772877909074         -2.404142720653         -0.005469471748
      0.8236000000D+04  0.5419783203D-03
      0.1235000000D+04  0.4192873817D-02
      0.2808000000D+03  0.2152216205D-01
      0.7927000000D+02  0.8353432195D-01
      0.2559000000D+02  0.2395828457D+00
      0.8997000000D+01  0.4428528419D+00
      0.3319000000D+01  0.3517995618D+00
 Atom C4       Shell    34 S   6     bf   94 -    94         -4.772877909074         -2.404142720653         -0.005469471748
      0.2808000000D+03 -0.5949224937D-04
      0.7927000000D+02 -0.1148158310D-02
      0.2559000000D+02 -0.1001913745D-01
      0.8997000000D+01 -0.6121949230D-01
      0.3319000000D+01 -0.1732698541D+00
      0.3643000000D+00  0.1072915192D+01
 Atom C4       Shell    35 S   1     bf   95 -    95         -4.772877909074         -2.404142720653         -0.005469471748
      0.9059000000D+00  0.1000000000D+01
 Atom C4       Shell    36 S   1     bf   96 -    96         -4.772877909074         -2.404142720653         -0.005469471748
      0.1285000000D+00  0.1000000000D+01
 Atom C4       Shell    37 S   1     bf   97 -    97         -4.772877909074         -2.404142720653         -0.005469471748
      0.4402000000D-01  0.1000000000D+01
 Atom C4       Shell    38 P   3     bf   98 -   100         -4.772877909074         -2.404142720653         -0.005469471748
      0.1871000000D+02  0.3942638716D-01
      0.4133000000D+01  0.2440889849D+00
      0.1200000000D+01  0.8154920089D+00
 Atom C4       Shell    39 P   1     bf  101 -   103         -4.772877909074         -2.404142720653         -0.005469471748
      0.3827000000D+00  0.1000000000D+01
 Atom C4       Shell    40 P   1     bf  104 -   106         -4.772877909074         -2.404142720653         -0.005469471748
      0.1209000000D+00  0.1000000000D+01
 Atom C4       Shell    41 P   1     bf  107 -   109         -4.772877909074         -2.404142720653         -0.005469471748
      0.3569000000D-01  0.1000000000D+01
 Atom C4       Shell    42 D   1     bf  110 -   114         -4.772877909074         -2.404142720653         -0.005469471748
      0.1097000000D+01  0.1000000000D+01
 Atom C4       Shell    43 D   1     bf  115 -   119         -4.772877909074         -2.404142720653         -0.005469471748
      0.3180000000D+00  0.1000000000D+01
 Atom C4       Shell    44 D   1     bf  120 -   124         -4.772877909074         -2.404142720653         -0.005469471748
      0.1000000000D+00  0.1000000000D+01
 Atom C4       Shell    45 F   1     bf  125 -   131         -4.772877909074         -2.404142720653         -0.005469471748
      0.7610000000D+00  0.1000000000D+01
 Atom C4       Shell    46 F   1     bf  132 -   138         -4.772877909074         -2.404142720653         -0.005469471748
      0.2680000000D+00  0.1000000000D+01
 Atom H5       Shell    47 S   3     bf  139 -   139         -4.405802816311         -3.403194006161         -1.750879377592
      0.3387000000D+02  0.2549486323D-01
      0.5095000000D+01  0.1903627659D+00
      0.1159000000D+01  0.8521620222D+00
 Atom H5       Shell    48 S   1     bf  140 -   140         -4.405802816311         -3.403194006161         -1.750879377592
      0.3258000000D+00  0.1000000000D+01
 Atom H5       Shell    49 S   1     bf  141 -   141         -4.405802816311         -3.403194006161         -1.750879377592
      0.1027000000D+00  0.1000000000D+01
 Atom H5       Shell    50 S   1     bf  142 -   142         -4.405802816311         -3.403194006161         -1.750879377592
      0.2526000000D-01  0.1000000000D+01
 Atom H5       Shell    51 P   1     bf  143 -   145         -4.405802816311         -3.403194006161         -1.750879377592
      0.1407000000D+01  0.1000000000D+01
 Atom H5       Shell    52 P   1     bf  146 -   148         -4.405802816311         -3.403194006161         -1.750879377592
      0.3880000000D+00  0.1000000000D+01
 Atom H5       Shell    53 P   1     bf  149 -   151         -4.405802816311         -3.403194006161         -1.750879377592
      0.1020000000D+00  0.1000000000D+01
 Atom H5       Shell    54 D   1     bf  152 -   156         -4.405802816311         -3.403194006161         -1.750879377592
      0.1057000000D+01  0.1000000000D+01
 Atom H5       Shell    55 D   1     bf  157 -   161         -4.405802816311         -3.403194006161         -1.750879377592
      0.2470000000D+00  0.1000000000D+01
 Atom H6       Shell    56 S   3     bf  162 -   162         -4.398104179889         -3.417653215733          1.729945454386
      0.3387000000D+02  0.2549486323D-01
      0.5095000000D+01  0.1903627659D+00
      0.1159000000D+01  0.8521620222D+00
 Atom H6       Shell    57 S   1     bf  163 -   163         -4.398104179889         -3.417653215733          1.729945454386
      0.3258000000D+00  0.1000000000D+01
 Atom H6       Shell    58 S   1     bf  164 -   164         -4.398104179889         -3.417653215733          1.729945454386
      0.1027000000D+00  0.1000000000D+01
 Atom H6       Shell    59 S   1     bf  165 -   165         -4.398104179889         -3.417653215733          1.729945454386
      0.2526000000D-01  0.1000000000D+01
 Atom H6       Shell    60 P   1     bf  166 -   168         -4.398104179889         -3.417653215733          1.729945454386
      0.1407000000D+01  0.1000000000D+01
 Atom H6       Shell    61 P   1     bf  169 -   171         -4.398104179889         -3.417653215733          1.729945454386
      0.3880000000D+00  0.1000000000D+01
 Atom H6       Shell    62 P   1     bf  172 -   174         -4.398104179889         -3.417653215733          1.729945454386
      0.1020000000D+00  0.1000000000D+01
 Atom H6       Shell    63 D   1     bf  175 -   179         -4.398104179889         -3.417653215733          1.729945454386
      0.1057000000D+01  0.1000000000D+01
 Atom H6       Shell    64 D   1     bf  180 -   184         -4.398104179889         -3.417653215733          1.729945454386
      0.2470000000D+00  0.1000000000D+01
 Atom C7       Shell    65 S   7     bf  185 -   185          1.020591699764          1.427475299333         -0.001722599625
      0.8236000000D+04  0.5419783203D-03
      0.1235000000D+04  0.4192873817D-02
      0.2808000000D+03  0.2152216205D-01
      0.7927000000D+02  0.8353432195D-01
      0.2559000000D+02  0.2395828457D+00
      0.8997000000D+01  0.4428528419D+00
      0.3319000000D+01  0.3517995618D+00
 Atom C7       Shell    66 S   6     bf  186 -   186          1.020591699764          1.427475299333         -0.001722599625
      0.2808000000D+03 -0.5949224937D-04
      0.7927000000D+02 -0.1148158310D-02
      0.2559000000D+02 -0.1001913745D-01
      0.8997000000D+01 -0.6121949230D-01
      0.3319000000D+01 -0.1732698541D+00
      0.3643000000D+00  0.1072915192D+01
 Atom C7       Shell    67 S   1     bf  187 -   187          1.020591699764          1.427475299333         -0.001722599625
      0.9059000000D+00  0.1000000000D+01
 Atom C7       Shell    68 S   1     bf  188 -   188          1.020591699764          1.427475299333         -0.001722599625
      0.1285000000D+00  0.1000000000D+01
 Atom C7       Shell    69 S   1     bf  189 -   189          1.020591699764          1.427475299333         -0.001722599625
      0.4402000000D-01  0.1000000000D+01
 Atom C7       Shell    70 P   3     bf  190 -   192          1.020591699764          1.427475299333         -0.001722599625
      0.1871000000D+02  0.3942638716D-01
      0.4133000000D+01  0.2440889849D+00
      0.1200000000D+01  0.8154920089D+00
 Atom C7       Shell    71 P   1     bf  193 -   195          1.020591699764          1.427475299333         -0.001722599625
      0.3827000000D+00  0.1000000000D+01
 Atom C7       Shell    72 P   1     bf  196 -   198          1.020591699764          1.427475299333         -0.001722599625
      0.1209000000D+00  0.1000000000D+01
 Atom C7       Shell    73 P   1     bf  199 -   201          1.020591699764          1.427475299333         -0.001722599625
      0.3569000000D-01  0.1000000000D+01
 Atom C7       Shell    74 D   1     bf  202 -   206          1.020591699764          1.427475299333         -0.001722599625
      0.1097000000D+01  0.1000000000D+01
 Atom C7       Shell    75 D   1     bf  207 -   211          1.020591699764          1.427475299333         -0.001722599625
      0.3180000000D+00  0.1000000000D+01
 Atom C7       Shell    76 D   1     bf  212 -   216          1.020591699764          1.427475299333         -0.001722599625
      0.1000000000D+00  0.1000000000D+01
 Atom C7       Shell    77 F   1     bf  217 -   223          1.020591699764          1.427475299333         -0.001722599625
      0.7610000000D+00  0.1000000000D+01
 Atom C7       Shell    78 F   1     bf  224 -   230          1.020591699764          1.427475299333         -0.001722599625
      0.2680000000D+00  0.1000000000D+01
 Atom C8       Shell    79 S   7     bf  231 -   231          2.455758679850         -0.598396341684          0.001450116077
      0.8236000000D+04  0.5419783203D-03
      0.1235000000D+04  0.4192873817D-02
      0.2808000000D+03  0.2152216205D-01
      0.7927000000D+02  0.8353432195D-01
      0.2559000000D+02  0.2395828457D+00
      0.8997000000D+01  0.4428528419D+00
      0.3319000000D+01  0.3517995618D+00
 Atom C8       Shell    80 S   6     bf  232 -   232          2.455758679850         -0.598396341684          0.001450116077
      0.2808000000D+03 -0.5949224937D-04
      0.7927000000D+02 -0.1148158310D-02
      0.2559000000D+02 -0.1001913745D-01
      0.8997000000D+01 -0.6121949230D-01
      0.3319000000D+01 -0.1732698541D+00
      0.3643000000D+00  0.1072915192D+01
 Atom C8       Shell    81 S   1     bf  233 -   233          2.455758679850         -0.598396341684          0.001450116077
      0.9059000000D+00  0.1000000000D+01
 Atom C8       Shell    82 S   1     bf  234 -   234          2.455758679850         -0.598396341684          0.001450116077
      0.1285000000D+00  0.1000000000D+01
 Atom C8       Shell    83 S   1     bf  235 -   235          2.455758679850         -0.598396341684          0.001450116077
      0.4402000000D-01  0.1000000000D+01
 Atom C8       Shell    84 P   3     bf  236 -   238          2.455758679850         -0.598396341684          0.001450116077
      0.1871000000D+02  0.3942638716D-01
      0.4133000000D+01  0.2440889849D+00
      0.1200000000D+01  0.8154920089D+00
 Atom C8       Shell    85 P   1     bf  239 -   241          2.455758679850         -0.598396341684          0.001450116077
      0.3827000000D+00  0.1000000000D+01
 Atom C8       Shell    86 P   1     bf  242 -   244          2.455758679850         -0.598396341684          0.001450116077
      0.1209000000D+00  0.1000000000D+01
 Atom C8       Shell    87 P   1     bf  245 -   247          2.455758679850         -0.598396341684          0.001450116077
      0.3569000000D-01  0.1000000000D+01
 Atom C8       Shell    88 D   1     bf  248 -   252          2.455758679850         -0.598396341684          0.001450116077
      0.1097000000D+01  0.1000000000D+01
 Atom C8       Shell    89 D   1     bf  253 -   257          2.455758679850         -0.598396341684          0.001450116077
      0.3180000000D+00  0.1000000000D+01
 Atom C8       Shell    90 D   1     bf  258 -   262          2.455758679850         -0.598396341684          0.001450116077
      0.1000000000D+00  0.1000000000D+01
 Atom C8       Shell    91 F   1     bf  263 -   269          2.455758679850         -0.598396341684          0.001450116077
      0.7610000000D+00  0.1000000000D+01
 Atom C8       Shell    92 F   1     bf  270 -   276          2.455758679850         -0.598396341684          0.001450116077
      0.2680000000D+00  0.1000000000D+01
 Atom F9       Shell    93 S   7     bf  277 -   277          0.229386324404          2.545625303183          2.066660243375
      0.1950000000D+05  0.5190024441D-03
      0.2923000000D+04  0.4015781354D-02
      0.6645000000D+03  0.2067746110D-01
      0.1875000000D+03  0.8086901703D-01
      0.6062000000D+02  0.2358075463D+00
      0.2142000000D+02  0.4425823060D+00
      0.7950000000D+01  0.3569628672D+00
 Atom F9       Shell    94 S   6     bf  278 -   278          0.229386324404          2.545625303183          2.066660243375
      0.6645000000D+03 -0.3735980873D-04
      0.1875000000D+03 -0.1277472297D-02
      0.6062000000D+02 -0.1082201399D-01
      0.2142000000D+02 -0.7004820894D-01
      0.7950000000D+01 -0.1697466078D+00
      0.8815000000D+00  0.1073026608D+01
 Atom F9       Shell    95 S   1     bf  279 -   279          0.229386324404          2.545625303183          2.066660243375
      0.2257000000D+01  0.1000000000D+01
 Atom F9       Shell    96 S   1     bf  280 -   280          0.229386324404          2.545625303183          2.066660243375
      0.3041000000D+00  0.1000000000D+01
 Atom F9       Shell    97 S   1     bf  281 -   281          0.229386324404          2.545625303183          2.066660243375
      0.9158000000D-01  0.1000000000D+01
 Atom F9       Shell    98 P   3     bf  282 -   284          0.229386324404          2.545625303183          2.066660243375
      0.4388000000D+02  0.4190462069D-01
      0.9926000000D+01  0.2626978417D+00
      0.2930000000D+01  0.7977593735D+00
 Atom F9       Shell    99 P   1     bf  285 -   287          0.229386324404          2.545625303183          2.066660243375
      0.9132000000D+00  0.1000000000D+01
 Atom F9       Shell   100 P   1     bf  288 -   290          0.229386324404          2.545625303183          2.066660243375
      0.2672000000D+00  0.1000000000D+01
 Atom F9       Shell   101 P   1     bf  291 -   293          0.229386324404          2.545625303183          2.066660243375
      0.7361000000D-01  0.1000000000D+01
 Atom F9       Shell   102 D   1     bf  294 -   298          0.229386324404          2.545625303183          2.066660243375
      0.3107000000D+01  0.1000000000D+01
 Atom F9       Shell   103 D   1     bf  299 -   303          0.229386324404          2.545625303183          2.066660243375
      0.8550000000D+00  0.1000000000D+01
 Atom F9       Shell   104 D   1     bf  304 -   308          0.229386324404          2.545625303183          2.066660243375
      0.2920000000D+00  0.1000000000D+01
 Atom F9       Shell   105 F   1     bf  309 -   315          0.229386324404          2.545625303183          2.066660243375
      0.1917000000D+01  0.1000000000D+01
 Atom F9       Shell   106 F   1     bf  316 -   322          0.229386324404          2.545625303183          2.066660243375
      0.7240000000D+00  0.1000000000D+01
 Atom F10      Shell   107 S   7     bf  323 -   323          0.232355243343          2.541309717928         -2.073560904247
      0.1950000000D+05  0.5190024441D-03
      0.2923000000D+04  0.4015781354D-02
      0.6645000000D+03  0.2067746110D-01
      0.1875000000D+03  0.8086901703D-01
      0.6062000000D+02  0.2358075463D+00
      0.2142000000D+02  0.4425823060D+00
      0.7950000000D+01  0.3569628672D+00
 Atom F10      Shell   108 S   6     bf  324 -   324          0.232355243343          2.541309717928         -2.073560904247
      0.6645000000D+03 -0.3735980873D-04
      0.1875000000D+03 -0.1277472297D-02
      0.6062000000D+02 -0.1082201399D-01
      0.2142000000D+02 -0.7004820894D-01
      0.7950000000D+01 -0.1697466078D+00
      0.8815000000D+00  0.1073026608D+01
 Atom F10      Shell   109 S   1     bf  325 -   325          0.232355243343          2.541309717928         -2.073560904247
      0.2257000000D+01  0.1000000000D+01
 Atom F10      Shell   110 S   1     bf  326 -   326          0.232355243343          2.541309717928         -2.073560904247
      0.3041000000D+00  0.1000000000D+01
 Atom F10      Shell   111 S   1     bf  327 -   327          0.232355243343          2.541309717928         -2.073560904247
      0.9158000000D-01  0.1000000000D+01
 Atom F10      Shell   112 P   3     bf  328 -   330          0.232355243343          2.541309717928         -2.073560904247
      0.4388000000D+02  0.4190462069D-01
      0.9926000000D+01  0.2626978417D+00
      0.2930000000D+01  0.7977593735D+00
 Atom F10      Shell   113 P   1     bf  331 -   333          0.232355243343          2.541309717928         -2.073560904247
      0.9132000000D+00  0.1000000000D+01
 Atom F10      Shell   114 P   1     bf  334 -   336          0.232355243343          2.541309717928         -2.073560904247
      0.2672000000D+00  0.1000000000D+01
 Atom F10      Shell   115 P   1     bf  337 -   339          0.232355243343          2.541309717928         -2.073560904247
      0.7361000000D-01  0.1000000000D+01
 Atom F10      Shell   116 D   1     bf  340 -   344          0.232355243343          2.541309717928         -2.073560904247
      0.3107000000D+01  0.1000000000D+01
 Atom F10      Shell   117 D   1     bf  345 -   349          0.232355243343          2.541309717928         -2.073560904247
      0.8550000000D+00  0.1000000000D+01
 Atom F10      Shell   118 D   1     bf  350 -   354          0.232355243343          2.541309717928         -2.073560904247
      0.2920000000D+00  0.1000000000D+01
 Atom F10      Shell   119 F   1     bf  355 -   361          0.232355243343          2.541309717928         -2.073560904247
      0.1917000000D+01  0.1000000000D+01
 Atom F10      Shell   120 F   1     bf  362 -   368          0.232355243343          2.541309717928         -2.073560904247
      0.7240000000D+00  0.1000000000D+01
 Atom F11      Shell   121 S   7     bf  369 -   369          3.240343511433         -1.718562026204          2.074452893535
      0.1950000000D+05  0.5190024441D-03
      0.2923000000D+04  0.4015781354D-02
      0.6645000000D+03  0.2067746110D-01
      0.1875000000D+03  0.8086901703D-01
      0.6062000000D+02  0.2358075463D+00
      0.2142000000D+02  0.4425823060D+00
      0.7950000000D+01  0.3569628672D+00
 Atom F11      Shell   122 S   6     bf  370 -   370          3.240343511433         -1.718562026204          2.074452893535
      0.6645000000D+03 -0.3735980873D-04
      0.1875000000D+03 -0.1277472297D-02
      0.6062000000D+02 -0.1082201399D-01
      0.2142000000D+02 -0.7004820894D-01
      0.7950000000D+01 -0.1697466078D+00
      0.8815000000D+00  0.1073026608D+01
 Atom F11      Shell   123 S   1     bf  371 -   371          3.240343511433         -1.718562026204          2.074452893535
      0.2257000000D+01  0.1000000000D+01
 Atom F11      Shell   124 S   1     bf  372 -   372          3.240343511433         -1.718562026204          2.074452893535
      0.3041000000D+00  0.1000000000D+01
 Atom F11      Shell   125 S   1     bf  373 -   373          3.240343511433         -1.718562026204          2.074452893535
      0.9158000000D-01  0.1000000000D+01
 Atom F11      Shell   126 P   3     bf  374 -   376          3.240343511433         -1.718562026204          2.074452893535
      0.4388000000D+02  0.4190462069D-01
      0.9926000000D+01  0.2626978417D+00
      0.2930000000D+01  0.7977593735D+00
 Atom F11      Shell   127 P   1     bf  377 -   379          3.240343511433         -1.718562026204          2.074452893535
      0.9132000000D+00  0.1000000000D+01
 Atom F11      Shell   128 P   1     bf  380 -   382          3.240343511433         -1.718562026204          2.074452893535
      0.2672000000D+00  0.1000000000D+01
 Atom F11      Shell   129 P   1     bf  383 -   385          3.240343511433         -1.718562026204          2.074452893535
      0.7361000000D-01  0.1000000000D+01
 Atom F11      Shell   130 D   1     bf  386 -   390          3.240343511433         -1.718562026204          2.074452893535
      0.3107000000D+01  0.1000000000D+01
 Atom F11      Shell   131 D   1     bf  391 -   395          3.240343511433         -1.718562026204          2.074452893535
      0.8550000000D+00  0.1000000000D+01
 Atom F11      Shell   132 D   1     bf  396 -   400          3.240343511433         -1.718562026204          2.074452893535
      0.2920000000D+00  0.1000000000D+01
 Atom F11      Shell   133 F   1     bf  401 -   407          3.240343511433         -1.718562026204          2.074452893535
      0.1917000000D+01  0.1000000000D+01
 Atom F11      Shell   134 F   1     bf  408 -   414          3.240343511433         -1.718562026204          2.074452893535
      0.7240000000D+00  0.1000000000D+01
 Atom F12      Shell   135 S   7     bf  415 -   415          3.243634954558         -1.722806445591         -2.067997006596
      0.1950000000D+05  0.5190024441D-03
      0.2923000000D+04  0.4015781354D-02
      0.6645000000D+03  0.2067746110D-01
      0.1875000000D+03  0.8086901703D-01
      0.6062000000D+02  0.2358075463D+00
      0.2142000000D+02  0.4425823060D+00
      0.7950000000D+01  0.3569628672D+00
 Atom F12      Shell   136 S   6     bf  416 -   416          3.243634954558         -1.722806445591         -2.067997006596
      0.6645000000D+03 -0.3735980873D-04
      0.1875000000D+03 -0.1277472297D-02
      0.6062000000D+02 -0.1082201399D-01
      0.2142000000D+02 -0.7004820894D-01
      0.7950000000D+01 -0.1697466078D+00
      0.8815000000D+00  0.1073026608D+01
 Atom F12      Shell   137 S   1     bf  417 -   417          3.243634954558         -1.722806445591         -2.067997006596
      0.2257000000D+01  0.1000000000D+01
 Atom F12      Shell   138 S   1     bf  418 -   418          3.243634954558         -1.722806445591         -2.067997006596
      0.3041000000D+00  0.1000000000D+01
 Atom F12      Shell   139 S   1     bf  419 -   419          3.243634954558         -1.722806445591         -2.067997006596
      0.9158000000D-01  0.1000000000D+01
 Atom F12      Shell   140 P   3     bf  420 -   422          3.243634954558         -1.722806445591         -2.067997006596
      0.4388000000D+02  0.4190462069D-01
      0.9926000000D+01  0.2626978417D+00
      0.2930000000D+01  0.7977593735D+00
 Atom F12      Shell   141 P   1     bf  423 -   425          3.243634954558         -1.722806445591         -2.067997006596
      0.9132000000D+00  0.1000000000D+01
 Atom F12      Shell   142 P   1     bf  426 -   428          3.243634954558         -1.722806445591         -2.067997006596
      0.2672000000D+00  0.1000000000D+01
 Atom F12      Shell   143 P   1     bf  429 -   431          3.243634954558         -1.722806445591         -2.067997006596
      0.7361000000D-01  0.1000000000D+01
 Atom F12      Shell   144 D   1     bf  432 -   436          3.243634954558         -1.722806445591         -2.067997006596
      0.3107000000D+01  0.1000000000D+01
 Atom F12      Shell   145 D   1     bf  437 -   441          3.243634954558         -1.722806445591         -2.067997006596
      0.8550000000D+00  0.1000000000D+01
 Atom F12      Shell   146 D   1     bf  442 -   446          3.243634954558         -1.722806445591         -2.067997006596
      0.2920000000D+00  0.1000000000D+01
 Atom F12      Shell   147 F   1     bf  447 -   453          3.243634954558         -1.722806445591         -2.067997006596
      0.1917000000D+01  0.1000000000D+01
 Atom F12      Shell   148 F   1     bf  454 -   460          3.243634954558         -1.722806445591         -2.067997006596
      0.7240000000D+00  0.1000000000D+01
 There are   540 symmetry adapted cartesian basis functions of A   symmetry.
 There are   460 symmetry adapted basis functions of A   symmetry.
   460 basis functions,   684 primitive gaussians,   540 cartesian basis functions
    32 alpha electrons       32 beta electrons
       nuclear repulsion energy       377.8881577348 Hartrees.
 NAtoms=   12 NActive=   12 NUniq=   12 SFac= 1.00D+00 NAtFMM=   60 NAOKFM=F Big=F
 Integral buffers will be    131072 words long.
 Raffenetti 1 integral format.
 Two-electron integral symmetry is turned on.
 One-electron integrals computed using PRISM.
 NBasis=   460 RedAO= T EigKep=  4.07D-06  NBF=   460
 NBsUse=   460 1.00D-06 EigRej= -1.00D+00 NBFU=   460
 ExpMin= 2.53D-02 ExpMax= 1.95D+04 ExpMxC= 6.65D+02 IAcc=3 IRadAn=         5 AccDes= 0.00D+00
 Harris functional with IExCor=20419 and IRadAn=       5 diagonalized for initial guess.
 HarFok:  IExCor=20419 AccDes= 0.00D+00 IRadAn=         5 IDoV= 1 UseB2=F ITyADJ=14
 ICtDFT=  3500011 ScaDFX=  1.000000  1.000000  1.000000  1.000000
 FoFCou: FMM=F IPFlag=           0 FMFlag=      100000 FMFlg1=           0
         NFxFlg=           0 DoJE=T BraDBF=F KetDBF=T FulRan=T
         wScrn=  0.000000 ICntrl=     500 IOpCl=  0 I1Cent=   200000004 NGrid=           0
         NMat0=    1 NMatS0=      1 NMatT0=    0 NMatD0=    1 NMtDS0=    0 NMtDT0=    0
 Petite list used in FoFCou.
 Requested convergence on RMS density matrix=1.00D-08 within 128 cycles.
 Requested convergence on MAX density matrix=1.00D-06.
 Requested convergence on             energy=1.00D-06.
 No special actions if energy rises.
 SCF Done:  E(RCAM-B3LYP) =  -554.158712609     A.U. after   11 cycles
            NFock= 11  Conv=0.83D-08     -V/T= 2.0050
 DoSCS=F DFT=T ScalE2(SS,OS)=  1.000000  1.000000
 ExpMin= 2.53D-02 ExpMax= 1.95D+04 ExpMxC= 6.65D+02 IAcc=3 IRadAn=         5 AccDes= 0.00D+00
 HarFok:  IExCor=  205 AccDes= 0.00D+00 IRadAn=         5 IDoV=-2 UseB2=F ITyADJ=14
 ICtDFT= 12500011 ScaDFX=  1.000000  1.000000  1.000000  1.000000
 Range of M.O.s used for correlation:     9   460
 NBasis=   460 NAE=    32 NBE=    32 NFC=     8 NFV=     0
 NROrb=    452 NOA=    24 NOB=    24 NVA=   428 NVB=   428

 **** Warning!!: The largest alpha MO coefficient is  0.77725377D+02

 Would need an additional         35044200000 words for in-memory AO integral storage.
 Orbital symmetries:
       Occupied  (A) (A) (A) (A) (A) (A) (A) (A) (A) (A) (A) (A)
                 (A) (A) (A) (A) (A) (A) (A) (A) (A) (A) (A) (A)
                 (A) (A) (A) (A) (A) (A) (A) (A)
       Virtual   (A) (A) (A) (A) (A) (A) (A) (A) (A) (A) (A) (A)
                 (A) (A) (A) (A) (A) (A) (A) (A) (A) (A) (A) (A)
                 (A) (A) (A) (A) (A) (A) (A) (A) (A) (A) (A) (A)
                 (A) (A) (A) (A) (A) (A) (A) (A) (A) (A) (A) (A)
                 (A) (A) (A) (A) (A) (A) (A) (A) (A) (A) (A) (A)
                 (A) (A) (A) (A) (A) (A) (A) (A) (A) (A) (A) (A)
                 (A) (A) (A) (A) (A) (A) (A) (A) (A) (A) (A) (A)
                 (A) (A) (A) (A) (A) (A) (A) (A) (A) (A) (A) (A)
                 (A) (A) (A) (A) (A) (A) (A) (A) (A) (A) (A) (A)
                 (A) (A) (A) (A) (A) (A) (A) (A) (A) (A) (A) (A)
                 (A) (A) (A) (A) (A) (A) (A) (A) (A) (A) (A) (A)
                 (A) (A) (A) (A) (A) (A) (A) (A) (A) (A) (A) (A)
                 (A) (A) (A) (A) (A) (A) (A) (A) (A) (A) (A) (A)
                 (A) (A) (A) (A) (A) (A) (A) (A) (A) (A) (A) (A)
                 (A) (A) (A) (A) (A) (A) (A) (A) (A) (A) (A) (A)
                 (A) (A) (A) (A) (A) (A) (A) (A) (A) (A) (A) (A)
                 (A) (A) (A) (A) (A) (A) (A) (A) (A) (A) (A) (A)
                 (A) (A) (A) (A) (A) (A) (A) (A) (A) (A) (A) (A)
                 (A) (A) (A) (A) (A) (A) (A) (A) (A) (A) (A) (A)
                 (A) (A) (A) (A) (A) (A) (A) (A) (A) (A) (A) (A)
                 (A) (A) (A) (A) (A) (A) (A) (A) (A) (A) (A) (A)
                 (A) (A) (A) (A) (A) (A) (A) (A) (A) (A) (A) (A)
                 (A) (A) (A) (A) (A) (A) (A) (A) (A) (A) (A) (A)
                 (A) (A) (A) (A) (A) (A) (A) (A) (A) (A) (A) (A)
                 (A) (A) (A) (A) (A) (A) (A) (A) (A) (A) (A) (A)
                 (A) (A) (A) (A) (A) (A) (A) (A) (A) (A) (A) (A)
                 (A) (A) (A) (A) (A) (A) (A) (A) (A) (A) (A) (A)
                 (A) (A) (A) (A) (A) (A) (A) (A) (A) (A) (A) (A)
                 (A) (A) (A) (A) (A) (A) (A) (A) (A) (A) (A) (A)
                 (A) (A) (A) (A) (A) (A) (A) (A) (A) (A) (A) (A)
                 (A) (A) (A) (A) (A) (A) (A) (A) (A) (A) (A) (A)
                 (A) (A) (A) (A) (A) (A) (A) (A) (A) (A) (A) (A)
                 (A) (A) (A) (A) (A) (A) (A) (A) (A) (A) (A) (A)
                 (A) (A) (A) (A) (A) (A) (A) (A) (A) (A) (A) (A)
                 (A) (A) (A) (A) (A) (A) (A) (A) (A) (A) (A) (A)
                 (A) (A) (A) (A) (A) (A) (A) (A)
   200 initial guesses have been made.
 Convergence on wavefunction:    0.001000000000000
 Iteration     1 Dimension   200 NMult     0 NNew    200
 CISAX will form   200 AO SS matrices at one time.
 New state      2 was old state     13
 New state      3 was old state      5
 New state      4 was old state      2
 New state      5 was old state      8
 New state      6 was old state      7
 New state      7 was old state      4
 New state      8 was old state     12
 New state      9 was old state      3
 New state     10 was old state     37
 New state     11 was old state      9
 New state     12 was old state     21
 New state     13 was old state     11
 New state     14 was old state     10
 New state     16 was old state     17
 New state     17 was old state     41
 New state     18 was old state     14
 New state     19 was old state     22
 New state     21 was old state     18
 New state     22 was old state     24
 New state     23 was old state     27
 New state     24 was old state     16
 New state     25 was old state     42
 New state     26 was old state     23
 New state     27 was old state     25
 New state     28 was old state     19
 New state     29 was old state     28
 New state     31 was old state     34
 New state     32 was old state     70
 New state     33 was old state     36
 New state     34 was old state     40
 New state     36 was old state     39
 New state     37 was old state     32
 New state     38 was old state     33
 New state     39 was old state     29
 New state     40 was old state     26
 New state     41 was old state     31
 New state     42 was old state     43
 New state     43 was old state     38
 New state     44 was old state     47
 New state     45 was old state     44
 New state     46 was old state     51
 New state     47 was old state     49
 New state     48 was old state     55
 New state     49 was old state     46
 New state     50 was old state     54
 Iteration     2 Dimension   300 NMult   200 NNew    100
 New state      5 was old state     11
 New state      6 was old state      5
 New state      7 was old state      6
 New state      8 was old state      7
 New state      9 was old state      8
 New state     11 was old state      9
 New state     14 was old state     28
 New state     15 was old state     14
 New state     16 was old state     15
 New state     17 was old state     16
 New state     18 was old state     17
 New state     20 was old state     18
 New state     21 was old state     20
 New state     22 was old state     21
 New state     23 was old state     22
 New state     25 was old state     23
 New state     26 was old state     25
 New state     28 was old state     26
 New state     29 was old state     32
 New state     30 was old state     29
 New state     31 was old state     30
 New state     32 was old state     31
 New state     33 was old state     34
 New state     34 was old state     35
 New state     35 was old state     33
 New state     44 was old state     45
 New state     45 was old state     44
 New state     49 was old state     50
 New state     50 was old state     49
 Iteration     3 Dimension   400 NMult   300 NNew    100
 Iteration     4 Dimension   496 NMult   400 NNew     96
 Iteration     5 Dimension   508 NMult   496 NNew     12
 No map to state     50
 Iteration     6 Dimension   512 NMult   508 NNew      4
 Iteration     7 Dimension   516 NMult   512 NNew      4
 Iteration     8 Dimension   518 NMult   516 NNew      2
 ***********************************************************************
 Excited states from <AA,BB:AA,BB> singles matrix:
 ***********************************************************************
 
 Ground to excited state transition densities written to RWF  633
 Ground to excited state transition electric dipole moments (Au):
       state          X           Y           Z        Dip. S.      Osc.
         1         0.3916      0.1368     -0.0004      0.1721      0.0273
         2        -0.0001     -0.0004     -0.0259      0.0007      0.0001
         3         0.5598      0.1338     -0.0005      0.3313      0.0577
         4        -0.2232      0.2284      0.0015      0.1020      0.0180
         5        -0.2437      0.8509      0.0053      0.7835      0.1448
         6        -0.0004     -0.0010     -0.0057      0.0000      0.0000
         7        -0.1266      0.2507      0.0012      0.0789      0.0149
         8        -0.2682     -0.0967     -0.0004      0.0813      0.0154
         9         0.0212      0.4889      0.0014      0.2395      0.0462
        10         0.0000     -0.0007     -0.0303      0.0009      0.0002
        11        -0.0008      0.0016      0.0131      0.0002      0.0000
        12        -0.2644      0.5134      0.0000      0.3335      0.0681
        13         0.0931     -0.0260     -0.0007      0.0093      0.0019
        14         0.9629     -0.9718      0.0004      1.8716      0.3860
        15        -0.0020      0.0036     -0.0183      0.0004      0.0001
        16        -0.1231      0.3374      0.0005      0.1290      0.0276
        17        -0.0676     -0.0119      0.0007      0.0047      0.0010
        18        -0.0029      0.0030     -0.0878      0.0077      0.0017
        19        -0.2268     -0.3644     -0.0034      0.1842      0.0401
        20         0.0133      0.0210     -0.0738      0.0061      0.0013
        21         0.2824      0.2303     -0.0013      0.1328      0.0291
        22        -0.0021      0.0006     -0.2892      0.0836      0.0184
        23        -0.3459     -0.0378     -0.0002      0.1211      0.0271
        24         0.1860     -0.1771     -0.0007      0.0660      0.0149
        25        -0.0001      0.0000     -0.0255      0.0006      0.0001
        26        -0.1558     -0.2263     -0.0008      0.0755      0.0173
        27        -0.2652     -0.1799     -0.0015      0.1027      0.0239
        28         0.0299      0.0212     -0.0154      0.0016      0.0004
        29        -0.0281      0.0173      0.0003      0.0011      0.0003
        30        -0.2186     -0.2718     -0.0013      0.1217      0.0292
        31        -0.3066     -0.2476     -0.0002      0.1553      0.0372
        32         0.0010     -0.0029      0.5299      0.2808      0.0676
        33         0.0065      0.0013      0.0966      0.0094      0.0023
        34        -0.1779     -0.2003     -0.0003      0.0718      0.0173
        35        -0.2741      0.3031      0.0022      0.1670      0.0405
        36         0.2248     -0.0964     -0.0003      0.0598      0.0145
        37         0.0169     -0.0092      0.0002      0.0004      0.0001
        38         0.2617      0.1249     -0.0002      0.0841      0.0208
        39         0.0028      0.0021      0.0550      0.0030      0.0008
        40        -0.0196     -0.0664      0.0006      0.0048      0.0012
        41        -0.0002      0.0016     -0.2073      0.0430      0.0108
        42         0.0306     -0.0400     -0.0028      0.0025      0.0006
        43         0.0000      0.0004     -0.0493      0.0024      0.0006
        44         0.1382     -0.0477     -0.0001      0.0214      0.0055
        45        -0.0003     -0.0001     -0.2338      0.0546      0.0142
        46         0.0029      0.0025     -0.0163      0.0003      0.0001
        47        -0.1312     -0.1008      0.0026      0.0274      0.0072
        48         0.2179      0.1570     -0.0003      0.0721      0.0191
        49         0.0014      0.0008     -0.0336      0.0011      0.0003
        50        -0.0009     -0.0003     -0.0213      0.0005      0.0001
 Ground to excited state transition velocity dipole moments (Au):
       state          X           Y           Z        Dip. S.      Osc.
         1        -0.0918     -0.0316      0.0001      0.0094      0.0264
         2         0.0000      0.0001      0.0060      0.0000      0.0001
         3        -0.1470     -0.0354      0.0001      0.0229      0.0583
         4         0.0597     -0.0598     -0.0004      0.0071      0.0180
         5         0.0676     -0.2355     -0.0014      0.0600      0.1444
         6         0.0001      0.0003      0.0019      0.0000      0.0000
         7         0.0353     -0.0712     -0.0003      0.0063      0.0148
         8         0.0756      0.0268      0.0001      0.0064      0.0151
         9        -0.0063     -0.1413     -0.0004      0.0200      0.0461
        10         0.0000      0.0002      0.0090      0.0001      0.0002
        11         0.0002     -0.0005     -0.0039      0.0000      0.0000
        12         0.0802     -0.1565      0.0000      0.0309      0.0673
        13        -0.0284      0.0083      0.0002      0.0009      0.0019
        14        -0.2970      0.2994     -0.0001      0.1779      0.3834
        15         0.0006     -0.0011      0.0050      0.0000      0.0001
        16         0.0394     -0.1069     -0.0001      0.0130      0.0270
        17         0.0197      0.0025     -0.0002      0.0004      0.0008
        18         0.0009     -0.0010      0.0267      0.0007      0.0015
        19         0.0740      0.1191      0.0011      0.0197      0.0401
        20        -0.0043     -0.0069      0.0239      0.0006      0.0013
        21        -0.0926     -0.0755      0.0004      0.0143      0.0289
        22         0.0007     -0.0002      0.0951      0.0090      0.0182
        23         0.1162      0.0129      0.0001      0.0137      0.0271
        24        -0.0635      0.0597      0.0002      0.0076      0.0150
        25         0.0000      0.0000      0.0087      0.0001      0.0001
        26         0.0551      0.0783      0.0002      0.0092      0.0178
        27         0.0952      0.0637      0.0005      0.0131      0.0250
        28        -0.0108     -0.0075      0.0053      0.0002      0.0004
        29         0.0102     -0.0060     -0.0001      0.0001      0.0003
        30         0.0785      0.0968      0.0005      0.0155      0.0288
        31         0.1107      0.0885      0.0001      0.0201      0.0373
        32        -0.0003      0.0011     -0.1921      0.0369      0.0681
        33        -0.0024     -0.0005     -0.0363      0.0013      0.0024
        34         0.0672      0.0743      0.0001      0.0100      0.0184
        35         0.1003     -0.1099     -0.0008      0.0222      0.0406
        36        -0.0808      0.0345      0.0001      0.0077      0.0141
        37        -0.0079      0.0032     -0.0001      0.0001      0.0001
        38        -0.0942     -0.0452      0.0001      0.0109      0.0196
        39        -0.0010     -0.0007     -0.0192      0.0004      0.0007
        40         0.0047      0.0230     -0.0002      0.0006      0.0010
        41         0.0001     -0.0006      0.0779      0.0061      0.0107
        42        -0.0130      0.0151      0.0010      0.0004      0.0007
        43         0.0000     -0.0001      0.0188      0.0004      0.0006
        44        -0.0512      0.0199      0.0000      0.0030      0.0052
        45         0.0001      0.0000      0.0904      0.0082      0.0140
        46        -0.0011     -0.0010      0.0054      0.0000      0.0001
        47         0.0501      0.0392     -0.0010      0.0040      0.0068
        48        -0.0843     -0.0610      0.0001      0.0108      0.0182
        49        -0.0006     -0.0003      0.0130      0.0002      0.0003
        50         0.0004      0.0001      0.0087      0.0001      0.0001
 Ground to excited state transition magnetic dipole moments (Au):
       state          X           Y           Z
         1         0.0003     -0.0001     -0.0847
         2         0.4803     -0.6583      0.0004
         3         0.0001      0.0003     -0.0105
         4         0.0015     -0.0035      0.1675
         5         0.0022     -0.0081      2.1836
         6         0.1157     -0.2416     -0.0036
         7         0.0012     -0.0032      0.4185
         8        -0.0001      0.0005     -0.3186
         9         0.0010     -0.0036      0.2549
        10         0.4430     -1.1936     -0.0067
        11         0.2473     -0.5404     -0.0020
        12         0.0004     -0.0013     -0.3406
        13        -0.0003      0.0012     -0.3230
        14        -0.0004      0.0024      0.4044
        15        -0.0049      0.0209     -0.0012
        16         0.0008     -0.0027     -0.1861
        17         0.0005     -0.0022     -0.0656
        18        -0.0647      0.2514     -0.0012
        19        -0.0022      0.0087     -0.0036
        20        -0.0476      0.1829      0.0000
        21        -0.0005      0.0019     -0.1595
        22        -0.1658      0.6097      0.0028
        23        -0.0001      0.0005     -0.1599
        24         0.0005      0.0019     -0.4276
        25        -0.8223     -0.2942      0.0000
        26         0.0006      0.0006     -0.4748
        27         0.0004     -0.0001      0.4317
        28         0.0051     -0.0014     -0.0386
        29        -0.0039      0.0072     -1.7199
        30        -0.0013      0.0038     -0.6699
        31        -0.0003      0.0005     -0.0699
        32         0.1964     -1.1039     -0.0049
        33         0.0584     -0.2905     -0.0033
        34         0.0007     -0.0022     -0.3660
        35         0.0017     -0.0057      0.6276
        36        -0.0006      0.0012     -0.3419
        37         0.0008     -0.0016     -0.0907
        38         0.0005     -0.0007     -0.0047
        39        -0.0825      0.0831     -0.0007
        40        -0.0019      0.0021     -0.0684
        41        -0.1135      0.4654      0.0048
        42        -0.0013      0.0060     -0.1135
        43        -0.1097      0.1145      0.0008
        44         0.0003      0.0004     -0.2474
        45        -0.1753      0.5459      0.0008
        46         0.0336      0.0269      0.0019
        47         0.0023     -0.0056     -0.1360
        48        -0.0005      0.0016     -0.0953
        49        -0.1094     -0.0054      0.0006
        50        -1.0729     -0.3247      0.0002
 Ground to excited state transition velocity quadrupole moments (Au):
       state          XX          YY          ZZ          XY          XZ          YZ
         1         0.1622     -0.0722      0.0069     -0.1568     -0.0005     -0.0001
         2         0.0005     -0.0004     -0.0001     -0.0006     -0.0121     -0.0067
         3         1.5331      0.1224     -0.0196      0.4779     -0.0008     -0.0002
         4        -0.6973      0.2802      0.0433      0.3155      0.0023      0.0005
         5        -1.1464      0.8161      0.0070      1.5890      0.0078      0.0018
         6        -0.0009     -0.0002      0.0005     -0.0012     -0.2655     -0.0894
         7        -0.0942      0.0831     -0.0604      0.3055      0.0004      0.0002
         8        -0.1882     -0.0011     -0.0864      0.0437      0.0005      0.0003
         9        -0.4190      0.4144      0.0044      0.5641      0.0023      0.0004
        10        -0.0006      0.0001      0.0004      0.0000     -0.3007     -0.1075
        11        -0.0007      0.0007      0.0001      0.0010      0.0198      0.0361
        12        -0.0952     -0.1591     -0.0437     -0.2286      0.0015      0.0005
        13         0.7966      0.0572      0.1097     -0.0145     -0.0014     -0.0006
        14        -0.4348      0.1983     -0.0191      0.2997     -0.0030     -0.0007
        15         0.0006     -0.0006     -0.0001     -0.0013     -0.0232     -0.0479
        16        -0.1711     -0.1101      0.0098     -0.3377      0.0028      0.0014
        17        -0.2208     -0.0483     -0.0714     -0.0183      0.0023      0.0009
        18        -0.0048     -0.0014     -0.0004     -0.0028     -0.2534     -0.0974
        19        -0.8031     -0.0765      0.0204     -0.2627     -0.0072     -0.0010
        20         0.0518      0.0043     -0.0011      0.0155     -0.1494     -0.0209
        21         1.5026      0.0047     -0.0043      0.1888     -0.0015     -0.0004
        22        -0.0071      0.0007     -0.0001      0.0002     -0.4453     -0.0978
        23        -1.1295     -0.1283     -0.0010     -0.4988     -0.0001      0.0002
        24         0.3580     -0.2316     -0.0076     -0.4280     -0.0020      0.0006
        25         0.0016      0.0056     -0.0071     -0.0032      0.2080     -0.7201
        26         0.3514     -0.0798     -0.0324     -0.1255     -0.0012     -0.0003
        27        -0.2821      0.0654     -0.0046     -0.0372      0.0014     -0.0031
        28         0.0295     -0.0051      0.0012      0.0075      0.0154     -0.0289
        29        -0.4460      0.3260     -0.0011      0.4047      0.0023      0.0006
        30        -0.6412     -0.2789      0.0310     -0.7212     -0.0019     -0.0004
        31        -1.0515     -0.1843      0.0450     -0.3966     -0.0013     -0.0004
        32         0.0024     -0.0020     -0.0005     -0.0046      1.0999      0.2257
        33         0.0277      0.0007     -0.0008      0.0051      0.0905     -0.0081
        34        -1.0633     -0.1702      0.0404     -0.5217     -0.0028     -0.0014
        35        -0.9821      0.2197      0.0285      0.3367      0.0036      0.0008
        36         0.6014     -0.1906     -0.0038     -0.0881     -0.0005     -0.0003
        37         0.3974      0.0823     -0.0080      0.0975      0.0005      0.0003
        38         0.6222     -0.0132     -0.0543      0.1838     -0.0001      0.0004
        39        -0.0034      0.0004     -0.0005      0.0015      0.1339      0.0116
        40         0.3696      0.0279      0.0140      0.0265      0.0013     -0.0007
        41         0.0009      0.0044     -0.0005      0.0014     -0.5008      0.0354
        42         0.3173     -0.2201      0.0376      0.1501     -0.0067      0.0005
        43         0.0001      0.0007     -0.0004      0.0009     -0.0869     -0.0599
        44        -0.0176      0.1263     -0.0245      0.0509     -0.0005      0.0011
        45         0.0025      0.0021     -0.0005      0.0024     -0.5120     -0.2673
        46        -0.0056     -0.0012      0.0008      0.0009     -0.1626      0.0089
        47         0.1561      0.0511     -0.0373      0.1078      0.0039      0.0030
        48        -0.1338      0.0011      0.0314      0.0498     -0.0002     -0.0003
        49         0.0027     -0.0002      0.0001     -0.0022     -0.0492      0.0308
        50        -0.0031     -0.0010     -0.0022      0.0016     -0.0284     -0.0807
 <0|del|b> * <b|rxdel|0> + <0|del|b> * <b|delr+rdel|0>
 Rotatory Strengths (R) in cgs (10**-40 erg-esu-cm/Gauss)
       state          XX          YY          ZZ    R(velocity)    E-M Angle
         1        -0.0573     -0.0241     -0.0241     -0.0351       90.00
         2        -0.0995      0.0213     -0.0890     -0.0557       90.00
         3         0.0277     -0.0581     -0.0394     -0.0233       90.00
         4         0.2154      0.2331      0.1744      0.2076       89.06
         5        -2.1646     -0.7578      0.1271     -0.9318       90.12
         6        -0.0032     -0.0025     -0.1591     -0.0549       90.00
         7         0.0040      0.0117      0.2912      0.1023       89.79
         8        -0.0348     -0.0307      0.0024     -0.0211       90.00
         9         0.6009      0.1473      0.2192      0.3225       89.37
        10        -0.2914     -0.0706     -0.3675     -0.2432       91.54
        11         0.3098      0.0944      0.3435      0.2492       82.25
        12         0.5103      0.0874     -0.0490      0.1829       89.77
        13        -0.0676     -0.0557     -0.0113     -0.0449       90.00
        14         1.7512      0.3636     -0.2910      0.6079       89.73
        15        -0.0699     -0.0368      0.0333     -0.0245       90.00
        16         0.7421      0.0729     -0.0365      0.2595       89.05
        17         0.0088      0.0421     -0.0086      0.0141       90.00
        18        -0.6463     -0.1127      0.0342     -0.2416       92.73
        19         1.7507      0.0394      0.0973      0.6292       50.12
        20        -2.0619     -0.0804     -0.1232     -0.7552      102.67
        21        -0.2666     -0.0669     -0.0165     -0.1167       90.49
        22         0.1068      0.0715     -0.0821      0.0320       90.00
        23        -0.0407      0.0360     -0.0303     -0.0117       90.00
        24         0.0446     -0.0728     -0.0025     -0.0102       90.00
        25        -0.0291     -0.0111     -0.0026     -0.0143       90.00
        26        -0.0084     -0.0697     -0.0057     -0.0279       90.00
        27         0.1064     -0.0220      0.4202      0.1682       89.71
        28        -0.0399      0.0113     -0.4761     -0.1682      116.95
        29         0.1243      0.2146     -0.1016      0.0791       89.66
        30        -0.0935     -0.1053      0.1107     -0.0294       90.00
        31         0.1374     -0.0543     -0.0616      0.0072       90.00
        32        -0.4918     -0.0882      0.0057     -0.1914       90.08
        33         0.1177      0.1770     -0.0603      0.0781       89.36
        34        -0.0332     -0.0305     -0.2315     -0.0984       90.24
        35         0.2335      0.0131      0.3030      0.1832       89.83
        36         0.0221      0.0439      0.0441      0.0367       90.00
        37        -0.0071      0.0071     -0.0071     -0.0024       90.00
        38         0.0385     -0.0905      0.0296     -0.0075       90.00
        39         0.0210      0.1071     -0.0635      0.0215       90.00
        40         0.0247      0.0060      0.0682      0.0330       90.00
        41        -0.0969      0.2433      0.0085      0.0516       90.00
        42         0.2149     -0.2465      0.0117     -0.0066       90.00
        43         0.0039     -0.0006     -0.0030      0.0001       90.00
        44         0.0098     -0.0766      0.0392     -0.0092       90.00
        45         0.3072     -0.1655      0.0096      0.0504       90.00
        46        -0.1510     -0.0369      0.0933     -0.0316       90.00
        47        -0.3056      0.4662     -0.0916      0.0230       90.00
        48        -0.0985      0.0437     -0.0573     -0.0374       90.00
        49        -0.0299      0.0718      0.0861      0.0427       90.00
        50        -0.0171     -0.3687     -0.3451     -0.2436       92.44
 1/2[<0|r|b>*<b|rxdel|0> + (<0|rxdel|b>*<b|r|0>)*]
 Rotatory Strengths (R) in cgs (10**-40 erg-esu-cm/Gauss)
       state          XX          YY          ZZ     R(length)
         1        -0.0907      0.0105     -0.0249     -0.0350
         2         0.0375     -0.2029      0.0080     -0.0525
         3        -0.0352     -0.0305     -0.0037     -0.0231
         4         0.2373      0.5614     -0.1737      0.2083
         5         0.3744      4.8948     -8.1131     -0.9480
         6         0.0305     -0.1783     -0.0147     -0.0541
         7         0.1048      0.5636     -0.3604      0.1026
         8        -0.0189      0.0364     -0.0881     -0.0235
         9        -0.0150      1.2444     -0.2586      0.3236
        10         0.0012     -0.5954     -0.1429     -0.2457
        11         0.1421      0.5936      0.0187      0.2515
        12         0.0773      0.4810     -0.0082      0.1834
        13         0.0202      0.0214     -0.1712     -0.0432
        14         0.2858      1.6535     -0.1042      0.6117
        15        -0.0069     -0.0535     -0.0151     -0.0252
        16         0.0726      0.6521      0.0684      0.2644
        17         0.0236     -0.0187      0.0347      0.0132
        18        -0.1308     -0.5274     -0.0744     -0.2442
        19        -0.3560      2.2508     -0.0085      0.6288
        20         0.4460     -2.7170      0.0019     -0.7564
        21         0.1092     -0.3162     -0.1423     -0.1164
        22        -0.2472     -0.2404      0.5803      0.0309
        23        -0.0249      0.0131     -0.0273     -0.0130
        24        -0.0695      0.2429     -0.2004     -0.0090
        25        -0.0463      0.0012     -0.0009     -0.0153
        26         0.0646      0.0892     -0.2564     -0.0342
        27         0.0767     -0.0100      0.4476      0.1714
        28        -0.1088      0.0215     -0.4207     -0.1693
        29        -0.0769     -0.0882      0.3954      0.0768
        30        -0.1945      0.7222     -0.6008     -0.0244
        31        -0.0634      0.0934     -0.0079      0.0074
        32        -0.1344     -2.2556      1.8206     -0.1898
        33        -0.2671      0.2576      0.2225      0.0710
        34         0.0875     -0.3164     -0.0854     -0.1048
        35         0.3225      1.2238     -0.9914      0.1850
        36         0.0880      0.0839     -0.0614      0.0368
        37        -0.0093     -0.0104      0.0134     -0.0021
        38        -0.0885      0.0655     -0.0005     -0.0078
        39         0.1646     -0.1225      0.0271      0.0231
        40        -0.0257      0.0975      0.0286      0.0335
        41        -0.0176     -0.5230      0.7050      0.0548
        42         0.0279      0.1703     -0.2217     -0.0078
        43         0.0012     -0.0284      0.0271      0.0000
        44        -0.0263      0.0133     -0.0187     -0.0106
        45        -0.0364      0.0285      0.1343      0.0421
        46        -0.0687     -0.0471      0.0219     -0.0313
        47         0.2144     -0.3969      0.2460      0.0212
        48         0.0834     -0.1721     -0.0206     -0.0364
        49         0.1118      0.0032      0.0144      0.0431
        50        -0.6691     -0.0734      0.0034     -0.2464
  1/2[<0|del|b>*<b|r|0> + (<0|r|b>*<b|del|0>)*] (Au)
       state          X           Y           Z        Dip. S.   Osc.(frdel)
         1        -0.0359     -0.0043      0.0000      0.0403      0.0268
         2         0.0000      0.0000     -0.0002      0.0002      0.0001
         3        -0.0823     -0.0047      0.0000      0.0870      0.0580
         4        -0.0133     -0.0136      0.0000      0.0270      0.0180
         5        -0.0165     -0.2004      0.0000      0.2169      0.1446
         6         0.0000      0.0000      0.0000      0.0000      0.0000
         7        -0.0045     -0.0178      0.0000      0.0223      0.0149
         8        -0.0203     -0.0026      0.0000      0.0229      0.0152
         9        -0.0001     -0.0691      0.0000      0.0692      0.0461
        10         0.0000      0.0000     -0.0003      0.0003      0.0002
        11         0.0000      0.0000     -0.0001      0.0001      0.0000
        12        -0.0212     -0.0803      0.0000      0.1015      0.0677
        13        -0.0026     -0.0002      0.0000      0.0029      0.0019
        14        -0.2860     -0.2910      0.0000      0.5770      0.3847
        15         0.0000      0.0000     -0.0001      0.0001      0.0001
        16        -0.0048     -0.0361      0.0000      0.0409      0.0273
        17        -0.0013      0.0000      0.0000      0.0014      0.0009
        18         0.0000      0.0000     -0.0023      0.0024      0.0016
        19        -0.0168     -0.0434      0.0000      0.0602      0.0401
        20        -0.0001     -0.0001     -0.0018      0.0020      0.0013
        21        -0.0262     -0.0174      0.0000      0.0435      0.0290
        22         0.0000      0.0000     -0.0275      0.0275      0.0183
        23        -0.0402     -0.0005      0.0000      0.0407      0.0271
        24        -0.0118     -0.0106      0.0000      0.0224      0.0149
        25         0.0000      0.0000     -0.0002      0.0002      0.0001
        26        -0.0086     -0.0177      0.0000      0.0263      0.0175
        27        -0.0253     -0.0115      0.0000      0.0367      0.0245
        28        -0.0003     -0.0002     -0.0001      0.0006      0.0004
        29        -0.0003     -0.0001      0.0000      0.0004      0.0003
        30        -0.0172     -0.0263      0.0000      0.0435      0.0290
        31        -0.0339     -0.0219      0.0000      0.0559      0.0372
        32         0.0000      0.0000     -0.1018      0.1018      0.0679
        33         0.0000      0.0000     -0.0035      0.0035      0.0023
        34        -0.0119     -0.0149      0.0000      0.0268      0.0179
        35        -0.0275     -0.0333      0.0000      0.0608      0.0405
        36        -0.0182     -0.0033      0.0000      0.0215      0.0143
        37        -0.0001      0.0000      0.0000      0.0002      0.0001
        38        -0.0247     -0.0056      0.0000      0.0303      0.0202
        39         0.0000      0.0000     -0.0011      0.0011      0.0007
        40        -0.0001     -0.0015      0.0000      0.0016      0.0011
        41         0.0000      0.0000     -0.0161      0.0161      0.0108
        42        -0.0004     -0.0006      0.0000      0.0010      0.0007
        43         0.0000      0.0000     -0.0009      0.0009      0.0006
        44        -0.0071     -0.0009      0.0000      0.0080      0.0053
        45         0.0000      0.0000     -0.0211      0.0211      0.0141
        46         0.0000      0.0000     -0.0001      0.0001      0.0001
        47        -0.0066     -0.0040      0.0000      0.0105      0.0070
        48        -0.0184     -0.0096      0.0000      0.0279      0.0186
        49         0.0000      0.0000     -0.0004      0.0004      0.0003
        50         0.0000      0.0000     -0.0002      0.0002      0.0001

 Excitation energies and oscillator strengths:
 
 Excited State   1:      Singlet-A      6.4813 eV  191.30 nm  f=0.0273  <S**2>=0.000
      32 -> 33         0.53558
      32 -> 34        -0.14392
      32 -> 36        -0.25402
      32 -> 37        -0.26357
      32 -> 44        -0.11861
 This state for optimization and/or second-order correction.
 Total Energy, E(TD-HF/TD-KS) =  -553.920530689    
 Copying the excited state density for this state as the 1-particle RhoCI density.
 
 Excited State   2:      Singlet-A      6.7216 eV  184.46 nm  f=0.0001  <S**2>=0.000
      31 -> 40        -0.10299
      32 -> 35        -0.33648
      32 -> 40         0.44348
      32 -> 49        -0.19549
      32 -> 51        -0.34009
 
 Excited State   3:      Singlet-A      7.1117 eV  174.34 nm  f=0.0577  <S**2>=0.000
      31 -> 33         0.58838
      31 -> 37         0.12198
      31 -> 50        -0.12158
      32 -> 33         0.17427
      32 -> 34         0.13146
      32 -> 36         0.14577
 
 Excited State   4:      Singlet-A      7.2014 eV  172.17 nm  f=0.0180  <S**2>=0.000
      32 -> 34         0.43981
      32 -> 36         0.25905
      32 -> 37        -0.43698
      32 -> 52        -0.11171
 
 Excited State   5:      Singlet-A      7.5421 eV  164.39 nm  f=0.1448  <S**2>=0.000
      31 -> 34         0.14787
      31 -> 36         0.47686
      31 -> 37        -0.28061
      32 -> 34        -0.21338
      32 -> 36         0.21451
      32 -> 39        -0.19950
 
 Excited State   6:      Singlet-A      7.6599 eV  161.86 nm  f=0.0000  <S**2>=0.000
      31 -> 35         0.56916
      31 -> 49         0.21179
      32 -> 35         0.30314
      32 -> 51        -0.10615
 
 Excited State   7:      Singlet-A      7.7175 eV  160.65 nm  f=0.0149  <S**2>=0.000
      31 -> 33        -0.17832
      31 -> 34         0.39606
      31 -> 37        -0.13754
      31 -> 39        -0.14556
      32 -> 33         0.18223
      32 -> 34         0.28242
      32 -> 37         0.31424
      32 -> 41        -0.10662
 
 Excited State   8:      Singlet-A      7.7299 eV  160.40 nm  f=0.0154  <S**2>=0.000
      31 -> 33        -0.14503
      31 -> 34        -0.34841
      32 -> 33         0.27567
      32 -> 36         0.38134
      32 -> 37         0.21523
      32 -> 41        -0.20568
 
 Excited State   9:      Singlet-A      7.8722 eV  157.50 nm  f=0.0462  <S**2>=0.000
      31 -> 34        -0.27869
      31 -> 36         0.36454
      31 -> 37        -0.13285
      32 -> 34         0.13794
      32 -> 36        -0.26883
      32 -> 39         0.36236
 
 Excited State  10:      Singlet-A      8.0872 eV  153.31 nm  f=0.0002  <S**2>=0.000
      30 -> 34         0.13613
      30 -> 36         0.47040
      30 -> 37        -0.33822
      30 -> 39        -0.20668
      32 -> 35        -0.21318
      32 -> 51         0.11897
 
 Excited State  11:      Singlet-A      8.1199 eV  152.69 nm  f=0.0000  <S**2>=0.000
      30 -> 36         0.18631
      30 -> 37        -0.13409
      31 -> 35        -0.31062
      32 -> 35         0.46237
      32 -> 40         0.10440
      32 -> 51        -0.28273
 
 Excited State  12:      Singlet-A      8.3326 eV  148.79 nm  f=0.0681  <S**2>=0.000
      31 -> 34         0.18788
      31 -> 36        -0.12832
      31 -> 37        -0.16824
      32 -> 34        -0.25279
      32 -> 36         0.14205
      32 -> 37        -0.14148
      32 -> 39         0.42615
      32 -> 41        -0.19514
      32 -> 43        -0.19160
 
 Excited State  13:      Singlet-A      8.3383 eV  148.69 nm  f=0.0019  <S**2>=0.000
      31 -> 33        -0.14300
      31 -> 34         0.12299
      31 -> 36         0.19716
      31 -> 37         0.47806
      31 -> 41         0.20373
      32 -> 34        -0.11029
      32 -> 36         0.16067
      32 -> 39         0.16566
      32 -> 41         0.16467
 
 Excited State  14:      Singlet-A      8.4174 eV  147.30 nm  f=0.3860  <S**2>=0.000
      31 -> 36        -0.14986
      32 -> 34        -0.10161
      32 -> 39         0.19334
      32 -> 41         0.34464
      32 -> 42         0.10275
      32 -> 43         0.50907
 
 Excited State  15:      Singlet-A      8.5975 eV  144.21 nm  f=0.0001  <S**2>=0.000
      31 -> 38         0.13705
      32 -> 38         0.64018
      32 -> 45        -0.19179
 
 Excited State  16:      Singlet-A      8.7202 eV  142.18 nm  f=0.0276  <S**2>=0.000
      31 -> 37        -0.13923
      31 -> 42         0.15631
      32 -> 37         0.10789
      32 -> 41         0.40618
      32 -> 42         0.21264
      32 -> 43        -0.36049
      32 -> 46         0.21823
 
 Excited State  17:      Singlet-A      8.7462 eV  141.76 nm  f=0.0010  <S**2>=0.000
      31 -> 42         0.28840
      31 -> 50        -0.11849
      32 -> 33        -0.18027
      32 -> 41        -0.15675
      32 -> 42         0.47210
      32 -> 44        -0.10841
      32 -> 46        -0.13571
      32 -> 47        -0.11094
 
 Excited State  18:      Singlet-A      8.7801 eV  141.21 nm  f=0.0017  <S**2>=0.000
      31 -> 38        -0.11972
      31 -> 40         0.11786
      31 -> 51        -0.11428
      32 -> 40         0.50319
      32 -> 49         0.22548
      32 -> 51         0.33291
 
 Excited State  19:      Singlet-A      8.8886 eV  139.49 nm  f=0.0401  <S**2>=0.000
      31 -> 33        -0.13540
      31 -> 39         0.12349
      31 -> 42         0.44284
      32 -> 42        -0.23452
      32 -> 43         0.11110
      32 -> 44         0.22696
      32 -> 47         0.22621
      32 -> 50        -0.11631
 
 Excited State  20:      Singlet-A      8.8935 eV  139.41 nm  f=0.0013  <S**2>=0.000
      31 -> 38         0.63940
      31 -> 54        -0.15686
      32 -> 38        -0.11042
      32 -> 45         0.17835
 
 Excited State  21:      Singlet-A      8.9547 eV  138.46 nm  f=0.0291  <S**2>=0.000
      31 -> 37        -0.13915
      31 -> 41         0.54701
      31 -> 42         0.13307
      31 -> 43         0.29914
      31 -> 46        -0.15747
      32 -> 46        -0.11045
 
 Excited State  22:      Singlet-A      8.9839 eV  138.01 nm  f=0.0184  <S**2>=0.000
      31 -> 40         0.64241
      32 -> 51        -0.15982
 
 Excited State  23:      Singlet-A      9.1484 eV  135.53 nm  f=0.0271  <S**2>=0.000
      31 -> 37         0.13347
      31 -> 39        -0.18630
      31 -> 41        -0.16860
      31 -> 43         0.56835
      31 -> 46         0.18440
      32 -> 43         0.10144
      32 -> 46         0.15148
 
 Excited State  24:      Singlet-A      9.2100 eV  134.62 nm  f=0.0149  <S**2>=0.000
      31 -> 34         0.14731
      31 -> 36         0.10195
      31 -> 39         0.55944
      31 -> 42        -0.13845
      31 -> 43         0.17163
      31 -> 48        -0.11088
      32 -> 39         0.11286
      32 -> 44        -0.10485
 
 Excited State  25:      Singlet-A      9.2309 eV  134.31 nm  f=0.0001  <S**2>=0.000
      30 -> 33         0.63399
      30 -> 34         0.10447
      30 -> 36         0.15297
      30 -> 37         0.11930
      30 -> 50        -0.13430
 
[...]
      32 -> 46         0.11158
      32 -> 47        -0.15624
      32 -> 50         0.40444
      32 -> 52        -0.10922
      32 -> 53         0.12101
      32 -> 57        -0.11214
 
 Excited State  38:      Singlet-A     10.1061 eV  122.68 nm  f=0.0208  <S**2>=0.000
      31 -> 37         0.11871
      31 -> 41        -0.14794
      31 -> 42         0.11673
      31 -> 46        -0.37772
      31 -> 48         0.22466
      31 -> 50         0.38324
      31 -> 57         0.10512
      32 -> 47         0.10418
      32 -> 57         0.12551
 
 Excited State  39:      Singlet-A     10.1561 eV  122.08 nm  f=0.0008  <S**2>=0.000
      31 -> 35         0.10723
      31 -> 49        -0.34130
      32 -> 49         0.37178
      32 -> 51        -0.16893
      32 -> 54         0.23746
      32 -> 55         0.30366
      32 -> 58        -0.11821
 
 Excited State  40:      Singlet-A     10.2077 eV  121.46 nm  f=0.0012  <S**2>=0.000
      31 -> 44         0.18081
      31 -> 47        -0.22744
      31 -> 48        -0.16794
      31 -> 50        -0.11957
      31 -> 53        -0.10888
      32 -> 44        -0.25166
      32 -> 47         0.27309
      32 -> 48        -0.12977
      32 -> 50         0.30658
      32 -> 52        -0.20840
      32 -> 53         0.10417
      32 -> 57        -0.13131
 
 Excited State  41:      Singlet-A     10.3053 eV  120.31 nm  f=0.0108  <S**2>=0.000
      31 -> 45         0.64064
      31 -> 54        -0.13024
      31 -> 62         0.10816
 
 Excited State  42:      Singlet-A     10.3340 eV  119.98 nm  f=0.0006  <S**2>=0.000
      31 -> 41        -0.14455
      31 -> 42        -0.12135
      31 -> 46        -0.32528
      31 -> 47         0.41339
      31 -> 48        -0.32235
      31 -> 53        -0.11207
      32 -> 53        -0.10154
 
 Excited State  43:      Singlet-A     10.3811 eV  119.43 nm  f=0.0006  <S**2>=0.000
      30 -> 33        -0.15606
      30 -> 36         0.30649
      30 -> 37         0.49007
      30 -> 41         0.27511
      30 -> 42        -0.15122
 
 Excited State  44:      Singlet-A     10.4362 eV  118.80 nm  f=0.0055  <S**2>=0.000
      31 -> 44        -0.13323
      31 -> 46         0.18800
      31 -> 48        -0.36500
      31 -> 50         0.40308
      31 -> 53        -0.16981
      32 -> 53        -0.21714
 
 Excited State  45:      Singlet-A     10.6217 eV  116.73 nm  f=0.0142  <S**2>=0.000
      31 -> 45        -0.18933
      31 -> 51         0.38595
      31 -> 54        -0.13397
      31 -> 55        -0.25595
      31 -> 58        -0.17346
      31 -> 60        -0.10815
      32 -> 49         0.23294
      32 -> 54        -0.18875
      32 -> 55        -0.27917
 
 Excited State  46:      Singlet-A     10.6881 eV  116.00 nm  f=0.0001  <S**2>=0.000
      31 -> 49         0.23989
      31 -> 51         0.31224
      31 -> 55        -0.16281
      32 -> 49        -0.22010
      32 -> 51         0.26066
      32 -> 54         0.27667
      32 -> 55         0.28296
      32 -> 58        -0.11513
 
 Excited State  47:      Singlet-A     10.7509 eV  115.32 nm  f=0.0072  <S**2>=0.000
      31 -> 48        -0.15198
      31 -> 50         0.18832
      31 -> 52         0.27358
      31 -> 56        -0.21325
      32 -> 50        -0.10082
      32 -> 52         0.19892
      32 -> 53         0.33257
      32 -> 56        -0.24377
      32 -> 57        -0.19441
 
 Excited State  48:      Singlet-A     10.8127 eV  114.67 nm  f=0.0191  <S**2>=0.000
      31 -> 52         0.31700
      31 -> 56        -0.20934
      32 -> 44         0.14084
      32 -> 46         0.10718
      32 -> 47         0.11769
      32 -> 50         0.17127
      32 -> 57         0.44287
 
 Excited State  49:      Singlet-A     10.8911 eV  113.84 nm  f=0.0003  <S**2>=0.000
      31 -> 38         0.14776
      31 -> 54         0.49928
      31 -> 55        -0.13340
      32 -> 54         0.29489
      32 -> 55        -0.28078
 
 Excited State  50:      Singlet-A     10.9069 eV  113.68 nm  f=0.0001  <S**2>=0.000
      30 -> 33        -0.12307
      30 -> 39         0.19217
      30 -> 41         0.17922
      30 -> 42         0.57351
      30 -> 44         0.11503
      30 -> 47         0.12303
      30 -> 50        -0.10260
 SavETr:  write IOETrn=   770 NScale= 10 NData=  16 NLR=1 NState=   50 LETran=     910.

 **********************************************************************

            Population analysis using the SCF density.

 **********************************************************************

 Orbital symmetries:
       Occupied  (A) (A) (A) (A) (A) (A) (A) (A) (A) (A) (A) (A)
                 (A) (A) (A) (A) (A) (A) (A) (A) (A) (A) (A) (A)
                 (A) (A) (A) (A) (A) (A) (A) (A)
       Virtual   (A) (A) (A) (A) (A) (A) (A) (A) (A) (A) (A) (A)
                 (A) (A) (A) (A) (A) (A) (A) (A) (A) (A) (A) (A)
                 (A) (A) (A) (A) (A) (A) (A) (A) (A) (A) (A) (A)
                 (A) (A) (A) (A) (A) (A) (A) (A) (A) (A) (A) (A)
                 (A) (A) (A) (A) (A) (A) (A) (A) (A) (A) (A) (A)
                 (A) (A) (A) (A) (A) (A) (A) (A) (A) (A) (A) (A)
                 (A) (A) (A) (A) (A) (A) (A) (A) (A) (A) (A) (A)
                 (A) (A) (A) (A) (A) (A) (A) (A) (A) (A) (A) (A)
                 (A) (A) (A) (A) (A) (A) (A) (A) (A) (A) (A) (A)
                 (A) (A) (A) (A) (A) (A) (A) (A) (A) (A) (A) (A)
                 (A) (A) (A) (A) (A) (A) (A) (A) (A) (A) (A) (A)
                 (A) (A) (A) (A) (A) (A) (A) (A) (A) (A) (A) (A)
                 (A) (A) (A) (A) (A) (A) (A) (A) (A) (A) (A) (A)
                 (A) (A) (A) (A) (A) (A) (A) (A) (A) (A) (A) (A)
                 (A) (A) (A) (A) (A) (A) (A) (A) (A) (A) (A) (A)
                 (A) (A) (A) (A) (A) (A) (A) (A) (A) (A) (A) (A)
                 (A) (A) (A) (A) (A) (A) (A) (A) (A) (A) (A) (A)
                 (A) (A) (A) (A) (A) (A) (A) (A) (A) (A) (A) (A)
                 (A) (A) (A) (A) (A) (A) (A) (A) (A) (A) (A) (A)
                 (A) (A) (A) (A) (A) (A) (A) (A) (A) (A) (A) (A)
                 (A) (A) (A) (A) (A) (A) (A) (A) (A) (A) (A) (A)
                 (A) (A) (A) (A) (A) (A) (A) (A) (A) (A) (A) (A)
                 (A) (A) (A) (A) (A) (A) (A) (A) (A) (A) (A) (A)
                 (A) (A) (A) (A) (A) (A) (A) (A) (A) (A) (A) (A)
                 (A) (A) (A) (A) (A) (A) (A) (A) (A) (A) (A) (A)
                 (A) (A) (A) (A) (A) (A) (A) (A) (A) (A) (A) (A)
                 (A) (A) (A) (A) (A) (A) (A) (A) (A) (A) (A) (A)
                 (A) (A) (A) (A) (A) (A) (A) (A) (A) (A) (A) (A)
                 (A) (A) (A) (A) (A) (A) (A) (A) (A) (A) (A) (A)
                 (A) (A) (A) (A) (A) (A) (A) (A) (A) (A) (A) (A)
                 (A) (A) (A) (A) (A) (A) (A) (A) (A) (A) (A) (A)
                 (A) (A) (A) (A) (A) (A) (A) (A) (A) (A) (A) (A)
                 (A) (A) (A) (A) (A) (A) (A) (A) (A) (A) (A) (A)
                 (A) (A) (A) (A) (A) (A) (A) (A) (A) (A) (A) (A)
                 (A) (A) (A) (A) (A) (A) (A) (A) (A) (A) (A) (A)
                 (A) (A) (A) (A) (A) (A) (A) (A)
 The electronic state is 1-A.
 Alpha  occ. eigenvalues --  -24.82366 -24.82366 -24.82312 -24.82311 -10.44081
 Alpha  occ. eigenvalues --  -10.43948 -10.25113 -10.25005  -1.40721  -1.39224
 Alpha  occ. eigenvalues --   -1.34796  -1.33619  -0.90056  -0.85301  -0.75258
 Alpha  occ. eigenvalues --   -0.71045  -0.70052  -0.66140  -0.65364  -0.64982
 Alpha  occ. eigenvalues --   -0.60356  -0.57557  -0.55364  -0.54880  -0.54481
 Alpha  occ. eigenvalues --   -0.54139  -0.53450  -0.52029  -0.49741  -0.42524
 Alpha  occ. eigenvalues --   -0.34879  -0.33024
 Alpha virt. eigenvalues --    0.01098   0.02359   0.02661   0.02939   0.03292
 Alpha virt. eigenvalues --    0.05022   0.05355   0.05853   0.06923   0.07624
 Alpha virt. eigenvalues --    0.07755   0.09446   0.09572   0.09808   0.10005
 Alpha virt. eigenvalues --    0.11028   0.11043   0.11628   0.12923   0.13334
 Alpha virt. eigenvalues --    0.13907   0.14353   0.15466   0.15860   0.16228
 Alpha virt. eigenvalues --    0.17915   0.20189   0.20312   0.20524   0.20557
 Alpha virt. eigenvalues --    0.22066   0.22828   0.23521   0.23559   0.24972
 Alpha virt. eigenvalues --    0.25602   0.25882   0.26288   0.26785   0.26881
 Alpha virt. eigenvalues --    0.27426   0.28005   0.29980   0.30587   0.31117
 Alpha virt. eigenvalues --    0.31380   0.32663   0.33182   0.33336   0.33616
 Alpha virt. eigenvalues --    0.34441   0.34590   0.34949   0.35760   0.36919
 Alpha virt. eigenvalues --    0.36960   0.37780   0.38478   0.38963   0.39900
 Alpha virt. eigenvalues --    0.40747   0.42402   0.43321   0.43472   0.44205
 Alpha virt. eigenvalues --    0.45101   0.46524   0.46670   0.47327   0.48563
 Alpha virt. eigenvalues --    0.49053   0.50711   0.52321   0.52400   0.52902
 Alpha virt. eigenvalues --    0.54860   0.54937   0.55859   0.57915   0.58826
 Alpha virt. eigenvalues --    0.60734   0.62012   0.62715   0.64720   0.64837
 Alpha virt. eigenvalues --    0.66165   0.68517   0.69617   0.70057   0.71767
 Alpha virt. eigenvalues --    0.73386   0.74073   0.74181   0.75503   0.77041
 Alpha virt. eigenvalues --    0.78270   0.78597   0.80389   0.81358   0.83445
 Alpha virt. eigenvalues --    0.84085   0.84982   0.86491   0.86560   0.87192
 Alpha virt. eigenvalues --    0.87648   0.88285   0.89229   0.90722   0.91170
 Alpha virt. eigenvalues --    0.91749   0.92107   0.92470   0.93461   0.94975
 Alpha virt. eigenvalues --    0.96602   0.97144   0.97831   0.99187   0.99196
 Alpha virt. eigenvalues --    0.99878   1.00874   1.01080   1.02247   1.02614
 Alpha virt. eigenvalues --    1.03419   1.04491   1.05206   1.05433   1.06898
 Alpha virt. eigenvalues --    1.07315   1.07882   1.08448   1.09683   1.10142
 Alpha virt. eigenvalues --    1.11160   1.12833   1.15093   1.16011   1.17317
 Alpha virt. eigenvalues --    1.18568   1.19393   1.20702   1.22147   1.22227
 Alpha virt. eigenvalues --    1.23417   1.24136   1.24653   1.25575   1.26714
 Alpha virt. eigenvalues --    1.27985   1.28292   1.29474   1.31418   1.33502
 Alpha virt. eigenvalues --    1.35065   1.37091   1.38125   1.40022   1.42245
 Alpha virt. eigenvalues --    1.43988   1.44052   1.45867   1.46409   1.47674
 Alpha virt. eigenvalues --    1.50300   1.50947   1.53765   1.54581   1.54926
 Alpha virt. eigenvalues --    1.56238   1.56420   1.58215   1.58382   1.58622
 Alpha virt. eigenvalues --    1.58904   1.60075   1.61554   1.62068   1.63523
 Alpha virt. eigenvalues --    1.66060   1.67907   1.68279   1.69707   1.72616
 Alpha virt. eigenvalues --    1.73460   1.74195   1.74219   1.78238   1.81448
 Alpha virt. eigenvalues --    1.81756   1.82040   1.86063   1.86347   1.91105
 Alpha virt. eigenvalues --    1.93963   1.94012   1.95593   1.97691   1.99297
 Alpha virt. eigenvalues --    2.00087   2.05122   2.07887   2.12047   2.14527
 Alpha virt. eigenvalues --    2.19894   2.21953   2.23451   2.28043   2.29023
 Alpha virt. eigenvalues --    2.33768   2.41027   2.42853   2.46176   2.46956
 Alpha virt. eigenvalues --    2.52073   2.52338   2.58797   2.59127   2.60019
 Alpha virt. eigenvalues --    2.60362   2.62122   2.64100   2.66517   2.67906
 Alpha virt. eigenvalues --    2.69349   2.70113   2.71851   2.72685   2.75535
 Alpha virt. eigenvalues --    2.75857   2.79080   2.79542   2.82935   2.85073
 Alpha virt. eigenvalues --    2.85203   2.86985   2.91015   2.91349   2.91633
 Alpha virt. eigenvalues --    2.93785   2.94504   2.94549   2.97011   2.98036
 Alpha virt. eigenvalues --    2.99610   3.00425   3.01198   3.05584   3.06654
 Alpha virt. eigenvalues --    3.08321   3.08502   3.09833   3.10984   3.11535
 Alpha virt. eigenvalues --    3.15386   3.15958   3.17152   3.17660   3.19002
 Alpha virt. eigenvalues --    3.19486   3.21876   3.23056   3.23479   3.23994
 Alpha virt. eigenvalues --    3.24213   3.25382   3.26470   3.29734   3.30545
 Alpha virt. eigenvalues --    3.34528   3.35362   3.37300   3.38779   3.41779
 Alpha virt. eigenvalues --    3.42871   3.47657   3.47807   3.49131   3.49604
 Alpha virt. eigenvalues --    3.49994   3.53170   3.54018   3.55538   3.55554
 Alpha virt. eigenvalues --    3.56132   3.59866   3.60696   3.63431   3.63869
 Alpha virt. eigenvalues --    3.66890   3.70936   3.72264   3.74394   3.74890
 Alpha virt. eigenvalues --    3.75268   3.77440   3.77861   3.78238   3.79016
 Alpha virt. eigenvalues --    3.84007   3.85012   3.86659   3.93250   3.93491
 Alpha virt. eigenvalues --    3.94945   3.97512   3.98309   4.00071   4.07730
 Alpha virt. eigenvalues --    4.10459   4.14397   4.14836   4.20326   4.26890
 Alpha virt. eigenvalues --    4.27611   4.28189   4.29564   4.31241   4.32980
 Alpha virt. eigenvalues --    4.33605   4.36322   4.40480   4.44441   4.45612
 Alpha virt. eigenvalues --    4.46766   4.53544   4.54329   4.57059   4.59003
 Alpha virt. eigenvalues --    4.65687   4.68456   4.70475   4.71000   4.71713
 Alpha virt. eigenvalues --    4.78119   4.80229   4.83558   4.89132   4.90612
 Alpha virt. eigenvalues --    4.96836   4.97463   4.99156   5.00607   5.02994
 Alpha virt. eigenvalues --    5.05606   5.07699   5.09743   5.09882   5.18309
 Alpha virt. eigenvalues --    5.24360   5.25041   5.26108   5.30158   5.31370
 Alpha virt. eigenvalues --    5.33684   5.35318   5.37187   5.38709   5.68623
 Alpha virt. eigenvalues --    5.72938   5.78267   6.09567   6.17646   6.27632
 Alpha virt. eigenvalues --    6.28057   6.38341   6.46898   6.61127   6.69032
 Alpha virt. eigenvalues --    6.92560   7.09383   8.35121   8.36134   8.41851
 Alpha virt. eigenvalues --    8.42693   8.42854   8.44374   8.46399   8.49217
 Alpha virt. eigenvalues --    8.54066   8.58510   8.62615   8.67476   8.73011
 Alpha virt. eigenvalues --    8.73990   8.76487   8.76535   8.78331   8.78456
 Alpha virt. eigenvalues --    8.79825   8.79920   8.80775   8.81907   8.82078
 Alpha virt. eigenvalues --    8.82687   8.84985   8.86492   8.87621   8.90207
 Alpha virt. eigenvalues --    8.91723   8.94533   8.95047   8.95342   8.98139
 Alpha virt. eigenvalues --    9.03916   9.04028   9.06108   9.10544   9.10560
 Alpha virt. eigenvalues --    9.11435   9.21723   9.22818   9.27193   9.28377
 Alpha virt. eigenvalues --    9.34544   9.35900   9.47594   9.57824   9.64257
 Alpha virt. eigenvalues --   12.14560  13.80499  14.66698  16.36492  16.61045
 Alpha virt. eigenvalues --   16.77368  17.09519  17.24206
          Condensed to atoms (all electrons):
               1          2          3          4          5          6
     1  C    5.679151   0.381695   0.382019   0.296290  -0.041892  -0.042521
     2  H    0.381695   0.366317  -0.027024  -0.046340  -0.014264   0.013762
     3  H    0.382019  -0.027024   0.366656  -0.046763   0.013872  -0.014358
     4  C    0.296290  -0.046340  -0.046763   5.703069   0.372492   0.372987
     5  H   -0.041892  -0.014264   0.013872   0.372492   0.367930  -0.024933
     6  H   -0.042521   0.013762  -0.014358   0.372987  -0.024933   0.367920
     7  C    0.007372   0.002001   0.001977  -0.001886   0.000622   0.000428
     8  C   -0.001243  -0.000848  -0.000824  -0.013553   0.001398   0.001359
     9  F   -0.000195   0.001578  -0.003275   0.006967  -0.000532  -0.000137
    10  F   -0.000200  -0.003503   0.001707   0.007166  -0.000124  -0.000557
    11  F   -0.000234  -0.000431   0.000856   0.002630   0.002723  -0.005415
    12  F   -0.000194   0.000841  -0.000422   0.002521  -0.005367   0.002713
               7          8          9         10         11         12
     1  C    0.007372  -0.001243  -0.000195  -0.000200  -0.000234  -0.000194
     2  H    0.002001  -0.000848   0.001578  -0.003503  -0.000431   0.000841
     3  H    0.001977  -0.000824  -0.003275   0.001707   0.000856  -0.000422
     4  C   -0.001886  -0.013553   0.006967   0.007166   0.002630   0.002521
     5  H    0.000622   0.001398  -0.000532  -0.000124   0.002723  -0.005367
     6  H    0.000428   0.001359  -0.000137  -0.000557  -0.005415   0.002713
     7  C    5.153367   0.097323   0.099355   0.099055  -0.035731  -0.035790
     8  C    0.097323   5.180483  -0.031958  -0.031825   0.133502   0.133593
     9  F    0.099355  -0.031958   9.318849  -0.100661  -0.000466   0.008870
    10  F    0.099055  -0.031825  -0.100661   9.319079   0.008864  -0.000542
    11  F   -0.035731   0.133502  -0.000466   0.008864   9.263158  -0.099121
    12  F   -0.035790   0.133593   0.008870  -0.000542  -0.099121   9.263209
 Mulliken charges:
               1
     1  C   -0.660047
     2  H    0.326217
     3  H    0.325580
     4  C   -0.655580
     5  H    0.328074
     6  H    0.328752
     7  C    0.611908
     8  C    0.532593
     9  F   -0.298394
    10  F   -0.298459
    11  F   -0.270334
    12  F   -0.270311
 Sum of Mulliken charges =   0.00000
 Mulliken charges with hydrogens summed into heavy atoms:
               1
     1  C   -0.008249
     4  C    0.001246
     7  C    0.611908
     8  C    0.532593
     9  F   -0.298394
    10  F   -0.298459
    11  F   -0.270334
    12  F   -0.270311
 Electronic spatial extent (au):  <R**2>=           1182.8115
 Charge=              0.0000 electrons
 Dipole moment (field-independent basis, Debye):
    X=             -0.1941    Y=              0.0103    Z=              0.0000  Tot=              0.1943
 Quadrupole moment (field-independent basis, Debye-Ang):
   XX=            -45.5920   YY=            -44.4235   ZZ=            -45.2895
   XY=              0.3837   XZ=              0.0016   YZ=              0.0011
 Traceless Quadrupole moment (field-independent basis, Debye-Ang):
   XX=             -0.4903   YY=              0.6782   ZZ=             -0.1878
   XY=              0.3837   XZ=              0.0016   YZ=              0.0011
 Octapole moment (field-independent basis, Debye-Ang**2):
  XXX=             40.4072  YYY=              4.3632  ZZZ=             -0.0006  XYY=              7.9905
  XXY=             11.9297  XXZ=             -0.0093  XZZ=              4.0335  YZZ=              1.0121
  YYZ=             -0.0022  XYZ=             -0.0050
 Hexadecapole moment (field-independent basis, Debye-Ang**3):
 XXXX=           -980.8267 YYYY=           -297.7703 ZZZZ=           -192.9094 XXXY=            -53.7737
 XXXZ=              0.0636 YYYX=            -20.4462 YYYZ=             -0.0589 ZZZX=             -0.0042
 ZZZY=              0.0206 XXYY=           -204.7185 XXZZ=           -178.2193 YYZZ=            -81.9466
 XXYZ=             -0.0004 YYXZ=              0.0255 ZZXY=             -5.7659
 N-N= 3.778881577348D+02 E-N=-2.066498626980D+03  KE= 5.513957587089D+02
 1\1\GINC-TC-NODE166\SP\RCAM-B3LYP TD-FC\Aug-CC-pVTZ\C4H4F4\MAXB2\17-No
 v-2016\0\\# td=(singlet,nstates=50) cam-b3lyp/aug-cc-pvtz geom=check g
 fp\\Title\\0,1\C,0,0.0723772473,0.1104115933,0.0372126524\H,0,0.103791
 8266,0.1011440674,1.1183663388\H,0,1.0240235985,0.1032197063,-0.476867
 0212\C,0,-1.070692064,0.1293779921,-0.6221461464\H,0,-2.0224773487,0.1
 336814348,-0.1079376562\H,0,-1.102070621,0.1357486459,-1.7034900611\C,
 0,-0.3139389476,3.6991385221,-0.181375713\C,0,-1.4062143099,4.05286623
 18,-0.8200232586\F,0,0.8405811237,3.5048409534,-0.7753115705\F,0,-0.26
 53127471,3.5045866617,1.1160096419\F,0,-1.4566918417,4.2444699161,-2.1
 192029024\F,0,-2.5631988869,4.2443884853,-0.2268738805\\Version=ES64L-
 G09RevD.01\State=1-A\HF=-554.1587126\RMSD=8.256e-09\PG=C01 [X(C4H4F4)]
 \\@


     ON THE SURVIVAL OF THE FITTEST -
 "STRONG REPRESENTATIVES FROM EACH PAST ERA THRIVE TODAY,
 SUCH AS PROGRAMMING IN THE THIRTY YEAR OLD LANGUAGE KNOWN
 AS FORTRAN, AND EVEN IN THE ANCIENT SCRIPT KNOWN AS DIRECT
 MACHINE CODE. SOME PEOPLE MIGHT LOOK ON SUCH RELICS AS LIVING
 FOSSILS; OTHERS WOULD POINT OUT THAT EVEN A VERY OLD SPECIES
 MIGHT STILL BE FILLING A PARTICULAR ECOLOGICAL NICHE."
     -- ALAN KAY, SCI.AM. SEPTEMBER 1984
 Job cpu time:       0 days 13 hours 22 minutes 47.8 seconds.
 File lengths (MBytes):  RWF=   1305 Int=      0 D2E=      0 Chk=    279 Scr=      1
 Normal termination of Gaussian 09 at Thu Nov 17 13:33:54 2016.
