 Entering Gaussian System, Link 0=g09
 Initial command:
 /cluster/software/gaussian/gaussian-09-D.01/g09/l1.exe "/local/scratch/maxb2/Gau-7075.inp" -scrdir="/local/scratch/maxb2/"
 Entering Link 1 = /cluster/software/gaussian/gaussian-09-D.01/g09/l1.exe PID=      7076.
  
 Copyright (c) 1988,1990,1992,1993,1995,1998,2003,2009,2013,
            Gaussian, Inc.  All Rights Reserved.
  
 This is part of the Gaussian(R) 09 program.  It is based on
 the Gaussian(R) 03 system (copyright 2003, Gaussian, Inc.),
 the Gaussian(R) 98 system (copyright 1998, Gaussian, Inc.),
 the Gaussian(R) 94 system (copyright 1995, Gaussian, Inc.),
 the Gaussian 92(TM) system (copyright 1992, Gaussian, Inc.),
 the Gaussian 90(TM) system (copyright 1990, Gaussian, Inc.),
 the Gaussian 88(TM) system (copyright 1988, Gaussian, Inc.),
 the Gaussian 86(TM) system (copyright 1986, Carnegie Mellon
 University), and the Gaussian 82(TM) system (copyright 1983,
 Carnegie Mellon University). Gaussian is a federally registered
 trademark of Gaussian, Inc.
  
 This software contains proprietary and confidential information,
 including trade secrets, belonging to Gaussian, Inc.
  
 This software is provided under written license and may be
 used, copied, transmitted, or stored only in accord with that
 written license.
  
 The following legend is applicable only to US Government
 contracts under FAR:
  
                    RESTRICTED RIGHTS LEGEND
  
 Use, reproduction and disclosure by the US Government is
 subject to restrictions as set forth in subparagraphs (a)
 and (c) of the Commercial Computer Software - Restricted
 Rights clause in FAR 52.227-19.
  
 Gaussian, Inc.
 340 Quinnipiac St., Bldg. 40, Wallingford CT 06492
  
  
 ---------------------------------------------------------------
 Warning -- This program may not be used in any manner that
 competes with the business of Gaussian, Inc. or will provide
 assistance to any competitor of Gaussian, Inc.  The licensee
 of this program is prohibited from giving any competitor of
 Gaussian, Inc. access to this program.  By using this program,
 the user acknowledges that Gaussian, Inc. is engaged in the
 business of creating and licensing software in the field of
 computational chemistry and represents and warrants to the
 licensee that it is not a competitor of Gaussian, Inc. and that
 it will not use this program in any manner prohibited above.
 ---------------------------------------------------------------
  

 Cite this work as:
 Gaussian 09, Revision D.01,
 M. J. Frisch, G. W. Trucks, H. B. Schlegel, G. E. Scuseria, 
 M. A. Robb, J. R. Cheeseman, G. Scalmani, V. Barone, B. Mennucci, 
 G. A. Petersson, H. Nakatsuji, M. Caricato, X. Li, H. P. Hratchian, 
 A. F. Izmaylov, J. Bloino, G. Zheng, J. L. Sonnenberg, M. Hada, 
 M. Ehara, K. Toyota, R. Fukuda, J. Hasegawa, M. Ishida, T. Nakajima, 
 Y. Honda, O. Kitao, H. Nakai, T. Vreven, J. A. Montgomery, Jr., 
 J. E. Peralta, F. Ogliaro, M. Bearpark, J. J. Heyd, E. Brothers, 
 K. N. Kudin, V. N. Staroverov, T. Keith, R. Kobayashi, J. Normand, 
 K. Raghavachari, A. Rendell, J. C. Burant, S. S. Iyengar, J. Tomasi, 
 M. Cossi, N. Rega, J. M. Millam, M. Klene, J. E. Knox, J. B. Cross, 
 V. Bakken, C. Adamo, J. Jaramillo, R. Gomperts, R. E. Stratmann, 
 O. Yazyev, A. J. Austin, R. Cammi, C. Pomelli, J. W. Ochterski, 
 R. L. Martin, K. Morokuma, V. G. Zakrzewski, G. A. Voth, 
 P. Salvador, J. J. Dannenberg, S. Dapprich, A. D. Daniels, 
 O. Farkas, J. B. Foresman, J. V. Ortiz, J. Cioslowski, 
 and D. J. Fox, Gaussian, Inc., Wallingford CT, 2013.
 
 ******************************************
 Gaussian 09:  ES64L-G09RevD.01 24-Apr-2013
                17-Nov-2016 
 ******************************************
 %nprocshared=8
 Will use up to    8 processors via shared memory.
 %mem=6GB
 %oldchk=c2h4-c2f4-wb97xd-aug.chk
 %chk=c2h4-c2f4-wb97xd-aug-td
 Copying data from "c2h4-c2f4-wb97xd-aug.chk" to current chk file "c2h4-c2f4-wb97xd-aug-td.chk".
 -----------------------------------------------------------
 # td=(singlet,nstates=50) wb97xd/aug-cc-pvtz geom=check gfp
 -----------------------------------------------------------
 1/29=2,38=1/1;
 2/12=2,40=1/2;
 3/5=16,6=1,7=10,11=9,14=-4,16=1,24=100,25=1,30=1,74=-58/1,2,8,3;
 4//1;
 5/5=2,38=5/2;
 8/6=1,10=1,108=50/1;
 9/41=50,42=1,48=1,70=2/14;
 6/7=2,8=2,9=2,10=2/1;
 99/5=1,9=1/99;
 -----
 Title
 -----
 Structure from the checkpoint file:  "c2h4-c2f4-wb97xd-aug-td.chk"
 Charge =  0 Multiplicity = 1
 Redundant internal coordinates found in file.
 C,0,-0.0178599184,0.143776377,0.148352022
 H,0,-0.246259321,-0.0199554931,1.1934692332
 H,0,1.0262199192,0.1122337499,-0.1350618842
 C,0,-0.9690261652,0.3775602333,-0.7396387506
 H,0,-2.0134599456,0.4100844839,-0.456662897
 H,0,-0.7404436478,0.5435916749,-1.7846968859
 C,0,-0.2554561252,3.6317321822,-0.2719326589
 C,0,-1.4751570078,3.8428171424,-0.7225852072
 F,0,0.7799251679,3.4450204917,-1.0538733541
 F,0,0.0439954771,3.5758435956,1.00233279
 F,0,-1.7769538652,3.8839669592,-1.9992033879
 F,0,-2.5153475388,4.017202813,0.0578614035
 Recover connectivity data from disk.
                          Input orientation:                          
 ---------------------------------------------------------------------
 Center     Atomic      Atomic             Coordinates (Angstroms)
 Number     Number       Type             X           Y           Z
 ---------------------------------------------------------------------
      1          6           0       -0.017860    0.143776    0.148352
      2          1           0       -0.246259   -0.019955    1.193469
      3          1           0        1.026220    0.112234   -0.135062
      4          6           0       -0.969026    0.377560   -0.739639
      5          1           0       -2.013460    0.410084   -0.456663
      6          1           0       -0.740444    0.543592   -1.784697
      7          6           0       -0.255456    3.631732   -0.271933
      8          6           0       -1.475157    3.842817   -0.722585
      9          9           0        0.779925    3.445020   -1.053873
     10          9           0        0.043995    3.575844    1.002333
     11          9           0       -1.776954    3.883967   -1.999203
     12          9           0       -2.515348    4.017203    0.057861
 ---------------------------------------------------------------------
                    Distance matrix (angstroms):
                    1          2          3          4          5
     1  C    0.000000
     2  H    1.082240   0.000000
     3  H    1.082322   1.844362   0.000000
     4  C    1.322082   2.101741   2.101647   0.000000
     5  H    2.102233   2.455783   3.071123   1.082578   0.000000
     6  H    2.102060   3.071038   2.455293   1.082572   1.844470
     7  C    3.521211   3.934757   3.748106   3.364159   3.674740
     8  C    4.070031   4.483577   4.529826   3.502066   3.484844
     9  F    3.602779   4.255545   3.465883   3.544980   4.167793
    10  F    3.537258   3.612555   3.775583   3.780171   4.047693
    11  F    4.657835   5.270370   5.055569   3.812367   3.808310
    12  F    4.609671   4.768334   5.275292   4.034119   3.678033
                    6          7          8          9         10
     6  H    0.000000
     7  C    3.472791   0.000000
     8  C    3.542989   1.317313   0.000000
     9  F    3.356175   1.310842   2.313739   0.000000
    10  F    4.192545   1.310171   2.313967   2.187851   0.000000
    11  F    3.504065   2.315608   1.312451   2.761151   3.524204
    12  F    4.314079   2.316131   1.312061   3.524510   2.763523
                   11         12
    11  F    0.000000
    12  F    2.189633   0.000000
 Stoichiometry    C4H4F4
 Framework group  C1[X(C4H4F4)]
 Deg. of freedom    30
 Full point group                 C1      NOp   1
 Largest Abelian subgroup         C1      NOp   1
 Largest concise Abelian subgroup C1      NOp   1
                         Standard orientation:                         
 ---------------------------------------------------------------------
 Center     Atomic      Atomic             Coordinates (Angstroms)
 Number     Number       Type             X           Y           Z
 ---------------------------------------------------------------------
      1          6           0       -2.869759   -0.151991   -0.262085
      2          1           0       -3.097166    0.042983   -1.302044
      3          1           0       -3.220088    0.574305    0.459847
      4          6           0       -2.190473   -1.223894    0.108717
      5          1           0       -1.839047   -1.950296   -0.612958
      6          1           0       -1.961010   -1.417824    1.148765
      7          6           0        0.504074    0.790262    0.096151
      8          6           0        1.190785   -0.325022   -0.044862
      9          9           0        0.087218    1.238743    1.255204
     10          9           0        0.158798    1.557598   -0.908104
     11          9           0        1.523584   -1.100851    0.960058
     12          9           0        1.598127   -0.782746   -1.205062
 ---------------------------------------------------------------------
 Rotational constants (GHZ):      2.1227674      1.2909024      1.1518672
 Standard basis: Aug-CC-pVTZ (5D, 7F)
 AO basis set (Overlap normalization):
 Atom C1       Shell     1 S   7     bf    1 -     1         -5.423059086633         -0.287220689866         -0.495268683702
      0.8236000000D+04  0.5419783203D-03
      0.1235000000D+04  0.4192873817D-02
      0.2808000000D+03  0.2152216205D-01
      0.7927000000D+02  0.8353432195D-01
      0.2559000000D+02  0.2395828457D+00
      0.8997000000D+01  0.4428528419D+00
      0.3319000000D+01  0.3517995618D+00
 Atom C1       Shell     2 S   6     bf    2 -     2         -5.423059086633         -0.287220689866         -0.495268683702
      0.2808000000D+03 -0.5949224937D-04
      0.7927000000D+02 -0.1148158310D-02
      0.2559000000D+02 -0.1001913745D-01
      0.8997000000D+01 -0.6121949230D-01
      0.3319000000D+01 -0.1732698541D+00
      0.3643000000D+00  0.1072915192D+01
 Atom C1       Shell     3 S   1     bf    3 -     3         -5.423059086633         -0.287220689866         -0.495268683702
      0.9059000000D+00  0.1000000000D+01
 Atom C1       Shell     4 S   1     bf    4 -     4         -5.423059086633         -0.287220689866         -0.495268683702
      0.1285000000D+00  0.1000000000D+01
 Atom C1       Shell     5 S   1     bf    5 -     5         -5.423059086633         -0.287220689866         -0.495268683702
      0.4402000000D-01  0.1000000000D+01
 Atom C1       Shell     6 P   3     bf    6 -     8         -5.423059086633         -0.287220689866         -0.495268683702
      0.1871000000D+02  0.3942638716D-01
      0.4133000000D+01  0.2440889849D+00
      0.1200000000D+01  0.8154920089D+00
 Atom C1       Shell     7 P   1     bf    9 -    11         -5.423059086633         -0.287220689866         -0.495268683702
      0.3827000000D+00  0.1000000000D+01
 Atom C1       Shell     8 P   1     bf   12 -    14         -5.423059086633         -0.287220689866         -0.495268683702
      0.1209000000D+00  0.1000000000D+01
 Atom C1       Shell     9 P   1     bf   15 -    17         -5.423059086633         -0.287220689866         -0.495268683702
      0.3569000000D-01  0.1000000000D+01
 Atom C1       Shell    10 D   1     bf   18 -    22         -5.423059086633         -0.287220689866         -0.495268683702
      0.1097000000D+01  0.1000000000D+01
 Atom C1       Shell    11 D   1     bf   23 -    27         -5.423059086633         -0.287220689866         -0.495268683702
      0.3180000000D+00  0.1000000000D+01
 Atom C1       Shell    12 D   1     bf   28 -    32         -5.423059086633         -0.287220689866         -0.495268683702
      0.1000000000D+00  0.1000000000D+01
 Atom C1       Shell    13 F   1     bf   33 -    39         -5.423059086633         -0.287220689866         -0.495268683702
      0.7610000000D+00  0.1000000000D+01
 Atom C1       Shell    14 F   1     bf   40 -    46         -5.423059086633         -0.287220689866         -0.495268683702
      0.2680000000D+00  0.1000000000D+01
 Atom H2       Shell    15 S   3     bf   47 -    47         -5.852796170469          0.081227033642         -2.460507096831
      0.3387000000D+02  0.2549486323D-01
      0.5095000000D+01  0.1903627659D+00
      0.1159000000D+01  0.8521620222D+00
 Atom H2       Shell    16 S   1     bf   48 -    48         -5.852796170469          0.081227033642         -2.460507096831
      0.3258000000D+00  0.1000000000D+01
 Atom H2       Shell    17 S   1     bf   49 -    49         -5.852796170469          0.081227033642         -2.460507096831
      0.1027000000D+00  0.1000000000D+01
 Atom H2       Shell    18 S   1     bf   50 -    50         -5.852796170469          0.081227033642         -2.460507096831
      0.2526000000D-01  0.1000000000D+01
 Atom H2       Shell    19 P   1     bf   51 -    53         -5.852796170469          0.081227033642         -2.460507096831
      0.1407000000D+01  0.1000000000D+01
 Atom H2       Shell    20 P   1     bf   54 -    56         -5.852796170469          0.081227033642         -2.460507096831
      0.3880000000D+00  0.1000000000D+01
 Atom H2       Shell    21 P   1     bf   57 -    59         -5.852796170469          0.081227033642         -2.460507096831
      0.1020000000D+00  0.1000000000D+01
 Atom H2       Shell    22 D   1     bf   60 -    64         -5.852796170469          0.081227033642         -2.460507096831
      0.1057000000D+01  0.1000000000D+01
 Atom H2       Shell    23 D   1     bf   65 -    69         -5.852796170469          0.081227033642         -2.460507096831
      0.2470000000D+00  0.1000000000D+01
 Atom H3       Shell    24 S   3     bf   70 -    70         -6.085084108823          1.085279679383          0.868984329207
      0.3387000000D+02  0.2549486323D-01
      0.5095000000D+01  0.1903627659D+00
      0.1159000000D+01  0.8521620222D+00
 Atom H3       Shell    25 S   1     bf   71 -    71         -6.085084108823          1.085279679383          0.868984329207
      0.3258000000D+00  0.1000000000D+01
 Atom H3       Shell    26 S   1     bf   72 -    72         -6.085084108823          1.085279679383          0.868984329207
      0.1027000000D+00  0.1000000000D+01
 Atom H3       Shell    27 S   1     bf   73 -    73         -6.085084108823          1.085279679383          0.868984329207
      0.2526000000D-01  0.1000000000D+01
 Atom H3       Shell    28 P   1     bf   74 -    76         -6.085084108823          1.085279679383          0.868984329207
      0.1407000000D+01  0.1000000000D+01
 Atom H3       Shell    29 P   1     bf   77 -    79         -6.085084108823          1.085279679383          0.868984329207
      0.3880000000D+00  0.1000000000D+01
 Atom H3       Shell    30 P   1     bf   80 -    82         -6.085084108823          1.085279679383          0.868984329207
      0.1020000000D+00  0.1000000000D+01
 Atom H3       Shell    31 D   1     bf   83 -    87         -6.085084108823          1.085279679383          0.868984329207
      0.1057000000D+01  0.1000000000D+01
 Atom H3       Shell    32 D   1     bf   88 -    92         -6.085084108823          1.085279679383          0.868984329207
      0.2470000000D+00  0.1000000000D+01
 Atom C4       Shell    33 S   7     bf   93 -    93         -4.139393889289         -2.312823692301          0.205444843719
      0.8236000000D+04  0.5419783203D-03
      0.1235000000D+04  0.4192873817D-02
      0.2808000000D+03  0.2152216205D-01
      0.7927000000D+02  0.8353432195D-01
      0.2559000000D+02  0.2395828457D+00
      0.8997000000D+01  0.4428528419D+00
      0.3319000000D+01  0.3517995618D+00
 Atom C4       Shell    34 S   6     bf   94 -    94         -4.139393889289         -2.312823692301          0.205444843719
      0.2808000000D+03 -0.5949224937D-04
      0.7927000000D+02 -0.1148158310D-02
      0.2559000000D+02 -0.1001913745D-01
      0.8997000000D+01 -0.6121949230D-01
      0.3319000000D+01 -0.1732698541D+00
      0.3643000000D+00  0.1072915192D+01
 Atom C4       Shell    35 S   1     bf   95 -    95         -4.139393889289         -2.312823692301          0.205444843719
      0.9059000000D+00  0.1000000000D+01
 Atom C4       Shell    36 S   1     bf   96 -    96         -4.139393889289         -2.312823692301          0.205444843719
      0.1285000000D+00  0.1000000000D+01
 Atom C4       Shell    37 S   1     bf   97 -    97         -4.139393889289         -2.312823692301          0.205444843719
      0.4402000000D-01  0.1000000000D+01
 Atom C4       Shell    38 P   3     bf   98 -   100         -4.139393889289         -2.312823692301          0.205444843719
      0.1871000000D+02  0.3942638716D-01
      0.4133000000D+01  0.2440889849D+00
      0.1200000000D+01  0.8154920089D+00
 Atom C4       Shell    39 P   1     bf  101 -   103         -4.139393889289         -2.312823692301          0.205444843719
      0.3827000000D+00  0.1000000000D+01
 Atom C4       Shell    40 P   1     bf  104 -   106         -4.139393889289         -2.312823692301          0.205444843719
      0.1209000000D+00  0.1000000000D+01
 Atom C4       Shell    41 P   1     bf  107 -   109         -4.139393889289         -2.312823692301          0.205444843719
      0.3569000000D-01  0.1000000000D+01
 Atom C4       Shell    42 D   1     bf  110 -   114         -4.139393889289         -2.312823692301          0.205444843719
      0.1097000000D+01  0.1000000000D+01
 Atom C4       Shell    43 D   1     bf  115 -   119         -4.139393889289         -2.312823692301          0.205444843719
      0.3180000000D+00  0.1000000000D+01
 Atom C4       Shell    44 D   1     bf  120 -   124         -4.139393889289         -2.312823692301          0.205444843719
      0.1000000000D+00  0.1000000000D+01
 Atom C4       Shell    45 F   1     bf  125 -   131         -4.139393889289         -2.312823692301          0.205444843719
      0.7610000000D+00  0.1000000000D+01
 Atom C4       Shell    46 F   1     bf  132 -   138         -4.139393889289         -2.312823692301          0.205444843719
      0.2680000000D+00  0.1000000000D+01
 Atom H5       Shell    47 S   3     bf  139 -   139         -3.475296024278         -3.685526241204         -1.158322280012
      0.3387000000D+02  0.2549486323D-01
      0.5095000000D+01  0.1903627659D+00
      0.1159000000D+01  0.8521620222D+00
 Atom H5       Shell    48 S   1     bf  140 -   140         -3.475296024278         -3.685526241204         -1.158322280012
      0.3258000000D+00  0.1000000000D+01
 Atom H5       Shell    49 S   1     bf  141 -   141         -3.475296024278         -3.685526241204         -1.158322280012
      0.1027000000D+00  0.1000000000D+01
 Atom H5       Shell    50 S   1     bf  142 -   142         -3.475296024278         -3.685526241204         -1.158322280012
      0.2526000000D-01  0.1000000000D+01
 Atom H5       Shell    51 P   1     bf  143 -   145         -3.475296024278         -3.685526241204         -1.158322280012
      0.1407000000D+01  0.1000000000D+01
 Atom H5       Shell    52 P   1     bf  146 -   148         -3.475296024278         -3.685526241204         -1.158322280012
      0.3880000000D+00  0.1000000000D+01
 Atom H5       Shell    53 P   1     bf  149 -   151         -3.475296024278         -3.685526241204         -1.158322280012
      0.1020000000D+00  0.1000000000D+01
 Atom H5       Shell    54 D   1     bf  152 -   156         -3.475296024278         -3.685526241204         -1.158322280012
      0.1057000000D+01  0.1000000000D+01
 Atom H5       Shell    55 D   1     bf  157 -   161         -3.475296024278         -3.685526241204         -1.158322280012
      0.2470000000D+00  0.1000000000D+01
 Atom H6       Shell    56 S   3     bf  162 -   162         -3.705771204802         -2.679299118504          2.170851341708
      0.3387000000D+02  0.2549486323D-01
      0.5095000000D+01  0.1903627659D+00
      0.1159000000D+01  0.8521620222D+00
 Atom H6       Shell    57 S   1     bf  163 -   163         -3.705771204802         -2.679299118504          2.170851341708
      0.3258000000D+00  0.1000000000D+01
 Atom H6       Shell    58 S   1     bf  164 -   164         -3.705771204802         -2.679299118504          2.170851341708
      0.1027000000D+00  0.1000000000D+01
 Atom H6       Shell    59 S   1     bf  165 -   165         -3.705771204802         -2.679299118504          2.170851341708
      0.2526000000D-01  0.1000000000D+01
 Atom H6       Shell    60 P   1     bf  166 -   168         -3.705771204802         -2.679299118504          2.170851341708
      0.1407000000D+01  0.1000000000D+01
 Atom H6       Shell    61 P   1     bf  169 -   171         -3.705771204802         -2.679299118504          2.170851341708
      0.3880000000D+00  0.1000000000D+01
 Atom H6       Shell    62 P   1     bf  172 -   174         -3.705771204802         -2.679299118504          2.170851341708
      0.1020000000D+00  0.1000000000D+01
 Atom H6       Shell    63 D   1     bf  175 -   179         -3.705771204802         -2.679299118504          2.170851341708
      0.1057000000D+01  0.1000000000D+01
 Atom H6       Shell    64 D   1     bf  180 -   184         -3.705771204802         -2.679299118504          2.170851341708
      0.2470000000D+00  0.1000000000D+01
 Atom C7       Shell    65 S   7     bf  185 -   185          0.952562590338          1.493378942377          0.181698962357
      0.8236000000D+04  0.5419783203D-03
      0.1235000000D+04  0.4192873817D-02
      0.2808000000D+03  0.2152216205D-01
      0.7927000000D+02  0.8353432195D-01
      0.2559000000D+02  0.2395828457D+00
      0.8997000000D+01  0.4428528419D+00
      0.3319000000D+01  0.3517995618D+00
 Atom C7       Shell    66 S   6     bf  186 -   186          0.952562590338          1.493378942377          0.181698962357
      0.2808000000D+03 -0.5949224937D-04
      0.7927000000D+02 -0.1148158310D-02
      0.2559000000D+02 -0.1001913745D-01
      0.8997000000D+01 -0.6121949230D-01
      0.3319000000D+01 -0.1732698541D+00
      0.3643000000D+00  0.1072915192D+01
 Atom C7       Shell    67 S   1     bf  187 -   187          0.952562590338          1.493378942377          0.181698962357
      0.9059000000D+00  0.1000000000D+01
 Atom C7       Shell    68 S   1     bf  188 -   188          0.952562590338          1.493378942377          0.181698962357
      0.1285000000D+00  0.1000000000D+01
 Atom C7       Shell    69 S   1     bf  189 -   189          0.952562590338          1.493378942377          0.181698962357
      0.4402000000D-01  0.1000000000D+01
 Atom C7       Shell    70 P   3     bf  190 -   192          0.952562590338          1.493378942377          0.181698962357
      0.1871000000D+02  0.3942638716D-01
      0.4133000000D+01  0.2440889849D+00
      0.1200000000D+01  0.8154920089D+00
 Atom C7       Shell    71 P   1     bf  193 -   195          0.952562590338          1.493378942377          0.181698962357
      0.3827000000D+00  0.1000000000D+01
 Atom C7       Shell    72 P   1     bf  196 -   198          0.952562590338          1.493378942377          0.181698962357
      0.1209000000D+00  0.1000000000D+01
 Atom C7       Shell    73 P   1     bf  199 -   201          0.952562590338          1.493378942377          0.181698962357
      0.3569000000D-01  0.1000000000D+01
 Atom C7       Shell    74 D   1     bf  202 -   206          0.952562590338          1.493378942377          0.181698962357
      0.1097000000D+01  0.1000000000D+01
 Atom C7       Shell    75 D   1     bf  207 -   211          0.952562590338          1.493378942377          0.181698962357
      0.3180000000D+00  0.1000000000D+01
 Atom C7       Shell    76 D   1     bf  212 -   216          0.952562590338          1.493378942377          0.181698962357
      0.1000000000D+00  0.1000000000D+01
 Atom C7       Shell    77 F   1     bf  217 -   223          0.952562590338          1.493378942377          0.181698962357
      0.7610000000D+00  0.1000000000D+01
 Atom C7       Shell    78 F   1     bf  224 -   230          0.952562590338          1.493378942377          0.181698962357
      0.2680000000D+00  0.1000000000D+01
 Atom C8       Shell    79 S   7     bf  231 -   231          2.250258357019         -0.614202248213         -0.084776182627
      0.8236000000D+04  0.5419783203D-03
      0.1235000000D+04  0.4192873817D-02
      0.2808000000D+03  0.2152216205D-01
      0.7927000000D+02  0.8353432195D-01
      0.2559000000D+02  0.2395828457D+00
      0.8997000000D+01  0.4428528419D+00
      0.3319000000D+01  0.3517995618D+00
 Atom C8       Shell    80 S   6     bf  232 -   232          2.250258357019         -0.614202248213         -0.084776182627
      0.2808000000D+03 -0.5949224937D-04
      0.7927000000D+02 -0.1148158310D-02
      0.2559000000D+02 -0.1001913745D-01
      0.8997000000D+01 -0.6121949230D-01
      0.3319000000D+01 -0.1732698541D+00
      0.3643000000D+00  0.1072915192D+01
 Atom C8       Shell    81 S   1     bf  233 -   233          2.250258357019         -0.614202248213         -0.084776182627
      0.9059000000D+00  0.1000000000D+01
 Atom C8       Shell    82 S   1     bf  234 -   234          2.250258357019         -0.614202248213         -0.084776182627
      0.1285000000D+00  0.1000000000D+01
 Atom C8       Shell    83 S   1     bf  235 -   235          2.250258357019         -0.614202248213         -0.084776182627
      0.4402000000D-01  0.1000000000D+01
 Atom C8       Shell    84 P   3     bf  236 -   238          2.250258357019         -0.614202248213         -0.084776182627
      0.1871000000D+02  0.3942638716D-01
      0.4133000000D+01  0.2440889849D+00
      0.1200000000D+01  0.8154920089D+00
 Atom C8       Shell    85 P   1     bf  239 -   241          2.250258357019         -0.614202248213         -0.084776182627
      0.3827000000D+00  0.1000000000D+01
 Atom C8       Shell    86 P   1     bf  242 -   244          2.250258357019         -0.614202248213         -0.084776182627
      0.1209000000D+00  0.1000000000D+01
 Atom C8       Shell    87 P   1     bf  245 -   247          2.250258357019         -0.614202248213         -0.084776182627
      0.3569000000D-01  0.1000000000D+01
 Atom C8       Shell    88 D   1     bf  248 -   252          2.250258357019         -0.614202248213         -0.084776182627
      0.1097000000D+01  0.1000000000D+01
 Atom C8       Shell    89 D   1     bf  253 -   257          2.250258357019         -0.614202248213         -0.084776182627
      0.3180000000D+00  0.1000000000D+01
 Atom C8       Shell    90 D   1     bf  258 -   262          2.250258357019         -0.614202248213         -0.084776182627
      0.1000000000D+00  0.1000000000D+01
 Atom C8       Shell    91 F   1     bf  263 -   269          2.250258357019         -0.614202248213         -0.084776182627
      0.7610000000D+00  0.1000000000D+01
 Atom C8       Shell    92 F   1     bf  270 -   276          2.250258357019         -0.614202248213         -0.084776182627
      0.2680000000D+00  0.1000000000D+01
 Atom F9       Shell    93 S   7     bf  277 -   277          0.164818592471          2.340884472364          2.371991010593
      0.1950000000D+05  0.5190024441D-03
      0.2923000000D+04  0.4015781354D-02
      0.6645000000D+03  0.2067746110D-01
      0.1875000000D+03  0.8086901703D-01
      0.6062000000D+02  0.2358075463D+00
      0.2142000000D+02  0.4425823060D+00
      0.7950000000D+01  0.3569628672D+00
 Atom F9       Shell    94 S   6     bf  278 -   278          0.164818592471          2.340884472364          2.371991010593
      0.6645000000D+03 -0.3735980873D-04
      0.1875000000D+03 -0.1277472297D-02
      0.6062000000D+02 -0.1082201399D-01
      0.2142000000D+02 -0.7004820894D-01
      0.7950000000D+01 -0.1697466078D+00
      0.8815000000D+00  0.1073026608D+01
 Atom F9       Shell    95 S   1     bf  279 -   279          0.164818592471          2.340884472364          2.371991010593
      0.2257000000D+01  0.1000000000D+01
 Atom F9       Shell    96 S   1     bf  280 -   280          0.164818592471          2.340884472364          2.371991010593
      0.3041000000D+00  0.1000000000D+01
 Atom F9       Shell    97 S   1     bf  281 -   281          0.164818592471          2.340884472364          2.371991010593
      0.9158000000D-01  0.1000000000D+01
 Atom F9       Shell    98 P   3     bf  282 -   284          0.164818592471          2.340884472364          2.371991010593
      0.4388000000D+02  0.4190462069D-01
      0.9926000000D+01  0.2626978417D+00
      0.2930000000D+01  0.7977593735D+00
 Atom F9       Shell    99 P   1     bf  285 -   287          0.164818592471          2.340884472364          2.371991010593
      0.9132000000D+00  0.1000000000D+01
 Atom F9       Shell   100 P   1     bf  288 -   290          0.164818592471          2.340884472364          2.371991010593
      0.2672000000D+00  0.1000000000D+01
 Atom F9       Shell   101 P   1     bf  291 -   293          0.164818592471          2.340884472364          2.371991010593
      0.7361000000D-01  0.1000000000D+01
 Atom F9       Shell   102 D   1     bf  294 -   298          0.164818592471          2.340884472364          2.371991010593
      0.3107000000D+01  0.1000000000D+01
 Atom F9       Shell   103 D   1     bf  299 -   303          0.164818592471          2.340884472364          2.371991010593
      0.8550000000D+00  0.1000000000D+01
 Atom F9       Shell   104 D   1     bf  304 -   308          0.164818592471          2.340884472364          2.371991010593
      0.2920000000D+00  0.1000000000D+01
 Atom F9       Shell   105 F   1     bf  309 -   315          0.164818592471          2.340884472364          2.371991010593
      0.1917000000D+01  0.1000000000D+01
 Atom F9       Shell   106 F   1     bf  316 -   322          0.164818592471          2.340884472364          2.371991010593
      0.7240000000D+00  0.1000000000D+01
 Atom F10      Shell   107 S   7     bf  323 -   323          0.300085427096          2.943433423160         -1.716067367894
      0.1950000000D+05  0.5190024441D-03
      0.2923000000D+04  0.4015781354D-02
      0.6645000000D+03  0.2067746110D-01
      0.1875000000D+03  0.8086901703D-01
      0.6062000000D+02  0.2358075463D+00
      0.2142000000D+02  0.4425823060D+00
      0.7950000000D+01  0.3569628672D+00
 Atom F10      Shell   108 S   6     bf  324 -   324          0.300085427096          2.943433423160         -1.716067367894
      0.6645000000D+03 -0.3735980873D-04
      0.1875000000D+03 -0.1277472297D-02
      0.6062000000D+02 -0.1082201399D-01
      0.2142000000D+02 -0.7004820894D-01
      0.7950000000D+01 -0.1697466078D+00
      0.8815000000D+00  0.1073026608D+01
 Atom F10      Shell   109 S   1     bf  325 -   325          0.300085427096          2.943433423160         -1.716067367894
      0.2257000000D+01  0.1000000000D+01
 Atom F10      Shell   110 S   1     bf  326 -   326          0.300085427096          2.943433423160         -1.716067367894
      0.3041000000D+00  0.1000000000D+01
 Atom F10      Shell   111 S   1     bf  327 -   327          0.300085427096          2.943433423160         -1.716067367894
      0.9158000000D-01  0.1000000000D+01
 Atom F10      Shell   112 P   3     bf  328 -   330          0.300085427096          2.943433423160         -1.716067367894
      0.4388000000D+02  0.4190462069D-01
      0.9926000000D+01  0.2626978417D+00
      0.2930000000D+01  0.7977593735D+00
 Atom F10      Shell   113 P   1     bf  331 -   333          0.300085427096          2.943433423160         -1.716067367894
      0.9132000000D+00  0.1000000000D+01
 Atom F10      Shell   114 P   1     bf  334 -   336          0.300085427096          2.943433423160         -1.716067367894
      0.2672000000D+00  0.1000000000D+01
 Atom F10      Shell   115 P   1     bf  337 -   339          0.300085427096          2.943433423160         -1.716067367894
      0.7361000000D-01  0.1000000000D+01
 Atom F10      Shell   116 D   1     bf  340 -   344          0.300085427096          2.943433423160         -1.716067367894
      0.3107000000D+01  0.1000000000D+01
 Atom F10      Shell   117 D   1     bf  345 -   349          0.300085427096          2.943433423160         -1.716067367894
      0.8550000000D+00  0.1000000000D+01
 Atom F10      Shell   118 D   1     bf  350 -   354          0.300085427096          2.943433423160         -1.716067367894
      0.2920000000D+00  0.1000000000D+01
 Atom F10      Shell   119 F   1     bf  355 -   361          0.300085427096          2.943433423160         -1.716067367894
      0.1917000000D+01  0.1000000000D+01
 Atom F10      Shell   120 F   1     bf  362 -   368          0.300085427096          2.943433423160         -1.716067367894
      0.7240000000D+00  0.1000000000D+01
 Atom F11      Shell   121 S   7     bf  369 -   369          2.879155968608         -2.080306062562          1.814246949138
      0.1950000000D+05  0.5190024441D-03
      0.2923000000D+04  0.4015781354D-02
      0.6645000000D+03  0.2067746110D-01
      0.1875000000D+03  0.8086901703D-01
      0.6062000000D+02  0.2358075463D+00
      0.2142000000D+02  0.4425823060D+00
      0.7950000000D+01  0.3569628672D+00
 Atom F11      Shell   122 S   6     bf  370 -   370          2.879155968608         -2.080306062562          1.814246949138
      0.6645000000D+03 -0.3735980873D-04
      0.1875000000D+03 -0.1277472297D-02
      0.6062000000D+02 -0.1082201399D-01
      0.2142000000D+02 -0.7004820894D-01
      0.7950000000D+01 -0.1697466078D+00
      0.8815000000D+00  0.1073026608D+01
 Atom F11      Shell   123 S   1     bf  371 -   371          2.879155968608         -2.080306062562          1.814246949138
      0.2257000000D+01  0.1000000000D+01
 Atom F11      Shell   124 S   1     bf  372 -   372          2.879155968608         -2.080306062562          1.814246949138
      0.3041000000D+00  0.1000000000D+01
 Atom F11      Shell   125 S   1     bf  373 -   373          2.879155968608         -2.080306062562          1.814246949138
      0.9158000000D-01  0.1000000000D+01
 Atom F11      Shell   126 P   3     bf  374 -   376          2.879155968608         -2.080306062562          1.814246949138
      0.4388000000D+02  0.4190462069D-01
      0.9926000000D+01  0.2626978417D+00
      0.2930000000D+01  0.7977593735D+00
 Atom F11      Shell   127 P   1     bf  377 -   379          2.879155968608         -2.080306062562          1.814246949138
      0.9132000000D+00  0.1000000000D+01
 Atom F11      Shell   128 P   1     bf  380 -   382          2.879155968608         -2.080306062562          1.814246949138
      0.2672000000D+00  0.1000000000D+01
 Atom F11      Shell   129 P   1     bf  383 -   385          2.879155968608         -2.080306062562          1.814246949138
      0.7361000000D-01  0.1000000000D+01
 Atom F11      Shell   130 D   1     bf  386 -   390          2.879155968608         -2.080306062562          1.814246949138
      0.3107000000D+01  0.1000000000D+01
 Atom F11      Shell   131 D   1     bf  391 -   395          2.879155968608         -2.080306062562          1.814246949138
      0.8550000000D+00  0.1000000000D+01
 Atom F11      Shell   132 D   1     bf  396 -   400          2.879155968608         -2.080306062562          1.814246949138
      0.2920000000D+00  0.1000000000D+01
 Atom F11      Shell   133 F   1     bf  401 -   407          2.879155968608         -2.080306062562          1.814246949138
      0.1917000000D+01  0.1000000000D+01
 Atom F11      Shell   134 F   1     bf  408 -   414          2.879155968608         -2.080306062562          1.814246949138
      0.7240000000D+00  0.1000000000D+01
 Atom F12      Shell   135 S   7     bf  415 -   415          3.020022198466         -1.479175746883         -2.277237251009
      0.1950000000D+05  0.5190024441D-03
      0.2923000000D+04  0.4015781354D-02
      0.6645000000D+03  0.2067746110D-01
      0.1875000000D+03  0.8086901703D-01
      0.6062000000D+02  0.2358075463D+00
      0.2142000000D+02  0.4425823060D+00
      0.7950000000D+01  0.3569628672D+00
 Atom F12      Shell   136 S   6     bf  416 -   416          3.020022198466         -1.479175746883         -2.277237251009
      0.6645000000D+03 -0.3735980873D-04
      0.1875000000D+03 -0.1277472297D-02
      0.6062000000D+02 -0.1082201399D-01
      0.2142000000D+02 -0.7004820894D-01
      0.7950000000D+01 -0.1697466078D+00
      0.8815000000D+00  0.1073026608D+01
 Atom F12      Shell   137 S   1     bf  417 -   417          3.020022198466         -1.479175746883         -2.277237251009
      0.2257000000D+01  0.1000000000D+01
 Atom F12      Shell   138 S   1     bf  418 -   418          3.020022198466         -1.479175746883         -2.277237251009
      0.3041000000D+00  0.1000000000D+01
 Atom F12      Shell   139 S   1     bf  419 -   419          3.020022198466         -1.479175746883         -2.277237251009
      0.9158000000D-01  0.1000000000D+01
 Atom F12      Shell   140 P   3     bf  420 -   422          3.020022198466         -1.479175746883         -2.277237251009
      0.4388000000D+02  0.4190462069D-01
      0.9926000000D+01  0.2626978417D+00
      0.2930000000D+01  0.7977593735D+00
 Atom F12      Shell   141 P   1     bf  423 -   425          3.020022198466         -1.479175746883         -2.277237251009
      0.9132000000D+00  0.1000000000D+01
 Atom F12      Shell   142 P   1     bf  426 -   428          3.020022198466         -1.479175746883         -2.277237251009
      0.2672000000D+00  0.1000000000D+01
 Atom F12      Shell   143 P   1     bf  429 -   431          3.020022198466         -1.479175746883         -2.277237251009
      0.7361000000D-01  0.1000000000D+01
 Atom F12      Shell   144 D   1     bf  432 -   436          3.020022198466         -1.479175746883         -2.277237251009
      0.3107000000D+01  0.1000000000D+01
 Atom F12      Shell   145 D   1     bf  437 -   441          3.020022198466         -1.479175746883         -2.277237251009
      0.8550000000D+00  0.1000000000D+01
 Atom F12      Shell   146 D   1     bf  442 -   446          3.020022198466         -1.479175746883         -2.277237251009
      0.2920000000D+00  0.1000000000D+01
 Atom F12      Shell   147 F   1     bf  447 -   453          3.020022198466         -1.479175746883         -2.277237251009
      0.1917000000D+01  0.1000000000D+01
 Atom F12      Shell   148 F   1     bf  454 -   460          3.020022198466         -1.479175746883         -2.277237251009
      0.7240000000D+00  0.1000000000D+01
 There are   540 symmetry adapted cartesian basis functions of A   symmetry.
 There are   460 symmetry adapted basis functions of A   symmetry.
   460 basis functions,   684 primitive gaussians,   540 cartesian basis functions
    32 alpha electrons       32 beta electrons
       nuclear repulsion energy       384.1488362044 Hartrees.
 NAtoms=   12 NActive=   12 NUniq=   12 SFac= 1.00D+00 NAtFMM=   60 NAOKFM=F Big=F
 Integral buffers will be    131072 words long.
 Raffenetti 1 integral format.
 Two-electron integral symmetry is turned on.
 Nuclear repulsion after empirical dispersion term =      384.1441939037 Hartrees.
 One-electron integrals computed using PRISM.
 NBasis=   460 RedAO= T EigKep=  4.00D-06  NBF=   460
 NBsUse=   460 1.00D-06 EigRej= -1.00D+00 NBFU=   460
 ExpMin= 2.53D-02 ExpMax= 1.95D+04 ExpMxC= 6.65D+02 IAcc=3 IRadAn=         5 AccDes= 0.00D+00
 Harris functional with IExCor= 4639 and IRadAn=       5 diagonalized for initial guess.
 HarFok:  IExCor= 4639 AccDes= 0.00D+00 IRadAn=         5 IDoV= 1 UseB2=F ITyADJ=14
 ICtDFT=  3500011 ScaDFX=  1.000000  1.000000  1.000000  1.000000
 FoFCou: FMM=F IPFlag=           0 FMFlag=      100000 FMFlg1=           0
         NFxFlg=           0 DoJE=T BraDBF=F KetDBF=T FulRan=T
         wScrn=  0.000000 ICntrl=     500 IOpCl=  0 I1Cent=   200000004 NGrid=           0
         NMat0=    1 NMatS0=      1 NMatT0=    0 NMatD0=    1 NMtDS0=    0 NMtDT0=    0
 Petite list used in FoFCou.
 Requested convergence on RMS density matrix=1.00D-08 within 128 cycles.
 Requested convergence on MAX density matrix=1.00D-06.
 Requested convergence on             energy=1.00D-06.
 No special actions if energy rises.
 SCF Done:  E(RwB97XD) =  -554.165472784     A.U. after   13 cycles
            NFock= 13  Conv=0.27D-08     -V/T= 2.0050
 DoSCS=F DFT=T ScalE2(SS,OS)=  1.000000  1.000000
 ExpMin= 2.53D-02 ExpMax= 1.95D+04 ExpMxC= 6.65D+02 IAcc=3 IRadAn=         5 AccDes= 0.00D+00
 HarFok:  IExCor=  205 AccDes= 0.00D+00 IRadAn=         5 IDoV=-2 UseB2=F ITyADJ=14
 ICtDFT= 12500011 ScaDFX=  1.000000  1.000000  1.000000  1.000000
 Range of M.O.s used for correlation:     9   460
 NBasis=   460 NAE=    32 NBE=    32 NFC=     8 NFV=     0
 NROrb=    452 NOA=    24 NOB=    24 NVA=   428 NVB=   428

 **** Warning!!: The largest alpha MO coefficient is  0.72792120D+02

 Would need an additional         35044200000 words for in-memory AO integral storage.
 Orbital symmetries:
       Occupied  (A) (A) (A) (A) (A) (A) (A) (A) (A) (A) (A) (A)
                 (A) (A) (A) (A) (A) (A) (A) (A) (A) (A) (A) (A)
                 (A) (A) (A) (A) (A) (A) (A) (A)
       Virtual   (A) (A) (A) (A) (A) (A) (A) (A) (A) (A) (A) (A)
                 (A) (A) (A) (A) (A) (A) (A) (A) (A) (A) (A) (A)
                 (A) (A) (A) (A) (A) (A) (A) (A) (A) (A) (A) (A)
                 (A) (A) (A) (A) (A) (A) (A) (A) (A) (A) (A) (A)
                 (A) (A) (A) (A) (A) (A) (A) (A) (A) (A) (A) (A)
                 (A) (A) (A) (A) (A) (A) (A) (A) (A) (A) (A) (A)
                 (A) (A) (A) (A) (A) (A) (A) (A) (A) (A) (A) (A)
                 (A) (A) (A) (A) (A) (A) (A) (A) (A) (A) (A) (A)
                 (A) (A) (A) (A) (A) (A) (A) (A) (A) (A) (A) (A)
                 (A) (A) (A) (A) (A) (A) (A) (A) (A) (A) (A) (A)
                 (A) (A) (A) (A) (A) (A) (A) (A) (A) (A) (A) (A)
                 (A) (A) (A) (A) (A) (A) (A) (A) (A) (A) (A) (A)
                 (A) (A) (A) (A) (A) (A) (A) (A) (A) (A) (A) (A)
                 (A) (A) (A) (A) (A) (A) (A) (A) (A) (A) (A) (A)
                 (A) (A) (A) (A) (A) (A) (A) (A) (A) (A) (A) (A)
                 (A) (A) (A) (A) (A) (A) (A) (A) (A) (A) (A) (A)
                 (A) (A) (A) (A) (A) (A) (A) (A) (A) (A) (A) (A)
                 (A) (A) (A) (A) (A) (A) (A) (A) (A) (A) (A) (A)
                 (A) (A) (A) (A) (A) (A) (A) (A) (A) (A) (A) (A)
                 (A) (A) (A) (A) (A) (A) (A) (A) (A) (A) (A) (A)
                 (A) (A) (A) (A) (A) (A) (A) (A) (A) (A) (A) (A)
                 (A) (A) (A) (A) (A) (A) (A) (A) (A) (A) (A) (A)
                 (A) (A) (A) (A) (A) (A) (A) (A) (A) (A) (A) (A)
                 (A) (A) (A) (A) (A) (A) (A) (A) (A) (A) (A) (A)
                 (A) (A) (A) (A) (A) (A) (A) (A) (A) (A) (A) (A)
                 (A) (A) (A) (A) (A) (A) (A) (A) (A) (A) (A) (A)
                 (A) (A) (A) (A) (A) (A) (A) (A) (A) (A) (A) (A)
                 (A) (A) (A) (A) (A) (A) (A) (A) (A) (A) (A) (A)
                 (A) (A) (A) (A) (A) (A) (A) (A) (A) (A) (A) (A)
                 (A) (A) (A) (A) (A) (A) (A) (A) (A) (A) (A) (A)
                 (A) (A) (A) (A) (A) (A) (A) (A) (A) (A) (A) (A)
                 (A) (A) (A) (A) (A) (A) (A) (A) (A) (A) (A) (A)
                 (A) (A) (A) (A) (A) (A) (A) (A) (A) (A) (A) (A)
                 (A) (A) (A) (A) (A) (A) (A) (A) (A) (A) (A) (A)
                 (A) (A) (A) (A) (A) (A) (A) (A) (A) (A) (A) (A)
                 (A) (A) (A) (A) (A) (A) (A) (A)
   200 initial guesses have been made.
 Convergence on wavefunction:    0.001000000000000
 Iteration     1 Dimension   200 NMult     0 NNew    200
 CISAX will form   200 AO SS matrices at one time.
 New state      2 was old state     12
 New state      3 was old state      4
 New state      4 was old state      7
 New state      5 was old state      2
 New state      6 was old state      3
 New state      7 was old state      5
 New state     10 was old state     39
 New state     11 was old state     10
 New state     12 was old state      6
 New state     13 was old state     11
 New state     14 was old state     15
 New state     15 was old state     16
 New state     16 was old state     38
 New state     17 was old state     23
 New state     18 was old state     14
 New state     19 was old state     27
 New state     20 was old state     25
 New state     22 was old state     20
 New state     23 was old state     13
 New state     24 was old state     29
 New state     25 was old state     43
 New state     27 was old state     17
 New state     28 was old state     18
 New state     29 was old state     68
 New state     30 was old state     32
 New state     31 was old state     19
 New state     32 was old state     22
 New state     33 was old state     37
 New state     34 was old state     30
 New state     35 was old state     33
 New state     36 was old state     78
 New state     37 was old state     31
 New state     38 was old state     42
 New state     39 was old state     28
 New state     40 was old state     36
 New state     41 was old state     34
 New state     42 was old state     46
 New state     43 was old state     35
 New state     44 was old state     41
 New state     45 was old state     50
 New state     46 was old state     40
 New state     47 was old state     45
 New state     48 was old state     44
 New state     50 was old state     57
 Iteration     2 Dimension   300 NMult   200 NNew    100
 New state      7 was old state     13
 New state      8 was old state      7
 New state      9 was old state      8
 New state     10 was old state      9
 New state     11 was old state     10
 New state     12 was old state     28
 New state     13 was old state     11
 New state     14 was old state     12
 New state     15 was old state     14
 New state     16 was old state     15
 New state     17 was old state     16
 New state     18 was old state     17
 New state     19 was old state     18
 New state     20 was old state     19
 New state     21 was old state     20
 New state     22 was old state     21
 New state     24 was old state     22
 New state     26 was old state     24
 New state     27 was old state     26
 New state     28 was old state     31
 New state     29 was old state     27
 New state     30 was old state     29
 New state     31 was old state     30
 New state     41 was old state     42
 New state     42 was old state     41
 Iteration     3 Dimension   400 NMult   300 NNew    100
 Iteration     4 Dimension   500 NMult   400 NNew    100
 Iteration     5 Dimension   514 NMult   500 NNew     14
 Iteration     6 Dimension   518 NMult   514 NNew      4
 ***********************************************************************
 Excited states from <AA,BB:AA,BB> singles matrix:
 ***********************************************************************
 
 Ground to excited state transition densities written to RWF  633
 Ground to excited state transition electric dipole moments (Au):
       state          X           Y           Z        Dip. S.      Osc.
         1         0.5030      0.1241      0.0658      0.2727      0.0443
         2         0.0021     -0.0891      0.0646      0.0121      0.0020
         3         0.1106     -0.3276      0.1407      0.1393      0.0244
         4         0.5089      0.0798     -0.0078      0.2654      0.0473
         5        -0.3958      0.2689     -0.1826      0.2623      0.0483
         6        -0.0135      0.1543     -0.0881      0.0317      0.0060
         7         0.0416     -0.6799      0.2434      0.5232      0.0995
         8        -0.4284      0.2306     -0.0959      0.2459      0.0473
         9        -0.0690      0.2926     -0.0016      0.0904      0.0176
        10        -0.0481      0.0011      0.0388      0.0038      0.0008
        11        -0.0155      0.0812     -0.0260      0.0075      0.0015
        12        -0.8595      1.0160      0.0243      1.7715      0.3626
        13         0.3407     -0.1526      0.0114      0.1395      0.0288
        14         0.1648     -0.2819      0.0051      0.1066      0.0221
        15         0.0600     -0.3719     -0.0424      0.1437      0.0302
        16        -0.0291      0.2376     -0.0024      0.0573      0.0122
        17        -0.0954      0.0335      0.0466      0.0124      0.0027
        18        -0.1474     -0.1726     -0.0128      0.0517      0.0113
        19         0.0839     -0.0351     -0.0273      0.0090      0.0020
        20         0.0324     -0.2258     -0.0738      0.0575      0.0127
        21        -0.1361     -0.3457     -0.0835      0.1450      0.0323
        22        -0.3804     -0.2094      0.0658      0.1928      0.0436
        23        -0.3928     -0.1382      0.1536      0.1970      0.0447
        24         0.1660      0.2004      0.2738      0.1427      0.0325
        25         0.0214     -0.0468     -0.0423      0.0044      0.0010
        26         0.0066     -0.0226      0.0286      0.0014      0.0003
        27         0.0359     -0.2409      0.0449      0.0613      0.0144
        28         0.0584      0.0099     -0.0087      0.0036      0.0008
        29        -0.1785     -0.0275     -0.0220      0.0331      0.0079
        30         0.0606     -0.1611      0.0200      0.0300      0.0072
        31        -0.2118     -0.1986      0.0129      0.0845      0.0203
        32        -0.0264      0.0177      0.0166      0.0013      0.0003
        33        -0.2287     -0.0642      0.0160      0.0567      0.0137
        34         0.0794     -0.2219     -0.4890      0.2947      0.0719
        35        -0.2158      0.2827     -0.1724      0.1562      0.0382
        36        -0.0437      0.0893     -0.0693      0.0147      0.0036
        37        -0.1129     -0.1116      0.0716      0.0303      0.0075
        38         0.1744      0.0435     -0.0973      0.0418      0.0105
        39        -0.1941     -0.0421      0.0240      0.0400      0.0101
        40        -0.0271      0.0296      0.0434      0.0035      0.0009
        41         0.3097      0.1961     -0.1115      0.1468      0.0379
        42         0.0637      0.0744      0.1341      0.0276      0.0072
        43        -0.1172     -0.0722     -0.1511      0.0418      0.0109
        44         0.0143      0.0072     -0.0002      0.0003      0.0001
        45        -0.0611     -0.0452      0.0971      0.0152      0.0040
        46        -0.1216     -0.1134     -0.0407      0.0293      0.0077
        47         0.0011      0.0070     -0.0258      0.0007      0.0002
        48         0.0940      0.1172      0.0940      0.0314      0.0084
        49         0.2132      0.1236      0.0509      0.0633      0.0170
        50         0.1312      0.0896      0.0444      0.0272      0.0073
 Ground to excited state transition velocity dipole moments (Au):
       state          X           Y           Z        Dip. S.      Osc.
         1        -0.1209     -0.0294     -0.0158      0.0157      0.0430
         2        -0.0009      0.0219     -0.0155      0.0007      0.0019
         3        -0.0293      0.0855     -0.0370      0.0095      0.0243
         4        -0.1368     -0.0219      0.0020      0.0192      0.0479
         5         0.1093     -0.0745      0.0503      0.0200      0.0483
         6         0.0038     -0.0437      0.0253      0.0026      0.0060
         7        -0.0121      0.1936     -0.0692      0.0424      0.0991
         8         0.1226     -0.0666      0.0275      0.0202      0.0467
         9         0.0200     -0.0854      0.0005      0.0077      0.0176
        10         0.0144     -0.0003     -0.0115      0.0003      0.0008
        11         0.0046     -0.0242      0.0077      0.0007      0.0015
        12         0.2629     -0.3106     -0.0073      0.1656      0.3597
        13        -0.1054      0.0475     -0.0034      0.0134      0.0288
        14        -0.0516      0.0874     -0.0016      0.0103      0.0221
        15        -0.0201      0.1160      0.0134      0.0140      0.0297
        16         0.0085     -0.0760      0.0004      0.0059      0.0122
        17         0.0307     -0.0111     -0.0123      0.0012      0.0025
        18         0.0500      0.0577      0.0034      0.0058      0.0119
        19        -0.0277      0.0116      0.0090      0.0010      0.0020
        20        -0.0105      0.0747      0.0245      0.0063      0.0126
        21         0.0452      0.1148      0.0279      0.0160      0.0319
        22         0.1303      0.0713     -0.0224      0.0226      0.0444
        23         0.1338      0.0472     -0.0518      0.0228      0.0447
        24        -0.0574     -0.0683     -0.0928      0.0166      0.0324
        25        -0.0058      0.0168      0.0145      0.0005      0.0010
        26        -0.0023      0.0077     -0.0099      0.0002      0.0003
        27        -0.0124      0.0847     -0.0159      0.0076      0.0144
        28        -0.0212     -0.0036      0.0029      0.0005      0.0009
        29         0.0652      0.0107      0.0082      0.0044      0.0083
        30        -0.0210      0.0580     -0.0064      0.0038      0.0072
        31         0.0781      0.0725     -0.0057      0.0114      0.0211
        32         0.0090     -0.0076     -0.0064      0.0002      0.0003
        33         0.0826      0.0239     -0.0056      0.0074      0.0136
        34        -0.0291      0.0813      0.1797      0.0397      0.0724
        35         0.0794     -0.1033      0.0636      0.0210      0.0382
        36         0.0145     -0.0339      0.0251      0.0020      0.0036
        37         0.0449      0.0420     -0.0262      0.0045      0.0080
        38        -0.0639     -0.0156      0.0354      0.0056      0.0099
        39         0.0742      0.0166     -0.0093      0.0059      0.0103
        40         0.0096     -0.0125     -0.0167      0.0005      0.0009
        41        -0.1159     -0.0737      0.0428      0.0207      0.0357
        42        -0.0249     -0.0285     -0.0521      0.0041      0.0071
        43         0.0441      0.0266      0.0583      0.0060      0.0103
        44        -0.0056     -0.0027      0.0002      0.0000      0.0001
        45         0.0239      0.0184     -0.0381      0.0024      0.0040
        46         0.0466      0.0442      0.0150      0.0043      0.0073
        47        -0.0007     -0.0028      0.0104      0.0001      0.0002
        48        -0.0368     -0.0462     -0.0376      0.0049      0.0081
        49        -0.0844     -0.0486     -0.0205      0.0099      0.0164
        50        -0.0513     -0.0349     -0.0178      0.0042      0.0069
 Ground to excited state transition magnetic dipole moments (Au):
       state          X           Y           Z
         1        -0.0523      0.0538     -0.1287
         2        -0.3863      0.5787     -0.0396
         3         0.1455     -0.3730     -0.5741
         4         0.0019     -0.0215     -0.0205
         5        -0.1277      0.2218      1.2686
         6         0.1198     -0.1573      0.4277
         7         0.1702     -0.3750     -1.3734
         8        -0.0667      0.1592      0.4346
         9        -0.0513      0.1422     -0.2779
        10        -0.6173      0.9827     -0.3248
        11        -0.3797      0.6059     -0.2206
        12        -0.0274      0.1734     -0.4490
        13         0.0019     -0.0030     -0.0390
        14         0.0182     -0.0813      0.1120
        15        -0.0120      0.0133      0.0907
        16        -0.0286      0.1077     -0.1043
        17         0.0343     -0.1354     -0.0107
        18        -0.0052      0.0112     -0.0591
        19        -0.0257      0.0737      0.0628
        20        -0.0263      0.0614      0.2349
        21        -0.0234      0.0643      0.1183
        22         0.0859     -0.1726     -0.2056
        23         0.1097     -0.3889      0.1512
        24         0.1621     -0.5537      0.2106
        25        -0.0432      0.0019      0.3734
        26        -0.7269     -0.4608      0.0400
        27         0.0565     -0.0782     -0.5678
        28         0.1133     -0.4473     -1.6126
        29         0.0344     -0.2565     -0.5572
        30         0.0295     -0.0270     -0.2608
        31         0.0236     -0.0363     -0.0799
        32         0.0466     -0.1621     -0.1749
        33        -0.0029      0.0333     -0.1235
        34        -0.2886      0.9476     -0.4269
        35        -0.1415      0.3439      0.6014
        36        -0.0349      0.0740      0.2343
        37         0.0244     -0.0770     -0.1617
        38         0.0389      0.0301     -0.1241
        39         0.0094     -0.0401      0.0184
        40         0.0827     -0.1706      0.1760
        41        -0.1152      0.3270      0.1903
        42         0.0802     -0.2589      0.1486
        43        -0.0767      0.3154     -0.0259
        44        -0.2110     -0.1073      0.0014
        45         0.1369     -0.2189      0.0257
        46        -0.0360     -0.0093     -0.1218
        47        -0.0146      0.0287      0.0013
        48         0.0424     -0.1772      0.1957
        49        -0.0264     -0.1168     -0.0300
        50         0.1510     -0.0157      0.0067
 Ground to excited state transition velocity quadrupole moments (Au):
       state          XX          YY          ZZ          XY          XZ          YZ
         1         0.3207     -0.0871      0.0105     -0.1590      0.0261     -0.0077
         2         0.0866     -0.0630      0.0023     -0.0895      0.0517      0.0056
         3         0.1769     -0.3946     -0.0070     -0.6474      0.2056      0.0230
         4         1.5331      0.0314     -0.0505      0.3988      0.0527      0.0126
         5        -1.0995      0.4322     -0.0244      0.6265     -0.2340     -0.0535
         6        -0.1832      0.1437      0.0529      0.2574     -0.3012     -0.1256
         7         0.9793     -0.6699     -0.0188     -0.9494      0.3194      0.0346
         8        -0.7941      0.1110     -0.1087      0.3036     -0.1193     -0.0105
         9        -0.3076      0.3200     -0.0096      0.2217     -0.0157     -0.0169
        10         0.0008      0.0299     -0.0525      0.0208      0.2961      0.1750
        11        -0.0223      0.0669     -0.0033      0.0413     -0.0879     -0.0610
        12         0.0202     -0.3255     -0.0189     -0.4308     -0.2202     -0.0691
        13         0.2610     -0.0343      0.0074      0.0554      0.0465      0.0275
        14         0.0052      0.0246      0.0078      0.0947      0.1145      0.0140
        15        -0.8669     -0.2133     -0.1230     -0.2653      0.0615      0.0241
        16        -0.0154     -0.0264     -0.0363     -0.1043     -0.0923     -0.0522
        17        -0.3580     -0.0559      0.0356     -0.1463      0.1320      0.0371
        18        -0.6144     -0.0947      0.0093     -0.3212     -0.0170     -0.0186
        19        -0.4249      0.0034     -0.0035     -0.0808     -0.0609      0.0046
        20        -0.6207      0.1384      0.0194      0.1298     -0.0743     -0.0264
        21        -0.3118      0.0934      0.0183      0.1179     -0.0634      0.0130
        22        -0.4919      0.0237     -0.0061     -0.1429      0.1354      0.0533
        23        -1.2567     -0.0995      0.0399     -0.4758      0.2001      0.0624
        24         0.5036      0.1259     -0.0095      0.3654      0.4233      0.1234
        25         0.5251      0.1000      0.0006      0.2416     -0.0360     -0.0051
        26        -0.0568     -0.3628      0.4128      0.1323      0.3910     -0.5215
        27         0.2870     -0.2581     -0.0054     -0.5014      0.1151      0.0343
        28        -0.4047      0.3420      0.0308      0.2022     -0.0969     -0.0919
        29        -0.4039      0.2206     -0.0224      0.1024      0.0006     -0.0553
        30        -0.1275     -0.1411      0.0091     -0.2099      0.1206      0.0259
        31        -0.7205     -0.1782      0.0503     -0.4149     -0.0330     -0.0474
        32        -0.1984     -0.1142      0.0429     -0.1125      0.0021      0.0265
        33        -0.8968     -0.0428      0.0460     -0.3604      0.0383      0.0458
        34         0.2500     -0.2186     -0.0504     -0.3260     -0.9240     -0.2838
        35        -0.6455      0.2559     -0.0199      0.4029     -0.3086     -0.0873
        36        -0.1599      0.0413      0.0085      0.0288     -0.1360     -0.0772
        37        -0.6321     -0.1906      0.0348     -0.3106      0.0971      0.0447
        38        -0.0497      0.0026      0.0122      0.1110     -0.2798     -0.0693
        39        -0.7403     -0.0130      0.0361     -0.2506      0.0076     -0.0538
        40         0.1872      0.0052      0.0009     -0.0590      0.1262      0.0486
        41         0.7181      0.0439     -0.0929      0.2370     -0.2525     -0.0509
        42         0.4387     -0.0784      0.0022      0.2934      0.3045      0.0198
        43         0.0683     -0.2921      0.0192     -0.1566     -0.3883     -0.0285
        44        -0.0157     -0.0760      0.1070      0.0862      0.0708     -0.1209
        45        -0.0063      0.0313     -0.0238      0.0048      0.2341      0.2480
        46         0.0828      0.0589     -0.0145      0.0014     -0.0794     -0.1015
        47        -0.0511      0.0013     -0.0302      0.0151     -0.0069      0.0876
        48         0.0092      0.1422      0.1706     -0.1575      0.2407      0.0755
        49         0.0019      0.1854      0.2410     -0.0741      0.0269     -0.0233
        50        -0.2191     -0.3273     -0.4694      0.1378      0.0712     -0.0039
 <0|del|b> * <b|rxdel|0> + <0|del|b> * <b|delr+rdel|0>
 Rotatory Strengths (R) in cgs (10**-40 erg-esu-cm/Gauss)
       state          XX          YY          ZZ    R(velocity)    E-M Angle
         1         5.3914      9.8222      4.3950      6.5362       68.78
         2        19.1658     -0.5859     20.0657     12.8819       43.13
         3        -5.7829    -10.3213    -24.1413    -13.4151      102.61
         4         3.1403     -3.7341      1.0268      0.1443       87.72
         5        78.5181     15.9676     -9.2110     28.4249       79.52
         6        13.7859      5.3499     26.1441     15.0933       40.46
         7        32.6779     33.3004    -15.3737     16.8682       86.03
         8         2.1509     -7.1851    -11.7011     -5.5785       95.89
         9       -16.3966     -1.9368    -13.9531    -10.7622      118.64
        10         3.8720     -2.8357    -13.9703     -4.3113      104.26
        11       -21.4181     -4.7627    -16.4900    -14.2236      159.60
        12      -133.4057    -29.0404     29.3849    -44.3537      107.12
        13        -2.7445     -3.1781      5.4456     -0.1590       92.64
        14       -19.8150     -1.9194      3.0473     -6.2291      125.51
        15        -8.8819      5.0573     10.5288      2.2347       74.15
        16       -16.8712     -0.7575     -1.0655     -6.2314      136.53
        17         5.3532      0.5721     -0.0532      1.9574       56.71
        18         0.3783     -0.3321      0.3639      0.1367       87.65
        19         1.5062      2.0188      1.0599      1.5283       47.23
        20        20.2929      3.3333     -1.0315      7.5316       56.76
        21        22.5023     -0.4836     -1.6371      6.7938       56.19
        22       -14.7619     20.3944      1.6575      2.4300       85.27
        23       -11.4310     -9.8437     -2.6844     -7.9864      100.19
        24        13.7558     -2.0876      6.9248      6.1977       83.49
        25         9.7883      2.2441     -0.3627      3.8899       48.78
        26        -8.5041      3.8380     -0.0766     -1.5809      102.13
        27         0.6802     -0.0707      2.8721      1.1605       88.02
        28        -2.7625     -5.6338     -2.3804     -3.5922       98.53
        29        -6.4470     -6.7463      3.0937     -3.3665       97.14
        30        -5.4641     -0.8223      5.2766     -0.3366       91.79
        31         2.5204     -3.6895      0.5112     -0.2193       91.98
        32         3.0166      1.0366      1.3622      1.8052       31.88
        33         2.5049      2.1679     -2.2574      0.8052       83.54
        34        16.4023     -1.4194      1.9882      5.6570       87.66
        35        -3.4524     -5.3340     -7.6504     -5.4790       94.78
        36        -0.5120      3.3873      2.6070      1.8274       75.05
        37         4.7997     -0.7627     -0.0636      1.3245       80.04
        38        -4.9871     -6.0041     -2.8305     -4.6072      137.52
        39         1.2702     -5.3892      3.8622     -0.0856       92.29
        40         1.6267     -2.4630      0.8168     -0.0065       90.00
        41       -22.3054     15.7630      1.7929     -1.5832       92.62
        42        -6.2999      4.5680     -2.5396     -1.4238       96.81
        43         7.3191      2.6912     -3.6694      2.1136       82.03
        44         0.4508      1.6561      0.5429      0.8833       90.00
        45        -8.5488      7.5440     -2.1329     -1.0459       97.95
        46         1.1528     -7.3909     -0.7797     -2.3392      117.82
        47         0.0648     -0.1703      0.0068     -0.0329       90.00
        48        15.7450    -15.5252     -1.5078     -0.4293       92.24
        49         8.0056      2.8884      4.0577      4.9839       46.11
        50         0.3969     -4.5646     -8.6592     -4.2756      138.27
 1/2[<0|r|b>*<b|rxdel|0> + (<0|rxdel|b>*<b|r|0>)*]
 Rotatory Strengths (R) in cgs (10**-40 erg-esu-cm/Gauss)
       state          XX          YY          ZZ     R(length)
         1        18.5840     -4.7253      5.9918      6.6168
         2         0.5803     36.4661      1.8112     12.9525
         3       -11.3867    -86.3958     57.1348    -13.5493
         4        -0.6999      1.2138     -0.1133      0.1335
         5       -35.7326    -42.1697    163.7725     28.6234
         6         1.1463     17.1607     26.6552     14.9874
         7        -5.0092   -180.2898    236.4013     17.0341
         8       -20.1974    -25.9606     29.4800     -5.5594
         9        -2.5025    -29.4341     -0.3076    -10.7481
        10       -20.9918     -0.7438      8.9043     -4.2771
        11        -4.1662    -34.8115     -4.0532    -14.3436
        12       -16.6289   -124.5790      7.7194    -44.4962
        13        -0.4554     -0.3205      0.3137     -0.1541
        14        -2.1240    -16.2006     -0.4002     -6.2416
        15         0.5081      3.4902      2.7161      2.2381
        16        -0.5891    -18.0902     -0.1771     -6.2855
        17         2.3171      3.2099      0.3526      1.9598
        18        -0.5391      1.3679     -0.5335      0.0985
        19         1.5240      1.8291      1.2105      1.5212
        20         0.6023      9.7982     12.2673      7.5559
        21        -2.2554     15.7201      6.9851      6.8166
        22        23.1063    -25.5595      9.5654      2.3707
        23        30.4750    -38.0073    -16.4224     -7.9849
        24       -19.0335     78.4580    -40.7743      6.2167
        25         0.6533      0.0632     11.1590      3.9585
        26         3.4004     -7.3518     -0.8104     -1.5873
        27        -1.4353    -13.3151     18.0189      1.0895
        28        -4.6765      3.1415     -9.8720     -3.8023
        29         4.3399     -4.9866     -8.6753     -3.1073
        30        -1.2650     -3.0736      3.6947     -0.2147
        31         3.5312     -5.0965      0.7313     -0.2780
        32         0.8695      2.0299      2.0572      1.6522
        33        -0.4763      1.5118      1.3961      0.8105
        34        16.2147    148.7229   -147.6033      5.7781
        35       -21.5903    -68.7428     73.3214     -5.6705
        36        -1.0786     -4.6745     11.4814      1.9094
        37         1.9450     -6.0772      8.1879      1.3519
        38        -4.8027     -0.9267     -8.5423     -4.7572
        39         1.2943     -1.1932     -0.3117     -0.0702
        40         1.5881      3.5715     -5.4053     -0.0819
        41        25.2305    -45.3595     15.0060     -1.7077
        42        -3.6133     13.6246    -14.0946     -1.3611
        43        -6.3549     16.1102     -2.7636      2.3306
        44         2.1353      0.5476      0.0002      0.8944
        45         5.9145     -6.9980     -1.7619     -0.9484
        46        -3.0934     -0.7452     -3.5084     -2.4490
        47         0.0115     -0.1417      0.0241     -0.0354
        48        -2.8186     14.6954    -13.0107     -0.3779
        49         3.9760     10.2064      1.0794      5.0873
        50       -14.0069      0.9936     -0.2114     -4.4083
  1/2[<0|del|b>*<b|r|0> + (<0|r|b>*<b|del|0>)*] (Au)
       state          X           Y           Z        Dip. S.   Osc.(frdel)
         1        -0.0608     -0.0037     -0.0010      0.0655      0.0436
         2         0.0000     -0.0020     -0.0010      0.0030      0.0020
         3        -0.0032     -0.0280     -0.0052      0.0365      0.0243
         4        -0.0696     -0.0017      0.0000      0.0714      0.0476
         5        -0.0433     -0.0200     -0.0092      0.0725      0.0483
         6        -0.0001     -0.0067     -0.0022      0.0090      0.0060
         7        -0.0005     -0.1316     -0.0169      0.1490      0.0993
         8        -0.0525     -0.0154     -0.0026      0.0705      0.0470
         9        -0.0014     -0.0250      0.0000      0.0264      0.0176
        10        -0.0007      0.0000     -0.0004      0.0011      0.0008
        11        -0.0001     -0.0020     -0.0002      0.0022      0.0015
        12        -0.2260     -0.3156     -0.0002      0.5417      0.3611
        13        -0.0359     -0.0073      0.0000      0.0432      0.0288
        14        -0.0085     -0.0246      0.0000      0.0331      0.0221
        15        -0.0012     -0.0431     -0.0006      0.0449      0.0299
        16        -0.0002     -0.0181      0.0000      0.0183      0.0122
        17        -0.0029     -0.0004     -0.0006      0.0039      0.0026
        18        -0.0074     -0.0100      0.0000      0.0174      0.0116
        19        -0.0023     -0.0004     -0.0002      0.0030      0.0020
        20        -0.0003     -0.0169     -0.0018      0.0190      0.0127
        21        -0.0062     -0.0397     -0.0023      0.0482      0.0321
        22        -0.0496     -0.0149     -0.0015      0.0660      0.0440
        23        -0.0525     -0.0065     -0.0080      0.0670      0.0447
        24        -0.0095     -0.0137     -0.0254      0.0486      0.0324
        25        -0.0001     -0.0008     -0.0006      0.0015      0.0010
        26         0.0000     -0.0002     -0.0003      0.0005      0.0003
        27        -0.0004     -0.0204     -0.0007      0.0216      0.0144
        28        -0.0012      0.0000      0.0000      0.0013      0.0009
        29        -0.0116     -0.0003     -0.0002      0.0121      0.0081
        30        -0.0013     -0.0093     -0.0001      0.0107      0.0072
        31        -0.0165     -0.0144     -0.0001      0.0310      0.0207
        32        -0.0002     -0.0001     -0.0001      0.0005      0.0003
        33        -0.0189     -0.0015     -0.0001      0.0205      0.0137
        34        -0.0023     -0.0181     -0.0878      0.1082      0.0721
        35        -0.0171     -0.0292     -0.0110      0.0573      0.0382
        36        -0.0006     -0.0030     -0.0017      0.0054      0.0036
        37        -0.0051     -0.0047     -0.0019      0.0116      0.0078
        38        -0.0111     -0.0007     -0.0034      0.0153      0.0102
        39        -0.0144     -0.0007     -0.0002      0.0153      0.0102
        40        -0.0003     -0.0004     -0.0007      0.0014      0.0009
        41        -0.0359     -0.0145     -0.0048      0.0551      0.0367
        42        -0.0016     -0.0021     -0.0070      0.0107      0.0071
        43        -0.0052     -0.0019     -0.0088      0.0159      0.0106
        44        -0.0001      0.0000      0.0000      0.0001      0.0001
        45        -0.0015     -0.0008     -0.0037      0.0060      0.0040
        46        -0.0057     -0.0050     -0.0006      0.0113      0.0075
        47         0.0000      0.0000     -0.0003      0.0003      0.0002
        48        -0.0035     -0.0054     -0.0035      0.0124      0.0083
        49        -0.0180     -0.0060     -0.0010      0.0250      0.0167
        50        -0.0067     -0.0031     -0.0008      0.0106      0.0071

 Excitation energies and oscillator strengths:
 
 Excited State   1:      Singlet-A      6.6327 eV  186.93 nm  f=0.0443  <S**2>=0.000
      32 -> 33         0.39165
      32 -> 34         0.16444
      32 -> 36         0.39983
      32 -> 37         0.26156
      32 -> 45        -0.11498
      32 -> 47        -0.13448
 This state for optimization and/or second-order correction.
 Total Energy, E(TD-HF/TD-KS) =  -553.921727023    
 Copying the excited state density for this state as the 1-particle RhoCI density.
 
 Excited State   2:      Singlet-A      6.8051 eV  182.19 nm  f=0.0020  <S**2>=0.000
      32 -> 33        -0.11152
      32 -> 35         0.23005
      32 -> 36         0.12476
      32 -> 37        -0.19896
      32 -> 40         0.39765
      32 -> 49        -0.18887
      32 -> 52         0.34645
 
 Excited State   3:      Singlet-A      7.1381 eV  173.69 nm  f=0.0244  <S**2>=0.000
      31 -> 33        -0.19783
      32 -> 33        -0.25634
      32 -> 35        -0.15068
      32 -> 36         0.45505
      32 -> 37        -0.26434
      32 -> 40        -0.15546
 
 Excited State   4:      Singlet-A      7.2774 eV  170.37 nm  f=0.0473  <S**2>=0.000
      31 -> 33         0.47988
      31 -> 47        -0.12788
      31 -> 50        -0.11695
      32 -> 33         0.20387
      32 -> 37        -0.37233
 
 Excited State   5:      Singlet-A      7.5145 eV  164.99 nm  f=0.0483  <S**2>=0.000
      31 -> 36        -0.25319
      31 -> 37         0.12923
      32 -> 34         0.48967
      32 -> 35        -0.10675
      32 -> 36        -0.13748
      32 -> 39        -0.28733
      32 -> 44        -0.11850
      32 -> 53         0.11311
 
 Excited State   6:      Singlet-A      7.7245 eV  160.51 nm  f=0.0060  <S**2>=0.000
      31 -> 35         0.41194
      31 -> 36        -0.13482
      31 -> 49        -0.19834
      32 -> 35         0.43118
      32 -> 52        -0.20216
 
 Excited State   7:      Singlet-A      7.7655 eV  159.66 nm  f=0.0995  <S**2>=0.000
      31 -> 33        -0.16905
      31 -> 36         0.49468
      31 -> 37        -0.15983
      31 -> 39         0.15253
      32 -> 33         0.16605
      32 -> 34         0.19704
      32 -> 36        -0.15628
      32 -> 37        -0.10668
      32 -> 41         0.16155
 
 Excited State   8:      Singlet-A      7.8469 eV  158.00 nm  f=0.0473  <S**2>=0.000
      31 -> 33        -0.30108
      31 -> 34        -0.10979
      31 -> 36        -0.18255
      31 -> 37         0.17882
      31 -> 39        -0.13826
      32 -> 33         0.30489
      32 -> 34        -0.14632
      32 -> 36        -0.10096
      32 -> 37        -0.25283
      32 -> 39         0.14389
      32 -> 41         0.22913
 
 Excited State   9:      Singlet-A      7.9309 eV  156.33 nm  f=0.0176  <S**2>=0.000
      31 -> 34         0.49679
      31 -> 35        -0.10018
      31 -> 44        -0.16762
      32 -> 39         0.36568
 
 Excited State  10:      Singlet-A      8.1136 eV  152.81 nm  f=0.0008  <S**2>=0.000
      30 -> 36         0.50853
      30 -> 37        -0.22415
      30 -> 39         0.21604
      30 -> 48        -0.10282
      31 -> 34        -0.10542
      31 -> 35        -0.16106
      32 -> 35         0.19940
      32 -> 52        -0.12734
 
 Excited State  11:      Singlet-A      8.1718 eV  151.72 nm  f=0.0015  <S**2>=0.000
      30 -> 36         0.26993
      30 -> 37        -0.11920
      30 -> 39         0.11425
      31 -> 34         0.11869
      31 -> 35         0.41593
      31 -> 49        -0.10966
      32 -> 35        -0.27844
      32 -> 38         0.14138
      32 -> 52         0.22361
 
 Excited State  12:      Singlet-A      8.3548 eV  148.40 nm  f=0.3626  <S**2>=0.000
      31 -> 34        -0.14540
      32 -> 41         0.31183
      32 -> 43         0.55405
 
 Excited State  13:      Singlet-A      8.4285 eV  147.10 nm  f=0.0288  <S**2>=0.000
      31 -> 34        -0.30766
      31 -> 44         0.10726
      32 -> 33        -0.13426
      32 -> 34         0.28047
      32 -> 35        -0.10829
      32 -> 36        -0.13617
      32 -> 38        -0.14435
      32 -> 39         0.38707
      32 -> 48         0.13995
 
 Excited State  14:      Singlet-A      8.4698 eV  146.38 nm  f=0.0221  <S**2>=0.000
      31 -> 38         0.11455
      32 -> 38         0.59957
      32 -> 39         0.12958
      32 -> 43        -0.14957
      32 -> 45         0.18115
 
 Excited State  15:      Singlet-A      8.5835 eV  144.44 nm  f=0.0302  <S**2>=0.000
      31 -> 36         0.14893
      31 -> 37         0.34666
      31 -> 41         0.28758
      31 -> 42         0.18810
      31 -> 45        -0.12449
      32 -> 37         0.14873
      32 -> 41         0.25784
      32 -> 42         0.15240
      32 -> 43        -0.24120
 
 Excited State  16:      Singlet-A      8.7208 eV  142.17 nm  f=0.0122  <S**2>=0.000
      31 -> 42         0.10527
      31 -> 46         0.11976
      32 -> 37        -0.10070
      32 -> 40        -0.16600
      32 -> 41        -0.20469
      32 -> 42         0.53801
      32 -> 43         0.16147
      32 -> 45        -0.10638
 
 Excited State  17:      Singlet-A      8.7922 eV  141.02 nm  f=0.0027  <S**2>=0.000
      31 -> 35         0.12894
      32 -> 35        -0.15426
      32 -> 40         0.46888
      32 -> 42         0.16501
      32 -> 44         0.10381
      32 -> 49         0.18716
      32 -> 52        -0.29380
 
 Excited State  18:      Singlet-A      8.9029 eV  139.26 nm  f=0.0113  <S**2>=0.000
      31 -> 37         0.18273
      31 -> 41         0.21314
      32 -> 33         0.21941
      32 -> 40        -0.13248
      32 -> 41        -0.25737
      32 -> 45         0.17442
      32 -> 47         0.36094
      32 -> 50        -0.16395
 
 Excited State  19:      Singlet-A      8.9508 eV  138.52 nm  f=0.0020  <S**2>=0.000
      31 -> 38         0.53703
      31 -> 41         0.18255
      31 -> 42        -0.11592
      31 -> 43         0.14256
      31 -> 54        -0.12686
      32 -> 42        -0.10965
      32 -> 45        -0.24750
 
 Excited State  20:      Singlet-A      9.0435 eV  137.10 nm  f=0.0127  <S**2>=0.000
      31 -> 38        -0.28326
      31 -> 41         0.24224
      31 -> 42        -0.23987
      31 -> 43         0.43968
      32 -> 46        -0.17566
 
 Excited State  21:      Singlet-A      9.0827 eV  136.51 nm  f=0.0323  <S**2>=0.000
      31 -> 33        -0.12347
      31 -> 36        -0.11400
      31 -> 37        -0.24405
      31 -> 40        -0.10761
      31 -> 42         0.33106
      31 -> 43         0.38974
      31 -> 46         0.11003
      31 -> 50        -0.11570
      32 -> 46         0.20941
 
 Excited State  22:      Singlet-A      9.2219 eV  134.45 nm  f=0.0436  <S**2>=0.000
      31 -> 37        -0.20166
      31 -> 38         0.16917
      31 -> 39        -0.11286
      31 -> 40         0.20423
      31 -> 42        -0.16300
      31 -> 47         0.10130
      32 -> 34         0.10409
      32 -> 38        -0.11944
      32 -> 41         0.13920
      32 -> 42         0.22018
      32 -> 44         0.23852
      32 -> 45         0.23640
      32 -> 53        -0.16924
 
 Excited State  23:      Singlet-A      9.2615 eV  133.87 nm  f=0.0447  <S**2>=0.000
      31 -> 37        -0.22665
      31 -> 40         0.31820
      31 -> 41         0.14699
      31 -> 42         0.12822
[...]
      32 -> 44        -0.12772
      32 -> 50        -0.38472
      32 -> 57         0.11543
 
 Excited State  38:      Singlet-A     10.2411 eV  121.07 nm  f=0.0105  <S**2>=0.000
      31 -> 35        -0.12239
      31 -> 44        -0.14810
      31 -> 46         0.12450
      31 -> 48        -0.15720
      31 -> 49        -0.29120
      32 -> 48        -0.15922
      32 -> 49         0.22660
      32 -> 51         0.33936
      32 -> 54        -0.10962
      32 -> 56         0.19827
      32 -> 58         0.10155
 
 Excited State  39:      Singlet-A     10.3387 eV  119.92 nm  f=0.0101  <S**2>=0.000
      31 -> 44        -0.24229
      31 -> 45         0.14767
      31 -> 47         0.21610
      31 -> 48         0.18119
      31 -> 51        -0.17536
      32 -> 44         0.26776
      32 -> 46        -0.14731
      32 -> 47        -0.11316
      32 -> 48         0.11641
      32 -> 50        -0.25455
      32 -> 53         0.16206
 
 Excited State  40:      Singlet-A     10.4322 eV  118.85 nm  f=0.0009  <S**2>=0.000
      31 -> 44         0.13394
      31 -> 46        -0.16202
      31 -> 48         0.18990
      31 -> 49        -0.24768
      31 -> 51        -0.20955
      31 -> 52        -0.17741
      32 -> 49         0.28105
      32 -> 51        -0.25261
      32 -> 52         0.10411
      32 -> 53        -0.14281
 
 Excited State  41:      Singlet-A     10.5267 eV  117.78 nm  f=0.0379  <S**2>=0.000
      31 -> 37        -0.15328
      31 -> 41         0.10029
      31 -> 47        -0.16218
      31 -> 48         0.23808
      31 -> 50         0.43809
      31 -> 52         0.17850
      31 -> 56         0.17633
      32 -> 56         0.14064
 
 Excited State  42:      Singlet-A     10.6351 eV  116.58 nm  f=0.0072  <S**2>=0.000
      31 -> 41         0.18188
      31 -> 45         0.50783
      31 -> 46         0.12173
      31 -> 47        -0.27279
      31 -> 52        -0.14336
 
 Excited State  43:      Singlet-A     10.6572 eV  116.34 nm  f=0.0109  <S**2>=0.000
      31 -> 42        -0.18168
      31 -> 45         0.10161
      31 -> 46         0.35174
      31 -> 48         0.29489
      31 -> 49        -0.15930
      31 -> 50        -0.23054
      31 -> 52         0.18204
      31 -> 56         0.13396
      32 -> 57        -0.10317
 
 Excited State  44:      Singlet-A     10.6878 eV  116.01 nm  f=0.0001  <S**2>=0.000
      30 -> 36         0.16445
      30 -> 37         0.44026
      30 -> 41         0.39339
      30 -> 42         0.20412
      30 -> 45        -0.15128
 
 Excited State  45:      Singlet-A     10.6927 eV  115.95 nm  f=0.0040  <S**2>=0.000
      31 -> 45        -0.20796
      31 -> 46         0.39326
      31 -> 48        -0.18280
      31 -> 50         0.14291
      31 -> 56        -0.12513
      31 -> 58         0.12574
      32 -> 49         0.11199
      32 -> 51        -0.22581
      32 -> 56        -0.17721
 
 Excited State  46:      Singlet-A     10.7453 eV  115.38 nm  f=0.0077  <S**2>=0.000
      31 -> 40        -0.14039
      31 -> 46        -0.16588
      31 -> 48        -0.21961
      31 -> 49        -0.15744
      31 -> 51         0.22093
      31 -> 52         0.28255
      32 -> 47        -0.11474
      32 -> 51        -0.21279
      32 -> 52         0.17637
      32 -> 54         0.13069
      32 -> 55        -0.11037
      32 -> 56        -0.11978
      32 -> 57        -0.13152
 
 Excited State  47:      Singlet-A     10.8890 eV  113.86 nm  f=0.0002  <S**2>=0.000
      31 -> 38         0.11183
      31 -> 54         0.31827
      32 -> 51         0.14541
      32 -> 54         0.50020
      32 -> 58         0.11717
 
 Excited State  48:      Singlet-A     10.9122 eV  113.62 nm  f=0.0084  <S**2>=0.000
      30 -> 38        -0.17971
      31 -> 40        -0.10092
      31 -> 44        -0.12903
      31 -> 46        -0.10769
      31 -> 52         0.11107
      31 -> 53        -0.27905
      31 -> 55         0.19816
      32 -> 53        -0.18879
      32 -> 55         0.35960
      32 -> 57         0.23335
 
 Excited State  49:      Singlet-A     10.9588 eV  113.14 nm  f=0.0170  <S**2>=0.000
      30 -> 38        -0.23762
      31 -> 48        -0.10031
      31 -> 50        -0.10914
      31 -> 55        -0.16440
      32 -> 47         0.20668
      32 -> 51        -0.13044
      32 -> 55        -0.25243
      32 -> 56         0.19569
      32 -> 57         0.34497
 
 Excited State  50:      Singlet-A     10.9811 eV  112.91 nm  f=0.0073  <S**2>=0.000
      30 -> 38         0.58687
      30 -> 54        -0.12481
      32 -> 47         0.10783
      32 -> 57         0.23612
 SavETr:  write IOETrn=   770 NScale= 10 NData=  16 NLR=1 NState=   50 LETran=     910.

 **********************************************************************

            Population analysis using the SCF density.

 **********************************************************************

 Orbital symmetries:
       Occupied  (A) (A) (A) (A) (A) (A) (A) (A) (A) (A) (A) (A)
                 (A) (A) (A) (A) (A) (A) (A) (A) (A) (A) (A) (A)
                 (A) (A) (A) (A) (A) (A) (A) (A)
       Virtual   (A) (A) (A) (A) (A) (A) (A) (A) (A) (A) (A) (A)
                 (A) (A) (A) (A) (A) (A) (A) (A) (A) (A) (A) (A)
                 (A) (A) (A) (A) (A) (A) (A) (A) (A) (A) (A) (A)
                 (A) (A) (A) (A) (A) (A) (A) (A) (A) (A) (A) (A)
                 (A) (A) (A) (A) (A) (A) (A) (A) (A) (A) (A) (A)
                 (A) (A) (A) (A) (A) (A) (A) (A) (A) (A) (A) (A)
                 (A) (A) (A) (A) (A) (A) (A) (A) (A) (A) (A) (A)
                 (A) (A) (A) (A) (A) (A) (A) (A) (A) (A) (A) (A)
                 (A) (A) (A) (A) (A) (A) (A) (A) (A) (A) (A) (A)
                 (A) (A) (A) (A) (A) (A) (A) (A) (A) (A) (A) (A)
                 (A) (A) (A) (A) (A) (A) (A) (A) (A) (A) (A) (A)
                 (A) (A) (A) (A) (A) (A) (A) (A) (A) (A) (A) (A)
                 (A) (A) (A) (A) (A) (A) (A) (A) (A) (A) (A) (A)
                 (A) (A) (A) (A) (A) (A) (A) (A) (A) (A) (A) (A)
                 (A) (A) (A) (A) (A) (A) (A) (A) (A) (A) (A) (A)
                 (A) (A) (A) (A) (A) (A) (A) (A) (A) (A) (A) (A)
                 (A) (A) (A) (A) (A) (A) (A) (A) (A) (A) (A) (A)
                 (A) (A) (A) (A) (A) (A) (A) (A) (A) (A) (A) (A)
                 (A) (A) (A) (A) (A) (A) (A) (A) (A) (A) (A) (A)
                 (A) (A) (A) (A) (A) (A) (A) (A) (A) (A) (A) (A)
                 (A) (A) (A) (A) (A) (A) (A) (A) (A) (A) (A) (A)
                 (A) (A) (A) (A) (A) (A) (A) (A) (A) (A) (A) (A)
                 (A) (A) (A) (A) (A) (A) (A) (A) (A) (A) (A) (A)
                 (A) (A) (A) (A) (A) (A) (A) (A) (A) (A) (A) (A)
                 (A) (A) (A) (A) (A) (A) (A) (A) (A) (A) (A) (A)
                 (A) (A) (A) (A) (A) (A) (A) (A) (A) (A) (A) (A)
                 (A) (A) (A) (A) (A) (A) (A) (A) (A) (A) (A) (A)
                 (A) (A) (A) (A) (A) (A) (A) (A) (A) (A) (A) (A)
                 (A) (A) (A) (A) (A) (A) (A) (A) (A) (A) (A) (A)
                 (A) (A) (A) (A) (A) (A) (A) (A) (A) (A) (A) (A)
                 (A) (A) (A) (A) (A) (A) (A) (A) (A) (A) (A) (A)
                 (A) (A) (A) (A) (A) (A) (A) (A) (A) (A) (A) (A)
                 (A) (A) (A) (A) (A) (A) (A) (A) (A) (A) (A) (A)
                 (A) (A) (A) (A) (A) (A) (A) (A) (A) (A) (A) (A)
                 (A) (A) (A) (A) (A) (A) (A) (A) (A) (A) (A) (A)
                 (A) (A) (A) (A) (A) (A) (A) (A)
 The electronic state is 1-A.
 Alpha  occ. eigenvalues --  -24.87271 -24.87257 -24.87218 -24.87202 -10.47310
 Alpha  occ. eigenvalues --  -10.47156 -10.29031 -10.28918  -1.42557  -1.41106
 Alpha  occ. eigenvalues --   -1.36671  -1.35542  -0.91267  -0.86967  -0.76781
 Alpha  occ. eigenvalues --   -0.72322  -0.71462  -0.67942  -0.66774  -0.66117
 Alpha  occ. eigenvalues --   -0.61646  -0.58841  -0.56812  -0.56344  -0.55774
 Alpha  occ. eigenvalues --   -0.55368  -0.54585  -0.53333  -0.51303  -0.44312
 Alpha  occ. eigenvalues --   -0.36918  -0.34038
 Alpha virt. eigenvalues --    0.03619   0.04377   0.04576   0.05636   0.06145
 Alpha virt. eigenvalues --    0.06355   0.07466   0.08980   0.09721   0.10082
 Alpha virt. eigenvalues --    0.10618   0.11809   0.11974   0.12439   0.12707
 Alpha virt. eigenvalues --    0.13069   0.13628   0.14775   0.15438   0.15687
 Alpha virt. eigenvalues --    0.16571   0.17183   0.18337   0.19889   0.20696
 Alpha virt. eigenvalues --    0.21657   0.23624   0.24151   0.24357   0.25068
 Alpha virt. eigenvalues --    0.25489   0.25943   0.26636   0.27653   0.28624
 Alpha virt. eigenvalues --    0.28770   0.29475   0.29968   0.30596   0.31357
 Alpha virt. eigenvalues --    0.31669   0.32338   0.33217   0.33628   0.34838
 Alpha virt. eigenvalues --    0.35696   0.36292   0.36831   0.37245   0.37296
 Alpha virt. eigenvalues --    0.37991   0.38520   0.39213   0.39908   0.40615
 Alpha virt. eigenvalues --    0.41375   0.41663   0.42129   0.42378   0.44383
 Alpha virt. eigenvalues --    0.45454   0.46054   0.47360   0.47814   0.48763
 Alpha virt. eigenvalues --    0.50420   0.50453   0.50823   0.51530   0.51743
 Alpha virt. eigenvalues --    0.53834   0.54462   0.55140   0.56519   0.57010
 Alpha virt. eigenvalues --    0.58390   0.58584   0.59399   0.62365   0.62800
 Alpha virt. eigenvalues --    0.66027   0.66219   0.67359   0.68102   0.69724
 Alpha virt. eigenvalues --    0.70443   0.71887   0.73797   0.74578   0.76179
 Alpha virt. eigenvalues --    0.76984   0.78097   0.78353   0.79436   0.79945
 Alpha virt. eigenvalues --    0.82189   0.83125   0.84231   0.85332   0.85715
 Alpha virt. eigenvalues --    0.87470   0.87704   0.89169   0.89777   0.90737
 Alpha virt. eigenvalues --    0.91426   0.92244   0.93428   0.94615   0.95178
 Alpha virt. eigenvalues --    0.95410   0.96505   0.97428   0.98011   0.99318
 Alpha virt. eigenvalues --    1.00432   1.01166   1.01626   1.01875   1.03194
 Alpha virt. eigenvalues --    1.04617   1.05255   1.05703   1.07134   1.07751
 Alpha virt. eigenvalues --    1.07995   1.08804   1.09983   1.10565   1.11537
 Alpha virt. eigenvalues --    1.12824   1.13239   1.14395   1.15653   1.16299
 Alpha virt. eigenvalues --    1.17105   1.17802   1.20204   1.20912   1.21806
 Alpha virt. eigenvalues --    1.22672   1.23482   1.24432   1.24971   1.26259
 Alpha virt. eigenvalues --    1.27266   1.28379   1.29749   1.30867   1.31678
 Alpha virt. eigenvalues --    1.32956   1.34043   1.35036   1.35839   1.39729
 Alpha virt. eigenvalues --    1.40243   1.41435   1.42038   1.46045   1.47587
 Alpha virt. eigenvalues --    1.49119   1.50215   1.52170   1.53065   1.53607
 Alpha virt. eigenvalues --    1.55191   1.56444   1.56923   1.57932   1.58548
 Alpha virt. eigenvalues --    1.60323   1.61458   1.62368   1.62812   1.63622
 Alpha virt. eigenvalues --    1.65141   1.65833   1.67034   1.68248   1.69580
 Alpha virt. eigenvalues --    1.70418   1.72898   1.74134   1.74451   1.75985
 Alpha virt. eigenvalues --    1.77634   1.78556   1.80283   1.81211   1.84459
 Alpha virt. eigenvalues --    1.86021   1.86419   1.88892   1.89908   1.95354
 Alpha virt. eigenvalues --    1.96717   1.98147   1.98824   2.01712   2.03568
 Alpha virt. eigenvalues --    2.05241   2.06530   2.10947   2.14807   2.17400
 Alpha virt. eigenvalues --    2.23934   2.24184   2.28229   2.29852   2.32927
 Alpha virt. eigenvalues --    2.38174   2.45528   2.46798   2.48807   2.50231
 Alpha virt. eigenvalues --    2.55194   2.56404   2.61750   2.63413   2.64304
 Alpha virt. eigenvalues --    2.64920   2.66760   2.68625   2.69486   2.72336
 Alpha virt. eigenvalues --    2.72800   2.74273   2.75184   2.76487   2.80084
 Alpha virt. eigenvalues --    2.80742   2.83487   2.85714   2.86250   2.87216
 Alpha virt. eigenvalues --    2.90422   2.92631   2.94199   2.94735   2.94970
 Alpha virt. eigenvalues --    2.96567   2.96837   2.98470   3.00204   3.00757
 Alpha virt. eigenvalues --    3.02628   3.04204   3.04964   3.07299   3.10072
 Alpha virt. eigenvalues --    3.11733   3.11865   3.14284   3.17167   3.18589
 Alpha virt. eigenvalues --    3.19340   3.19739   3.20336   3.21822   3.23201
 Alpha virt. eigenvalues --    3.24365   3.25528   3.26378   3.26863   3.27940
 Alpha virt. eigenvalues --    3.28395   3.29180   3.30003   3.33883   3.35223
 Alpha virt. eigenvalues --    3.36122   3.37897   3.40197   3.41306   3.46678
 Alpha virt. eigenvalues --    3.48378   3.49716   3.53038   3.53589   3.53694
 Alpha virt. eigenvalues --    3.55626   3.56758   3.56871   3.58232   3.58686
 Alpha virt. eigenvalues --    3.60910   3.62446   3.64498   3.66646   3.69129
 Alpha virt. eigenvalues --    3.70721   3.74722   3.76379   3.77123   3.77740
 Alpha virt. eigenvalues --    3.79739   3.81099   3.81303   3.81920   3.83719
 Alpha virt. eigenvalues --    3.87118   3.88154   3.89819   3.95684   3.97913
 Alpha virt. eigenvalues --    3.98590   4.00089   4.01684   4.02899   4.11275
 Alpha virt. eigenvalues --    4.12892   4.16592   4.17029   4.25136   4.29822
 Alpha virt. eigenvalues --    4.30613   4.31274   4.32696   4.33820   4.36318
 Alpha virt. eigenvalues --    4.38031   4.38896   4.45328   4.47235   4.49622
 Alpha virt. eigenvalues --    4.53963   4.56700   4.60098   4.60994   4.62233
 Alpha virt. eigenvalues --    4.67654   4.70739   4.72426   4.72706   4.74652
 Alpha virt. eigenvalues --    4.81697   4.82841   4.87938   4.92098   4.94138
 Alpha virt. eigenvalues --    5.00141   5.00266   5.01711   5.03344   5.05186
 Alpha virt. eigenvalues --    5.07956   5.10428   5.13800   5.21622   5.25752
 Alpha virt. eigenvalues --    5.27288   5.29034   5.32003   5.33025   5.34807
 Alpha virt. eigenvalues --    5.36083   5.38788   5.39569   5.43301   5.73612
 Alpha virt. eigenvalues --    5.74903   5.80732   6.17009   6.19639   6.30978
 Alpha virt. eigenvalues --    6.31479   6.41585   6.49954   6.66219   6.70045
 Alpha virt. eigenvalues --    6.97660   7.12940   8.37888   8.38530   8.44079
 Alpha virt. eigenvalues --    8.45101   8.45350   8.47403   8.48852   8.51613
 Alpha virt. eigenvalues --    8.56437   8.61924   8.65018   8.71281   8.75359
 Alpha virt. eigenvalues --    8.76880   8.79192   8.79513   8.80779   8.81137
 Alpha virt. eigenvalues --    8.81811   8.82981   8.84939   8.85278   8.85793
 Alpha virt. eigenvalues --    8.86602   8.88101   8.89580   8.92805   8.93964
 Alpha virt. eigenvalues --    8.94707   8.96820   8.98471   8.99026   9.00896
 Alpha virt. eigenvalues --    9.06320   9.07823   9.09369   9.13850   9.14690
 Alpha virt. eigenvalues --    9.15520   9.24210   9.26254   9.31219   9.33910
 Alpha virt. eigenvalues --    9.38175   9.39454   9.51322   9.60975   9.67672
 Alpha virt. eigenvalues --   12.28928  13.89011  14.76105  16.54820  16.65032
 Alpha virt. eigenvalues --   16.82061  17.24763  17.37604
          Condensed to atoms (all electrons):
               1          2          3          4          5          6
     1  C    5.892042   0.396612   0.326830   0.235084  -0.083267  -0.024064
     2  H    0.396612   0.418088  -0.071606  -0.073219  -0.036717   0.029743
     3  H    0.326830  -0.071606   0.428791  -0.046645   0.028449  -0.036961
     4  C    0.235084  -0.073219  -0.046645   5.933528   0.357726   0.309829
     5  H   -0.083267  -0.036717   0.028449   0.357726   0.426659  -0.067430
     6  H   -0.024064   0.029743  -0.036961   0.309829  -0.067430   0.419866
     7  C    0.005282   0.003838   0.001322   0.007196  -0.015696   0.007794
     8  C   -0.015709  -0.005282   0.002802  -0.003180   0.014567  -0.013058
     9  F    0.008626   0.001811  -0.006206  -0.002080  -0.000438   0.002517
    10  F    0.006744   0.003774  -0.007453   0.000954  -0.001486   0.001940
    11  F    0.000249   0.000633  -0.000505   0.004614  -0.007217   0.006301
    12  F    0.001803   0.000680  -0.000120   0.004422  -0.005131   0.002095
               7          8          9         10         11         12
     1  C    0.005282  -0.015709   0.008626   0.006744   0.000249   0.001803
     2  H    0.003838  -0.005282   0.001811   0.003774   0.000633   0.000680
     3  H    0.001322   0.002802  -0.006206  -0.007453  -0.000505  -0.000120
     4  C    0.007196  -0.003180  -0.002080   0.000954   0.004614   0.004422
     5  H   -0.015696   0.014567  -0.000438  -0.001486  -0.007217  -0.005131
     6  H    0.007794  -0.013058   0.002517   0.001940   0.006301   0.002095
     7  C    5.283088   0.044416   0.014336   0.037499  -0.029316  -0.028432
     8  C    0.044416   5.258325  -0.019275  -0.028750   0.059786   0.053941
     9  F    0.014336  -0.019275   9.478126  -0.150589  -0.007972   0.018894
    10  F    0.037499  -0.028750  -0.150589   9.453320   0.018725  -0.007432
    11  F   -0.029316   0.059786  -0.007972   0.018725   9.430840  -0.150449
    12  F   -0.028432   0.053941   0.018894  -0.007432  -0.150449   9.425033
 Mulliken charges:
               1
     1  C   -0.750233
     2  H    0.331646
     3  H    0.381302
     4  C   -0.728229
     5  H    0.389982
     6  H    0.361427
     7  C    0.668673
     8  C    0.651417
     9  F   -0.337749
    10  F   -0.327244
    11  F   -0.325689
    12  F   -0.315304
 Sum of Mulliken charges =   0.00000
 Mulliken charges with hydrogens summed into heavy atoms:
               1
     1  C   -0.037284
     4  C    0.023180
     7  C    0.668673
     8  C    0.651417
     9  F   -0.337749
    10  F   -0.327244
    11  F   -0.325689
    12  F   -0.315304
 Electronic spatial extent (au):  <R**2>=           1093.3634
 Charge=              0.0000 electrons
 Dipole moment (field-independent basis, Debye):
    X=             -0.1829    Y=              0.0274    Z=             -0.0156  Tot=              0.1856
 Quadrupole moment (field-independent basis, Debye-Ang):
   XX=            -44.4353   YY=            -44.3511   ZZ=            -44.4433
   XY=             -0.2166   XZ=              0.5264   YZ=              0.2935
 Traceless Quadrupole moment (field-independent basis, Debye-Ang):
   XX=             -0.0254   YY=              0.0588   ZZ=             -0.0334
   XY=             -0.2166   XZ=              0.5264   YZ=              0.2935
 Octapole moment (field-independent basis, Debye-Ang**2):
  XXX=             33.6415  YYY=              5.3320  ZZZ=              0.3240  XYY=              8.8586
  XXY=             12.5335  XXZ=             -0.6698  XZZ=              3.6534  YZZ=              1.0520
  YYZ=              0.0787  XYZ=             -0.1796
 Hexadecapole moment (field-independent basis, Debye-Ang**3):
 XXXX=           -808.8524 YYYY=           -303.2973 ZZZZ=           -190.1588 XXXY=            -54.5501
 XXXZ=              1.3416 YYYX=            -22.3333 YYYZ=              3.0990 ZZZX=             -1.4404
 ZZZY=             -1.7347 XXYY=           -186.8866 XXZZ=           -154.0453 YYZZ=            -83.3198
 XXYZ=              1.6618 YYXZ=             -1.5177 ZZXY=             -5.4830
 N-N= 3.841441939037D+02 E-N=-2.079394735835D+03  KE= 5.513932472902D+02
 1\1\GINC-TC-NODE162\SP\RwB97XD TD-FC\Aug-CC-pVTZ\C4H4F4\MAXB2\17-Nov-2
 016\0\\# td=(singlet,nstates=50) wb97xd/aug-cc-pvtz geom=check gfp\\Ti
 tle\\0,1\C,0,-0.0178599184,0.143776377,0.148352022\H,0,-0.246259321,-0
 .0199554931,1.1934692332\H,0,1.0262199192,0.1122337499,-0.1350618842\C
 ,0,-0.9690261652,0.3775602333,-0.7396387506\H,0,-2.0134599456,0.410084
 4839,-0.456662897\H,0,-0.7404436478,0.5435916749,-1.7846968859\C,0,-0.
 2554561252,3.6317321822,-0.2719326589\C,0,-1.4751570078,3.8428171424,-
 0.7225852072\F,0,0.7799251679,3.4450204917,-1.0538733541\F,0,0.0439954
 771,3.5758435956,1.00233279\F,0,-1.7769538652,3.8839669592,-1.99920338
 79\F,0,-2.5153475388,4.017202813,0.0578614035\\Version=ES64L-G09RevD.0
 1\State=1-A\HF=-554.1654728\RMSD=2.700e-09\PG=C01 [X(C4H4F4)]\\@


 DO YOU KNOW THAT THE LETTERS IN "EPISCOPAL", WHEN
 REARRANGED, SPELL "PEPSI COLA"?
 Job cpu time:       0 days 14 hours  5 minutes 50.7 seconds.
 File lengths (MBytes):  RWF=   1305 Int=      0 D2E=      0 Chk=    279 Scr=      1
 Normal termination of Gaussian 09 at Thu Nov 17 13:39:13 2016.
