 Entering Gaussian System, Link 0=g09
 Initial command:
 /cluster/software/gaussian/gaussian-09-D.01/g09/l1.exe "/local/scratch/epktb/Gau-20402.inp" -scrdir="/local/scratch/epktb/"
 Entering Link 1 = /cluster/software/gaussian/gaussian-09-D.01/g09/l1.exe PID=     20403.
  
 Copyright (c) 1988,1990,1992,1993,1995,1998,2003,2009,2013,
            Gaussian, Inc.  All Rights Reserved.
  
 This is part of the Gaussian(R) 09 program.  It is based on
 the Gaussian(R) 03 system (copyright 2003, Gaussian, Inc.),
 the Gaussian(R) 98 system (copyright 1998, Gaussian, Inc.),
 the Gaussian(R) 94 system (copyright 1995, Gaussian, Inc.),
 the Gaussian 92(TM) system (copyright 1992, Gaussian, Inc.),
 the Gaussian 90(TM) system (copyright 1990, Gaussian, Inc.),
 the Gaussian 88(TM) system (copyright 1988, Gaussian, Inc.),
 the Gaussian 86(TM) system (copyright 1986, Carnegie Mellon
 University), and the Gaussian 82(TM) system (copyright 1983,
 Carnegie Mellon University). Gaussian is a federally registered
 trademark of Gaussian, Inc.
  
 This software contains proprietary and confidential information,
 including trade secrets, belonging to Gaussian, Inc.
  
 This software is provided under written license and may be
 used, copied, transmitted, or stored only in accord with that
 written license.
  
 The following legend is applicable only to US Government
 contracts under FAR:
  
                    RESTRICTED RIGHTS LEGEND
  
 Use, reproduction and disclosure by the US Government is
 subject to restrictions as set forth in subparagraphs (a)
 and (c) of the Commercial Computer Software - Restricted
 Rights clause in FAR 52.227-19.
  
 Gaussian, Inc.
 340 Quinnipiac St., Bldg. 40, Wallingford CT 06492
  
  
 ---------------------------------------------------------------
 Warning -- This program may not be used in any manner that
 competes with the business of Gaussian, Inc. or will provide
 assistance to any competitor of Gaussian, Inc.  The licensee
 of this program is prohibited from giving any competitor of
 Gaussian, Inc. access to this program.  By using this program,
 the user acknowledges that Gaussian, Inc. is engaged in the
 business of creating and licensing software in the field of
 computational chemistry and represents and warrants to the
 licensee that it is not a competitor of Gaussian, Inc. and that
 it will not use this program in any manner prohibited above.
 ---------------------------------------------------------------
  

 Cite this work as:
 Gaussian 09, Revision D.01,
 M. J. Frisch, G. W. Trucks, H. B. Schlegel, G. E. Scuseria, 
 M. A. Robb, J. R. Cheeseman, G. Scalmani, V. Barone, B. Mennucci, 
 G. A. Petersson, H. Nakatsuji, M. Caricato, X. Li, H. P. Hratchian, 
 A. F. Izmaylov, J. Bloino, G. Zheng, J. L. Sonnenberg, M. Hada, 
 M. Ehara, K. Toyota, R. Fukuda, J. Hasegawa, M. Ishida, T. Nakajima, 
 Y. Honda, O. Kitao, H. Nakai, T. Vreven, J. A. Montgomery, Jr., 
 J. E. Peralta, F. Ogliaro, M. Bearpark, J. J. Heyd, E. Brothers, 
 K. N. Kudin, V. N. Staroverov, T. Keith, R. Kobayashi, J. Normand, 
 K. Raghavachari, A. Rendell, J. C. Burant, S. S. Iyengar, J. Tomasi, 
 M. Cossi, N. Rega, J. M. Millam, M. Klene, J. E. Knox, J. B. Cross, 
 V. Bakken, C. Adamo, J. Jaramillo, R. Gomperts, R. E. Stratmann, 
 O. Yazyev, A. J. Austin, R. Cammi, C. Pomelli, J. W. Ochterski, 
 R. L. Martin, K. Morokuma, V. G. Zakrzewski, G. A. Voth, 
 P. Salvador, J. J. Dannenberg, S. Dapprich, A. D. Daniels, 
 O. Farkas, J. B. Foresman, J. V. Ortiz, J. Cioslowski, 
 and D. J. Fox, Gaussian, Inc., Wallingford CT, 2013.
 
 ******************************************
 Gaussian 09:  ES64L-G09RevD.01 24-Apr-2013
                10-Nov-2016 
 ******************************************
 %nprocshared=8
 Will use up to    8 processors via shared memory.
 %mem=60GB
 %oldchk=c2h4-c2f4
 %chk=c2h4f4-mo
 Copying data from "c2h4-c2f4.chk" to current chk file "c2h4f4-mo.chk".
 ----------------------------------------------------------
 # td=(singlet,nstates=50) b3lyp/aug-cc-pvtz geom=check gfp
 ----------------------------------------------------------
 1/29=2,38=1/1;
 2/12=2,40=1/2;
 3/5=16,6=1,7=10,11=9,14=-4,16=1,24=100,25=1,30=1,74=-5/1,2,8,3;
 4//1;
 5/5=2,38=5/2;
 8/6=1,10=1,108=50/1;
 9/41=50,42=1,48=1,70=2/14;
 6/7=2,8=2,9=2,10=2/1;
 99/5=1,9=1/99;
 -----
 Title
 -----
 Structure from the checkpoint file:  "c2h4f4-mo.chk"
 Charge =  0 Multiplicity = 1
 Redundant internal coordinates found in file.
 C,0,-0.0110011707,-0.0006908479,-0.0074338249
 H,0,0.0172177338,-0.0032348228,1.0747005437
 H,0,0.944476881,-0.0026355333,-0.516232753
 C,0,-1.1558653132,0.0012868503,-0.6747081781
 H,0,-2.1112411914,0.0001840391,-0.1656780376
 H,0,-1.1837983633,0.0008689429,-1.7568719612
 C,0,-0.2055936506,3.9939955935,-0.1214388024
 C,0,-1.3474739398,3.9990767409,-0.7836124474
 F,0,0.9760297482,3.9882151778,-0.7086016155
 F,0,-0.1281943566,3.9880383543,1.1957201346
 F,0,-1.4249777018,3.9995893828,-2.1010538188
 F,0,-2.5294016464,3.9991803325,-0.1964288162
 Recover connectivity data from disk.
                          Input orientation:                          
 ---------------------------------------------------------------------
 Center     Atomic      Atomic             Coordinates (Angstroms)
 Number     Number       Type             X           Y           Z
 ---------------------------------------------------------------------
      1          6           0       -0.011001   -0.000691   -0.007434
      2          1           0        0.017218   -0.003235    1.074701
      3          1           0        0.944477   -0.002636   -0.516233
      4          6           0       -1.155865    0.001287   -0.674708
      5          1           0       -2.111241    0.000184   -0.165678
      6          1           0       -1.183798    0.000869   -1.756872
      7          6           0       -0.205594    3.993996   -0.121439
      8          6           0       -1.347474    3.999077   -0.783612
      9          9           0        0.976030    3.988215   -0.708602
     10          9           0       -0.128194    3.988038    1.195720
     11          9           0       -1.424978    3.999589   -2.101054
     12          9           0       -2.529402    3.999180   -0.196429
 ---------------------------------------------------------------------
                    Distance matrix (angstroms):
                    1          2          3          4          5
     1  C    0.000000
     2  H    1.082505   0.000000
     3  H    1.082506   1.841434   0.000000
     4  C    1.325131   2.106318   2.106316   0.000000
     5  H    2.106193   2.463511   3.075762   1.082523   0.000000
     6  H    2.106179   3.075753   2.463484   1.082524   1.841752
     7  C    4.001048   4.178307   4.177509   4.141358   4.425379
     8  C    4.287978   4.618897   4.619332   4.003860   4.117806
     9  F    4.168601   4.475618   3.995609   4.521252   5.072514
    10  F    4.167886   3.995754   4.472906   4.522035   4.657130
    11  F    4.731259   5.309232   4.913632   4.253623   4.495762
    12  F    4.730437   4.911249   5.308920   4.254234   4.020917
                    6          7          8          9         10
     6  H    0.000000
     7  C    4.424544   0.000000
     8  C    4.118214   1.319996   0.000000
     9  F    4.654316   1.319480   2.324740   0.000000
    10  F    5.072437   1.319445   2.324763   2.201307   0.000000
    11  F    4.020745   2.325039   1.319719   2.775588   3.542668
    12  F    4.498013   2.325023   1.319749   3.542667   2.775608
                   11         12
    11  F    0.000000
    12  F    2.201670   0.000000
 Stoichiometry    C4H4F4
 Framework group  C1[X(C4H4F4)]
 Deg. of freedom    30
 Full point group                 C1      NOp   1
 Largest Abelian subgroup         C1      NOp   1
 Largest concise Abelian subgroup C1      NOp   1
                         Standard orientation:                         
 ---------------------------------------------------------------------
 Center     Atomic      Atomic             Coordinates (Angstroms)
 Number     Number       Type             X           Y           Z
 ---------------------------------------------------------------------
      1          6           0       -3.066150    0.516174   -0.001165
      2          1           0       -3.127140    1.080555   -0.922887
      3          1           0       -3.127125    1.083832    0.918544
      4          6           0       -2.927430   -0.801675    0.001181
      5          1           0       -2.869507   -1.369444   -0.918677
      6          1           0       -2.869410   -1.366131    0.923072
      7          6           0        0.930482    0.704100    0.000277
      8          6           0        1.071758   -0.608314   -0.000290
      9          9           0        0.849543    1.426768    1.101289
     10          9           0        0.849555    1.427796   -1.100018
     11          9           0        1.147294   -1.332803    1.100196
     12          9           0        1.147076   -1.331819   -1.101474
 ---------------------------------------------------------------------
 Rotational constants (GHZ):      1.8874758      1.1303375      0.9647052
 Standard basis: Aug-CC-pVTZ (5D, 7F)
 AO basis set (Overlap normalization):
 Atom C1       Shell     1 S   7     bf    1 -     1         -5.794182863169          0.975426787063         -0.002201808326
      0.8236000000D+04  0.5419783203D-03
      0.1235000000D+04  0.4192873817D-02
      0.2808000000D+03  0.2152216205D-01
      0.7927000000D+02  0.8353432195D-01
      0.2559000000D+02  0.2395828457D+00
      0.8997000000D+01  0.4428528419D+00
      0.3319000000D+01  0.3517995618D+00
 Atom C1       Shell     2 S   6     bf    2 -     2         -5.794182863169          0.975426787063         -0.002201808326
      0.2808000000D+03 -0.5949224937D-04
      0.7927000000D+02 -0.1148158310D-02
      0.2559000000D+02 -0.1001913745D-01
      0.8997000000D+01 -0.6121949230D-01
      0.3319000000D+01 -0.1732698541D+00
      0.3643000000D+00  0.1072915192D+01
 Atom C1       Shell     3 S   1     bf    3 -     3         -5.794182863169          0.975426787063         -0.002201808326
      0.9059000000D+00  0.1000000000D+01
 Atom C1       Shell     4 S   1     bf    4 -     4         -5.794182863169          0.975426787063         -0.002201808326
      0.1285000000D+00  0.1000000000D+01
 Atom C1       Shell     5 S   1     bf    5 -     5         -5.794182863169          0.975426787063         -0.002201808326
      0.4402000000D-01  0.1000000000D+01
 Atom C1       Shell     6 P   3     bf    6 -     8         -5.794182863169          0.975426787063         -0.002201808326
      0.1871000000D+02  0.3942638716D-01
      0.4133000000D+01  0.2440889849D+00
      0.1200000000D+01  0.8154920089D+00
 Atom C1       Shell     7 P   1     bf    9 -    11         -5.794182863169          0.975426787063         -0.002201808326
      0.3827000000D+00  0.1000000000D+01
 Atom C1       Shell     8 P   1     bf   12 -    14         -5.794182863169          0.975426787063         -0.002201808326
      0.1209000000D+00  0.1000000000D+01
 Atom C1       Shell     9 P   1     bf   15 -    17         -5.794182863169          0.975426787063         -0.002201808326
      0.3569000000D-01  0.1000000000D+01
 Atom C1       Shell    10 D   1     bf   18 -    22         -5.794182863169          0.975426787063         -0.002201808326
      0.1097000000D+01  0.1000000000D+01
 Atom C1       Shell    11 D   1     bf   23 -    27         -5.794182863169          0.975426787063         -0.002201808326
      0.3180000000D+00  0.1000000000D+01
 Atom C1       Shell    12 D   1     bf   28 -    32         -5.794182863169          0.975426787063         -0.002201808326
      0.1000000000D+00  0.1000000000D+01
 Atom C1       Shell    13 F   1     bf   33 -    39         -5.794182863169          0.975426787063         -0.002201808326
      0.7610000000D+00  0.1000000000D+01
 Atom C1       Shell    14 F   1     bf   40 -    46         -5.794182863169          0.975426787063         -0.002201808326
      0.2680000000D+00  0.1000000000D+01
 Atom H2       Shell    15 S   3     bf   47 -    47         -5.909437787740          2.041952999784         -1.744003945059
      0.3387000000D+02  0.2549486323D-01
      0.5095000000D+01  0.1903627659D+00
      0.1159000000D+01  0.8521620222D+00
 Atom H2       Shell    16 S   1     bf   48 -    48         -5.909437787740          2.041952999784         -1.744003945059
      0.3258000000D+00  0.1000000000D+01
 Atom H2       Shell    17 S   1     bf   49 -    49         -5.909437787740          2.041952999784         -1.744003945059
      0.1027000000D+00  0.1000000000D+01
 Atom H2       Shell    18 S   1     bf   50 -    50         -5.909437787740          2.041952999784         -1.744003945059
      0.2526000000D-01  0.1000000000D+01
 Atom H2       Shell    19 P   1     bf   51 -    53         -5.909437787740          2.041952999784         -1.744003945059
      0.1407000000D+01  0.1000000000D+01
 Atom H2       Shell    20 P   1     bf   54 -    56         -5.909437787740          2.041952999784         -1.744003945059
      0.3880000000D+00  0.1000000000D+01
 Atom H2       Shell    21 P   1     bf   57 -    59         -5.909437787740          2.041952999784         -1.744003945059
      0.1020000000D+00  0.1000000000D+01
 Atom H2       Shell    22 D   1     bf   60 -    64         -5.909437787740          2.041952999784         -1.744003945059
      0.1057000000D+01  0.1000000000D+01
 Atom H2       Shell    23 D   1     bf   65 -    69         -5.909437787740          2.041952999784         -1.744003945059
      0.2470000000D+00  0.1000000000D+01
 Atom H3       Shell    24 S   3     bf   70 -    70         -5.909409370912          2.048145456876          1.735796221520
      0.3387000000D+02  0.2549486323D-01
      0.5095000000D+01  0.1903627659D+00
      0.1159000000D+01  0.8521620222D+00
 Atom H3       Shell    25 S   1     bf   71 -    71         -5.909409370912          2.048145456876          1.735796221520
      0.3258000000D+00  0.1000000000D+01
 Atom H3       Shell    26 S   1     bf   72 -    72         -5.909409370912          2.048145456876          1.735796221520
      0.1027000000D+00  0.1000000000D+01
 Atom H3       Shell    27 S   1     bf   73 -    73         -5.909409370912          2.048145456876          1.735796221520
      0.2526000000D-01  0.1000000000D+01
 Atom H3       Shell    28 P   1     bf   74 -    76         -5.909409370912          2.048145456876          1.735796221520
      0.1407000000D+01  0.1000000000D+01
 Atom H3       Shell    29 P   1     bf   77 -    79         -5.909409370912          2.048145456876          1.735796221520
      0.3880000000D+00  0.1000000000D+01
 Atom H3       Shell    30 P   1     bf   80 -    82         -5.909409370912          2.048145456876          1.735796221520
      0.1020000000D+00  0.1000000000D+01
 Atom H3       Shell    31 D   1     bf   83 -    87         -5.909409370912          2.048145456876          1.735796221520
      0.1057000000D+01  0.1000000000D+01
 Atom H3       Shell    32 D   1     bf   88 -    92         -5.909409370912          2.048145456876          1.735796221520
      0.2470000000D+00  0.1000000000D+01
 Atom C4       Shell    33 S   7     bf   93 -    93         -5.532041310624         -1.514945711515          0.002232317315
      0.8236000000D+04  0.5419783203D-03
      0.1235000000D+04  0.4192873817D-02
      0.2808000000D+03  0.2152216205D-01
      0.7927000000D+02  0.8353432195D-01
      0.2559000000D+02  0.2395828457D+00
      0.8997000000D+01  0.4428528419D+00
      0.3319000000D+01  0.3517995618D+00
 Atom C4       Shell    34 S   6     bf   94 -    94         -5.532041310624         -1.514945711515          0.002232317315
      0.2808000000D+03 -0.5949224937D-04
      0.7927000000D+02 -0.1148158310D-02
      0.2559000000D+02 -0.1001913745D-01
      0.8997000000D+01 -0.6121949230D-01
      0.3319000000D+01 -0.1732698541D+00
      0.3643000000D+00  0.1072915192D+01
 Atom C4       Shell    35 S   1     bf   95 -    95         -5.532041310624         -1.514945711515          0.002232317315
      0.9059000000D+00  0.1000000000D+01
 Atom C4       Shell    36 S   1     bf   96 -    96         -5.532041310624         -1.514945711515          0.002232317315
      0.1285000000D+00  0.1000000000D+01
 Atom C4       Shell    37 S   1     bf   97 -    97         -5.532041310624         -1.514945711515          0.002232317315
      0.4402000000D-01  0.1000000000D+01
 Atom C4       Shell    38 P   3     bf   98 -   100         -5.532041310624         -1.514945711515          0.002232317315
      0.1871000000D+02  0.3942638716D-01
      0.4133000000D+01  0.2440889849D+00
      0.1200000000D+01  0.8154920089D+00
 Atom C4       Shell    39 P   1     bf  101 -   103         -5.532041310624         -1.514945711515          0.002232317315
      0.3827000000D+00  0.1000000000D+01
 Atom C4       Shell    40 P   1     bf  104 -   106         -5.532041310624         -1.514945711515          0.002232317315
      0.1209000000D+00  0.1000000000D+01
 Atom C4       Shell    41 P   1     bf  107 -   109         -5.532041310624         -1.514945711515          0.002232317315
      0.3569000000D-01  0.1000000000D+01
 Atom C4       Shell    42 D   1     bf  110 -   114         -5.532041310624         -1.514945711515          0.002232317315
      0.1097000000D+01  0.1000000000D+01
 Atom C4       Shell    43 D   1     bf  115 -   119         -5.532041310624         -1.514945711515          0.002232317315
      0.3180000000D+00  0.1000000000D+01
 Atom C4       Shell    44 D   1     bf  120 -   124         -5.532041310624         -1.514945711515          0.002232317315
      0.1000000000D+00  0.1000000000D+01
 Atom C4       Shell    45 F   1     bf  125 -   131         -5.532041310624         -1.514945711515          0.002232317315
      0.7610000000D+00  0.1000000000D+01
 Atom C4       Shell    46 F   1     bf  132 -   138         -5.532041310624         -1.514945711515          0.002232317315
      0.2680000000D+00  0.1000000000D+01
 Atom H5       Shell    47 S   3     bf  139 -   139         -5.422582820171         -2.587874425321         -1.736047430649
      0.3387000000D+02  0.2549486323D-01
      0.5095000000D+01  0.1903627659D+00
      0.1159000000D+01  0.8521620222D+00
 Atom H5       Shell    48 S   1     bf  140 -   140         -5.422582820171         -2.587874425321         -1.736047430649
      0.3258000000D+00  0.1000000000D+01
 Atom H5       Shell    49 S   1     bf  141 -   141         -5.422582820171         -2.587874425321         -1.736047430649
      0.1027000000D+00  0.1000000000D+01
 Atom H5       Shell    50 S   1     bf  142 -   142         -5.422582820171         -2.587874425321         -1.736047430649
      0.2526000000D-01  0.1000000000D+01
 Atom H5       Shell    51 P   1     bf  143 -   145         -5.422582820171         -2.587874425321         -1.736047430649
      0.1407000000D+01  0.1000000000D+01
 Atom H5       Shell    52 P   1     bf  146 -   148         -5.422582820171         -2.587874425321         -1.736047430649
      0.3880000000D+00  0.1000000000D+01
 Atom H5       Shell    53 P   1     bf  149 -   151         -5.422582820171         -2.587874425321         -1.736047430649
      0.1020000000D+00  0.1000000000D+01
 Atom H5       Shell    54 D   1     bf  152 -   156         -5.422582820171         -2.587874425321         -1.736047430649
      0.1057000000D+01  0.1000000000D+01
 Atom H5       Shell    55 D   1     bf  157 -   161         -5.422582820171         -2.587874425321         -1.736047430649
      0.2470000000D+00  0.1000000000D+01
 Atom H6       Shell    56 S   3     bf  162 -   162         -5.422399023134         -2.581612619669          1.744352965351
      0.3387000000D+02  0.2549486323D-01
      0.5095000000D+01  0.1903627659D+00
      0.1159000000D+01  0.8521620222D+00
 Atom H6       Shell    57 S   1     bf  163 -   163         -5.422399023134         -2.581612619669          1.744352965351
      0.3258000000D+00  0.1000000000D+01
 Atom H6       Shell    58 S   1     bf  164 -   164         -5.422399023134         -2.581612619669          1.744352965351
      0.1027000000D+00  0.1000000000D+01
 Atom H6       Shell    59 S   1     bf  165 -   165         -5.422399023134         -2.581612619669          1.744352965351
      0.2526000000D-01  0.1000000000D+01
 Atom H6       Shell    60 P   1     bf  166 -   168         -5.422399023134         -2.581612619669          1.744352965351
      0.1407000000D+01  0.1000000000D+01
 Atom H6       Shell    61 P   1     bf  169 -   171         -5.422399023134         -2.581612619669          1.744352965351
      0.3880000000D+00  0.1000000000D+01
 Atom H6       Shell    62 P   1     bf  172 -   174         -5.422399023134         -2.581612619669          1.744352965351
      0.1020000000D+00  0.1000000000D+01
 Atom H6       Shell    63 D   1     bf  175 -   179         -5.422399023134         -2.581612619669          1.744352965351
      0.1057000000D+01  0.1000000000D+01
 Atom H6       Shell    64 D   1     bf  180 -   184         -5.422399023134         -2.581612619669          1.744352965351
      0.2470000000D+00  0.1000000000D+01
 Atom C7       Shell    65 S   7     bf  185 -   185          1.758356442045          1.330556411714          0.000522531025
      0.8236000000D+04  0.5419783203D-03
      0.1235000000D+04  0.4192873817D-02
      0.2808000000D+03  0.2152216205D-01
      0.7927000000D+02  0.8353432195D-01
      0.2559000000D+02  0.2395828457D+00
      0.8997000000D+01  0.4428528419D+00
      0.3319000000D+01  0.3517995618D+00
 Atom C7       Shell    66 S   6     bf  186 -   186          1.758356442045          1.330556411714          0.000522531025
      0.2808000000D+03 -0.5949224937D-04
      0.7927000000D+02 -0.1148158310D-02
      0.2559000000D+02 -0.1001913745D-01
      0.8997000000D+01 -0.6121949230D-01
      0.3319000000D+01 -0.1732698541D+00
      0.3643000000D+00  0.1072915192D+01
 Atom C7       Shell    67 S   1     bf  187 -   187          1.758356442045          1.330556411714          0.000522531025
      0.9059000000D+00  0.1000000000D+01
 Atom C7       Shell    68 S   1     bf  188 -   188          1.758356442045          1.330556411714          0.000522531025
      0.1285000000D+00  0.1000000000D+01
 Atom C7       Shell    69 S   1     bf  189 -   189          1.758356442045          1.330556411714          0.000522531025
      0.4402000000D-01  0.1000000000D+01
 Atom C7       Shell    70 P   3     bf  190 -   192          1.758356442045          1.330556411714          0.000522531025
      0.1871000000D+02  0.3942638716D-01
      0.4133000000D+01  0.2440889849D+00
      0.1200000000D+01  0.8154920089D+00
 Atom C7       Shell    71 P   1     bf  193 -   195          1.758356442045          1.330556411714          0.000522531025
      0.3827000000D+00  0.1000000000D+01
 Atom C7       Shell    72 P   1     bf  196 -   198          1.758356442045          1.330556411714          0.000522531025
      0.1209000000D+00  0.1000000000D+01
 Atom C7       Shell    73 P   1     bf  199 -   201          1.758356442045          1.330556411714          0.000522531025
      0.3569000000D-01  0.1000000000D+01
 Atom C7       Shell    74 D   1     bf  202 -   206          1.758356442045          1.330556411714          0.000522531025
      0.1097000000D+01  0.1000000000D+01
 Atom C7       Shell    75 D   1     bf  207 -   211          1.758356442045          1.330556411714          0.000522531025
      0.3180000000D+00  0.1000000000D+01
 Atom C7       Shell    76 D   1     bf  212 -   216          1.758356442045          1.330556411714          0.000522531025
      0.1000000000D+00  0.1000000000D+01
 Atom C7       Shell    77 F   1     bf  217 -   223          1.758356442045          1.330556411714          0.000522531025
      0.7610000000D+00  0.1000000000D+01
 Atom C7       Shell    78 F   1     bf  224 -   230          1.758356442045          1.330556411714          0.000522531025
      0.2680000000D+00  0.1000000000D+01
 Atom C8       Shell    79 S   7     bf  231 -   231          2.025329437655         -1.149547057235         -0.000548093642
      0.8236000000D+04  0.5419783203D-03
      0.1235000000D+04  0.4192873817D-02
      0.2808000000D+03  0.2152216205D-01
      0.7927000000D+02  0.8353432195D-01
      0.2559000000D+02  0.2395828457D+00
      0.8997000000D+01  0.4428528419D+00
      0.3319000000D+01  0.3517995618D+00
 Atom C8       Shell    80 S   6     bf  232 -   232          2.025329437655         -1.149547057235         -0.000548093642
      0.2808000000D+03 -0.5949224937D-04
      0.7927000000D+02 -0.1148158310D-02
      0.2559000000D+02 -0.1001913745D-01
      0.8997000000D+01 -0.6121949230D-01
      0.3319000000D+01 -0.1732698541D+00
      0.3643000000D+00  0.1072915192D+01
 Atom C8       Shell    81 S   1     bf  233 -   233          2.025329437655         -1.149547057235         -0.000548093642
      0.9059000000D+00  0.1000000000D+01
 Atom C8       Shell    82 S   1     bf  234 -   234          2.025329437655         -1.149547057235         -0.000548093642
      0.1285000000D+00  0.1000000000D+01
 Atom C8       Shell    83 S   1     bf  235 -   235          2.025329437655         -1.149547057235         -0.000548093642
      0.4402000000D-01  0.1000000000D+01
 Atom C8       Shell    84 P   3     bf  236 -   238          2.025329437655         -1.149547057235         -0.000548093642
      0.1871000000D+02  0.3942638716D-01
      0.4133000000D+01  0.2440889849D+00
      0.1200000000D+01  0.8154920089D+00
 Atom C8       Shell    85 P   1     bf  239 -   241          2.025329437655         -1.149547057235         -0.000548093642
      0.3827000000D+00  0.1000000000D+01
 Atom C8       Shell    86 P   1     bf  242 -   244          2.025329437655         -1.149547057235         -0.000548093642
      0.1209000000D+00  0.1000000000D+01
 Atom C8       Shell    87 P   1     bf  245 -   247          2.025329437655         -1.149547057235         -0.000548093642
      0.3569000000D-01  0.1000000000D+01
 Atom C8       Shell    88 D   1     bf  248 -   252          2.025329437655         -1.149547057235         -0.000548093642
      0.1097000000D+01  0.1000000000D+01
 Atom C8       Shell    89 D   1     bf  253 -   257          2.025329437655         -1.149547057235         -0.000548093642
      0.3180000000D+00  0.1000000000D+01
 Atom C8       Shell    90 D   1     bf  258 -   262          2.025329437655         -1.149547057235         -0.000548093642
      0.1000000000D+00  0.1000000000D+01
 Atom C8       Shell    91 F   1     bf  263 -   269          2.025329437655         -1.149547057235         -0.000548093642
      0.7610000000D+00  0.1000000000D+01
 Atom C8       Shell    92 F   1     bf  270 -   276          2.025329437655         -1.149547057235         -0.000548093642
      0.2680000000D+00  0.1000000000D+01
 Atom F9       Shell    93 S   7     bf  277 -   277          1.605404440064          2.696200806319          2.081133733330
      0.1950000000D+05  0.5190024441D-03
      0.2923000000D+04  0.4015781354D-02
      0.6645000000D+03  0.2067746110D-01
      0.1875000000D+03  0.8086901703D-01
      0.6062000000D+02  0.2358075463D+00
      0.2142000000D+02  0.4425823060D+00
      0.7950000000D+01  0.3569628672D+00
 Atom F9       Shell    94 S   6     bf  278 -   278          1.605404440064          2.696200806319          2.081133733330
      0.6645000000D+03 -0.3735980873D-04
      0.1875000000D+03 -0.1277472297D-02
      0.6062000000D+02 -0.1082201399D-01
      0.2142000000D+02 -0.7004820894D-01
      0.7950000000D+01 -0.1697466078D+00
      0.8815000000D+00  0.1073026608D+01
 Atom F9       Shell    95 S   1     bf  279 -   279          1.605404440064          2.696200806319          2.081133733330
      0.2257000000D+01  0.1000000000D+01
 Atom F9       Shell    96 S   1     bf  280 -   280          1.605404440064          2.696200806319          2.081133733330
      0.3041000000D+00  0.1000000000D+01
 Atom F9       Shell    97 S   1     bf  281 -   281          1.605404440064          2.696200806319          2.081133733330
      0.9158000000D-01  0.1000000000D+01
 Atom F9       Shell    98 P   3     bf  282 -   284          1.605404440064          2.696200806319          2.081133733330
      0.4388000000D+02  0.4190462069D-01
      0.9926000000D+01  0.2626978417D+00
      0.2930000000D+01  0.7977593735D+00
 Atom F9       Shell    99 P   1     bf  285 -   287          1.605404440064          2.696200806319          2.081133733330
      0.9132000000D+00  0.1000000000D+01
 Atom F9       Shell   100 P   1     bf  288 -   290          1.605404440064          2.696200806319          2.081133733330
      0.2672000000D+00  0.1000000000D+01
 Atom F9       Shell   101 P   1     bf  291 -   293          1.605404440064          2.696200806319          2.081133733330
      0.7361000000D-01  0.1000000000D+01
 Atom F9       Shell   102 D   1     bf  294 -   298          1.605404440064          2.696200806319          2.081133733330
      0.3107000000D+01  0.1000000000D+01
 Atom F9       Shell   103 D   1     bf  299 -   303          1.605404440064          2.696200806319          2.081133733330
      0.8550000000D+00  0.1000000000D+01
 Atom F9       Shell   104 D   1     bf  304 -   308          1.605404440064          2.696200806319          2.081133733330
      0.2920000000D+00  0.1000000000D+01
 Atom F9       Shell   105 F   1     bf  309 -   315          1.605404440064          2.696200806319          2.081133733330
      0.1917000000D+01  0.1000000000D+01
 Atom F9       Shell   106 F   1     bf  316 -   322          1.605404440064          2.696200806319          2.081133733330
      0.7240000000D+00  0.1000000000D+01
 Atom F10      Shell   107 S   7     bf  323 -   323          1.605425942669          2.698144062866         -2.078733058823
      0.1950000000D+05  0.5190024441D-03
      0.2923000000D+04  0.4015781354D-02
      0.6645000000D+03  0.2067746110D-01
      0.1875000000D+03  0.8086901703D-01
      0.6062000000D+02  0.2358075463D+00
      0.2142000000D+02  0.4425823060D+00
      0.7950000000D+01  0.3569628672D+00
 Atom F10      Shell   108 S   6     bf  324 -   324          1.605425942669          2.698144062866         -2.078733058823
      0.6645000000D+03 -0.3735980873D-04
      0.1875000000D+03 -0.1277472297D-02
      0.6062000000D+02 -0.1082201399D-01
      0.2142000000D+02 -0.7004820894D-01
      0.7950000000D+01 -0.1697466078D+00
      0.8815000000D+00  0.1073026608D+01
 Atom F10      Shell   109 S   1     bf  325 -   325          1.605425942669          2.698144062866         -2.078733058823
      0.2257000000D+01  0.1000000000D+01
 Atom F10      Shell   110 S   1     bf  326 -   326          1.605425942669          2.698144062866         -2.078733058823
      0.3041000000D+00  0.1000000000D+01
 Atom F10      Shell   111 S   1     bf  327 -   327          1.605425942669          2.698144062866         -2.078733058823
      0.9158000000D-01  0.1000000000D+01
 Atom F10      Shell   112 P   3     bf  328 -   330          1.605425942669          2.698144062866         -2.078733058823
      0.4388000000D+02  0.4190462069D-01
      0.9926000000D+01  0.2626978417D+00
      0.2930000000D+01  0.7977593735D+00
 Atom F10      Shell   113 P   1     bf  331 -   333          1.605425942669          2.698144062866         -2.078733058823
      0.9132000000D+00  0.1000000000D+01
 Atom F10      Shell   114 P   1     bf  334 -   336          1.605425942669          2.698144062866         -2.078733058823
      0.2672000000D+00  0.1000000000D+01
 Atom F10      Shell   115 P   1     bf  337 -   339          1.605425942669          2.698144062866         -2.078733058823
      0.7361000000D-01  0.1000000000D+01
 Atom F10      Shell   116 D   1     bf  340 -   344          1.605425942669          2.698144062866         -2.078733058823
      0.3107000000D+01  0.1000000000D+01
 Atom F10      Shell   117 D   1     bf  345 -   349          1.605425942669          2.698144062866         -2.078733058823
      0.8550000000D+00  0.1000000000D+01
 Atom F10      Shell   118 D   1     bf  350 -   354          1.605425942669          2.698144062866         -2.078733058823
      0.2920000000D+00  0.1000000000D+01
 Atom F10      Shell   119 F   1     bf  355 -   361          1.605425942669          2.698144062866         -2.078733058823
      0.1917000000D+01  0.1000000000D+01
 Atom F10      Shell   120 F   1     bf  362 -   368          1.605425942669          2.698144062866         -2.078733058823
      0.7240000000D+00  0.1000000000D+01
 Atom F11      Shell   121 S   7     bf  369 -   369          2.168071297389         -2.518632847489          2.079068606573
      0.1950000000D+05  0.5190024441D-03
      0.2923000000D+04  0.4015781354D-02
      0.6645000000D+03  0.2067746110D-01
      0.1875000000D+03  0.8086901703D-01
      0.6062000000D+02  0.2358075463D+00
      0.2142000000D+02  0.4425823060D+00
      0.7950000000D+01  0.3569628672D+00
 Atom F11      Shell   122 S   6     bf  370 -   370          2.168071297389         -2.518632847489          2.079068606573
      0.6645000000D+03 -0.3735980873D-04
      0.1875000000D+03 -0.1277472297D-02
      0.6062000000D+02 -0.1082201399D-01
      0.2142000000D+02 -0.7004820894D-01
      0.7950000000D+01 -0.1697466078D+00
      0.8815000000D+00  0.1073026608D+01
 Atom F11      Shell   123 S   1     bf  371 -   371          2.168071297389         -2.518632847489          2.079068606573
      0.2257000000D+01  0.1000000000D+01
 Atom F11      Shell   124 S   1     bf  372 -   372          2.168071297389         -2.518632847489          2.079068606573
      0.3041000000D+00  0.1000000000D+01
 Atom F11      Shell   125 S   1     bf  373 -   373          2.168071297389         -2.518632847489          2.079068606573
      0.9158000000D-01  0.1000000000D+01
 Atom F11      Shell   126 P   3     bf  374 -   376          2.168071297389         -2.518632847489          2.079068606573
      0.4388000000D+02  0.4190462069D-01
      0.9926000000D+01  0.2626978417D+00
      0.2930000000D+01  0.7977593735D+00
 Atom F11      Shell   127 P   1     bf  377 -   379          2.168071297389         -2.518632847489          2.079068606573
      0.9132000000D+00  0.1000000000D+01
 Atom F11      Shell   128 P   1     bf  380 -   382          2.168071297389         -2.518632847489          2.079068606573
      0.2672000000D+00  0.1000000000D+01
 Atom F11      Shell   129 P   1     bf  383 -   385          2.168071297389         -2.518632847489          2.079068606573
      0.7361000000D-01  0.1000000000D+01
 Atom F11      Shell   130 D   1     bf  386 -   390          2.168071297389         -2.518632847489          2.079068606573
      0.3107000000D+01  0.1000000000D+01
 Atom F11      Shell   131 D   1     bf  391 -   395          2.168071297389         -2.518632847489          2.079068606573
      0.8550000000D+00  0.1000000000D+01
 Atom F11      Shell   132 D   1     bf  396 -   400          2.168071297389         -2.518632847489          2.079068606573
      0.2920000000D+00  0.1000000000D+01
 Atom F11      Shell   133 F   1     bf  401 -   407          2.168071297389         -2.518632847489          2.079068606573
      0.1917000000D+01  0.1000000000D+01
 Atom F11      Shell   134 F   1     bf  408 -   414          2.168071297389         -2.518632847489          2.079068606573
      0.7240000000D+00  0.1000000000D+01
 Atom F12      Shell   135 S   7     bf  415 -   415          2.167660405047         -2.516773576344         -2.081483446568
      0.1950000000D+05  0.5190024441D-03
      0.2923000000D+04  0.4015781354D-02
      0.6645000000D+03  0.2067746110D-01
      0.1875000000D+03  0.8086901703D-01
      0.6062000000D+02  0.2358075463D+00
      0.2142000000D+02  0.4425823060D+00
      0.7950000000D+01  0.3569628672D+00
 Atom F12      Shell   136 S   6     bf  416 -   416          2.167660405047         -2.516773576344         -2.081483446568
      0.6645000000D+03 -0.3735980873D-04
      0.1875000000D+03 -0.1277472297D-02
      0.6062000000D+02 -0.1082201399D-01
      0.2142000000D+02 -0.7004820894D-01
      0.7950000000D+01 -0.1697466078D+00
      0.8815000000D+00  0.1073026608D+01
 Atom F12      Shell   137 S   1     bf  417 -   417          2.167660405047         -2.516773576344         -2.081483446568
      0.2257000000D+01  0.1000000000D+01
 Atom F12      Shell   138 S   1     bf  418 -   418          2.167660405047         -2.516773576344         -2.081483446568
      0.3041000000D+00  0.1000000000D+01
 Atom F12      Shell   139 S   1     bf  419 -   419          2.167660405047         -2.516773576344         -2.081483446568
      0.9158000000D-01  0.1000000000D+01
 Atom F12      Shell   140 P   3     bf  420 -   422          2.167660405047         -2.516773576344         -2.081483446568
      0.4388000000D+02  0.4190462069D-01
      0.9926000000D+01  0.2626978417D+00
      0.2930000000D+01  0.7977593735D+00
 Atom F12      Shell   141 P   1     bf  423 -   425          2.167660405047         -2.516773576344         -2.081483446568
      0.9132000000D+00  0.1000000000D+01
 Atom F12      Shell   142 P   1     bf  426 -   428          2.167660405047         -2.516773576344         -2.081483446568
      0.2672000000D+00  0.1000000000D+01
 Atom F12      Shell   143 P   1     bf  429 -   431          2.167660405047         -2.516773576344         -2.081483446568
      0.7361000000D-01  0.1000000000D+01
 Atom F12      Shell   144 D   1     bf  432 -   436          2.167660405047         -2.516773576344         -2.081483446568
      0.3107000000D+01  0.1000000000D+01
 Atom F12      Shell   145 D   1     bf  437 -   441          2.167660405047         -2.516773576344         -2.081483446568
      0.8550000000D+00  0.1000000000D+01
 Atom F12      Shell   146 D   1     bf  442 -   446          2.167660405047         -2.516773576344         -2.081483446568
      0.2920000000D+00  0.1000000000D+01
 Atom F12      Shell   147 F   1     bf  447 -   453          2.167660405047         -2.516773576344         -2.081483446568
      0.1917000000D+01  0.1000000000D+01
 Atom F12      Shell   148 F   1     bf  454 -   460          2.167660405047         -2.516773576344         -2.081483446568
      0.7240000000D+00  0.1000000000D+01
 There are   540 symmetry adapted cartesian basis functions of A   symmetry.
 There are   460 symmetry adapted basis functions of A   symmetry.
   460 basis functions,   684 primitive gaussians,   540 cartesian basis functions
    32 alpha electrons       32 beta electrons
       nuclear repulsion energy       370.6834941655 Hartrees.
 NAtoms=   12 NActive=   12 NUniq=   12 SFac= 1.00D+00 NAtFMM=   60 NAOKFM=F Big=F
 Integral buffers will be    131072 words long.
 Regular integral format.
 Two-electron integral symmetry is turned on.
 One-electron integrals computed using PRISM.
 NBasis=   460 RedAO= T EigKep=  4.21D-06  NBF=   460
 NBsUse=   460 1.00D-06 EigRej= -1.00D+00 NBFU=   460
 ExpMin= 2.53D-02 ExpMax= 1.95D+04 ExpMxC= 6.65D+02 IAcc=3 IRadAn=         5 AccDes= 0.00D+00
 Harris functional with IExCor=  402 and IRadAn=       5 diagonalized for initial guess.
 HarFok:  IExCor=  402 AccDes= 0.00D+00 IRadAn=         5 IDoV= 1 UseB2=F ITyADJ=14
 ICtDFT=  3500011 ScaDFX=  1.000000  1.000000  1.000000  1.000000
 FoFCou: FMM=F IPFlag=           0 FMFlag=      100000 FMFlg1=           0
         NFxFlg=           0 DoJE=T BraDBF=F KetDBF=T FulRan=T
         wScrn=  0.000000 ICntrl=     500 IOpCl=  0 I1Cent=   200000004 NGrid=           0
         NMat0=    1 NMatS0=      1 NMatT0=    0 NMatD0=    1 NMtDS0=    0 NMtDT0=    0
 Petite list used in FoFCou.
 Keep R1 ints in memory in canonical form, NReq=5701304947.
 Requested convergence on RMS density matrix=1.00D-08 within 128 cycles.
 Requested convergence on MAX density matrix=1.00D-06.
 Requested convergence on             energy=1.00D-06.
 No special actions if energy rises.
 SCF Done:  E(RB3LYP) =  -554.335977532     A.U. after   10 cycles
            NFock= 10  Conv=0.76D-08     -V/T= 2.0055
 DoSCS=F DFT=T ScalE2(SS,OS)=  1.000000  1.000000
 ExpMin= 2.53D-02 ExpMax= 1.95D+04 ExpMxC= 6.65D+02 IAcc=3 IRadAn=         5 AccDes= 0.00D+00
 HarFok:  IExCor=  205 AccDes= 0.00D+00 IRadAn=         5 IDoV=-2 UseB2=F ITyADJ=14
 ICtDFT= 12500011 ScaDFX=  1.000000  1.000000  1.000000  1.000000
 Range of M.O.s used for correlation:     9   460
 NBasis=   460 NAE=    32 NBE=    32 NFC=     8 NFV=     0
 NROrb=    452 NOA=    24 NOB=    24 NVA=   428 NVB=   428

 **** Warning!!: The largest alpha MO coefficient is  0.10581962D+03

 Would need an additional         10932700000 words for in-memory AO integral storage.
 Orbital symmetries:
       Occupied  (A) (A) (A) (A) (A) (A) (A) (A) (A) (A) (A) (A)
                 (A) (A) (A) (A) (A) (A) (A) (A) (A) (A) (A) (A)
                 (A) (A) (A) (A) (A) (A) (A) (A)
       Virtual   (A) (A) (A) (A) (A) (A) (A) (A) (A) (A) (A) (A)
                 (A) (A) (A) (A) (A) (A) (A) (A) (A) (A) (A) (A)
                 (A) (A) (A) (A) (A) (A) (A) (A) (A) (A) (A) (A)
                 (A) (A) (A) (A) (A) (A) (A) (A) (A) (A) (A) (A)
                 (A) (A) (A) (A) (A) (A) (A) (A) (A) (A) (A) (A)
                 (A) (A) (A) (A) (A) (A) (A) (A) (A) (A) (A) (A)
                 (A) (A) (A) (A) (A) (A) (A) (A) (A) (A) (A) (A)
                 (A) (A) (A) (A) (A) (A) (A) (A) (A) (A) (A) (A)
                 (A) (A) (A) (A) (A) (A) (A) (A) (A) (A) (A) (A)
                 (A) (A) (A) (A) (A) (A) (A) (A) (A) (A) (A) (A)
                 (A) (A) (A) (A) (A) (A) (A) (A) (A) (A) (A) (A)
                 (A) (A) (A) (A) (A) (A) (A) (A) (A) (A) (A) (A)
                 (A) (A) (A) (A) (A) (A) (A) (A) (A) (A) (A) (A)
                 (A) (A) (A) (A) (A) (A) (A) (A) (A) (A) (A) (A)
                 (A) (A) (A) (A) (A) (A) (A) (A) (A) (A) (A) (A)
                 (A) (A) (A) (A) (A) (A) (A) (A) (A) (A) (A) (A)
                 (A) (A) (A) (A) (A) (A) (A) (A) (A) (A) (A) (A)
                 (A) (A) (A) (A) (A) (A) (A) (A) (A) (A) (A) (A)
                 (A) (A) (A) (A) (A) (A) (A) (A) (A) (A) (A) (A)
                 (A) (A) (A) (A) (A) (A) (A) (A) (A) (A) (A) (A)
                 (A) (A) (A) (A) (A) (A) (A) (A) (A) (A) (A) (A)
                 (A) (A) (A) (A) (A) (A) (A) (A) (A) (A) (A) (A)
                 (A) (A) (A) (A) (A) (A) (A) (A) (A) (A) (A) (A)
                 (A) (A) (A) (A) (A) (A) (A) (A) (A) (A) (A) (A)
                 (A) (A) (A) (A) (A) (A) (A) (A) (A) (A) (A) (A)
                 (A) (A) (A) (A) (A) (A) (A) (A) (A) (A) (A) (A)
                 (A) (A) (A) (A) (A) (A) (A) (A) (A) (A) (A) (A)
                 (A) (A) (A) (A) (A) (A) (A) (A) (A) (A) (A) (A)
                 (A) (A) (A) (A) (A) (A) (A) (A) (A) (A) (A) (A)
                 (A) (A) (A) (A) (A) (A) (A) (A) (A) (A) (A) (A)
                 (A) (A) (A) (A) (A) (A) (A) (A) (A) (A) (A) (A)
                 (A) (A) (A) (A) (A) (A) (A) (A) (A) (A) (A) (A)
                 (A) (A) (A) (A) (A) (A) (A) (A) (A) (A) (A) (A)
                 (A) (A) (A) (A) (A) (A) (A) (A) (A) (A) (A) (A)
                 (A) (A) (A) (A) (A) (A) (A) (A) (A) (A) (A) (A)
                 (A) (A) (A) (A) (A) (A) (A) (A)
   200 initial guesses have been made.
 Convergence on wavefunction:    0.001000000000000
 Iteration     1 Dimension   200 NMult     0 NNew    200
 CISAX will form   200 AO SS matrices at one time.
 New state      1 was old state      2
 New state      2 was old state      1
 New state      3 was old state      6
 New state      6 was old state      7
 New state      7 was old state     10
 New state      8 was old state      9
 New state      9 was old state     12
 New state     10 was old state     11
 New state     11 was old state     14
 New state     12 was old state     13
 New state     13 was old state     17
 New state     14 was old state     16
 New state     16 was old state     24
 New state     17 was old state     18
 New state     18 was old state     20
 New state     20 was old state     26
 New state     21 was old state     23
 New state     23 was old state     21
 No map to state     24
 New state     25 was old state     29
 New state     26 was old state     25
 New state     29 was old state     31
 New state     30 was old state     32
 New state     31 was old state     30
 New state     32 was old state     33
 New state     33 was old state     38
 New state     34 was old state     35
 New state     35 was old state     36
 New state     36 was old state     39
 New state     37 was old state     40
 New state     38 was old state     34
 New state     39 was old state     37
 New state     40 was old state     41
 New state     41 was old state     42
 New state     42 was old state     44
 New state     43 was old state      8
 New state     44 was old state     59
 New state     47 was old state     49
 New state     48 was old state     47
 New state     49 was old state     48
 New state     50 was old state     51
 Iteration     2 Dimension   300 NMult   200 NNew    100
 New state      9 was old state     11
 New state     10 was old state      9
 New state     11 was old state     10
 New state     19 was old state     22
 New state     20 was old state     19
 New state     21 was old state     20
 New state     22 was old state     43
 New state     23 was old state     21
 New state     24 was old state     23
 New state     25 was old state     24
 New state     26 was old state     25
 New state     27 was old state     26
 New state     28 was old state     27
 New state     29 was old state     28
 New state     30 was old state     29
 New state     31 was old state     30
 New state     32 was old state     31
 New state     33 was old state     32
 New state     34 was old state     33
 New state     35 was old state     34
 New state     36 was old state     35
 New state     37 was old state     36
 New state     38 was old state     37
 New state     40 was old state     38
 New state     41 was old state     40
 New state     42 was old state     41
 New state     43 was old state     42
 New state     47 was old state     53
 New state     48 was old state     47
 New state     49 was old state     48
 Iteration     3 Dimension   400 NMult   300 NNew    100
 New state     21 was old state     22
 New state     22 was old state     21
 Iteration     4 Dimension   468 NMult   400 NNew     68
 Iteration     5 Dimension   474 NMult   468 NNew      6
 ***********************************************************************
 Excited states from <AA,BB:AA,BB> singles matrix:
 ***********************************************************************
 
 Ground to excited state transition densities written to RWF  633
 Ground to excited state transition electric dipole moments (Au):
       state          X           Y           Z        Dip. S.      Osc.
         1         0.4106      0.0151      0.0001      0.1689      0.0254
         2         0.0781      0.0599     -0.0003      0.0097      0.0015
         3         0.0001     -0.0002     -0.0331      0.0011      0.0002
         4         0.5779      0.0384     -0.0001      0.3355      0.0549
         5        -0.0198      0.0749      0.0000      0.0060      0.0010
         6        -0.2706     -0.0184      0.0000      0.0736      0.0125
         7         0.0000      0.0015     -0.0384      0.0015      0.0003
         8        -0.0166      0.4842     -0.0010      0.2347      0.0414
         9         0.0461     -0.6581      0.0015      0.4352      0.0783
        10         0.0002     -0.0030     -0.0224      0.0005      0.0001
        11         0.0425     -0.0411      0.0001      0.0035      0.0006
        12        -0.0245      0.3122     -0.0003      0.0981      0.0182
        13        -0.0927      0.5008     -0.0010      0.2594      0.0485
        14         0.0000     -0.0002     -0.1853      0.0343      0.0066
        15        -0.0005      0.0000      0.0327      0.0011      0.0002
        16         0.0000     -0.0003      0.0500      0.0025      0.0005
        17         0.1890     -0.0275      0.0000      0.0365      0.0072
        18         0.3264     -0.1768      0.0001      0.1378      0.0277
        19         0.0016      0.0261      0.0011      0.0007      0.0001
        20         0.0001     -0.0009      0.0125      0.0002      0.0000
        21        -0.1472      1.4729      0.0003      2.1913      0.4469
        22         0.0070     -0.0685      0.0069      0.0048      0.0010
        23        -0.3579     -0.0288     -0.0001      0.1289      0.0268
        24         0.1421      0.0659     -0.0001      0.0245      0.0051
        25        -0.3709     -0.0769      0.0001      0.1435      0.0305
        26         0.0000      0.0000     -0.0063      0.0000      0.0000
        27        -0.0012     -0.0003     -0.0076      0.0001      0.0000
        28        -0.0196      0.0275      0.0002      0.0011      0.0002
        29        -0.0908     -0.0149     -0.0002      0.0085      0.0019
        30        -0.7068     -0.1137      0.0003      0.5124      0.1143
        31         0.0264      0.1127      0.0003      0.0134      0.0030
        32        -0.0683     -0.0071     -0.0001      0.0047      0.0011
        33        -0.0014      0.0013     -0.0565      0.0032      0.0007
        34        -0.0681      0.0891      0.0009      0.0126      0.0028
        35         0.0028     -0.0035      0.0917      0.0084      0.0019
        36         0.1304     -0.1437     -0.0007      0.0377      0.0086
        37        -0.0002      0.0009      0.4730      0.2237      0.0512
        38        -0.0092      0.3432      0.0003      0.1178      0.0270
        39         0.0371     -0.2350      0.0011      0.0566      0.0130
        40         0.0012     -0.0039     -0.0280      0.0008      0.0002
        41         0.0000     -0.0001     -0.0542      0.0029      0.0007
        42        -0.2154     -0.0178     -0.0024      0.0467      0.0109
        43        -0.0033     -0.0001      0.1434      0.0206      0.0048
        44         0.0005      0.0256      0.0003      0.0007      0.0002
        45         0.0001     -0.0004     -0.0177      0.0003      0.0001
        46         0.0350     -0.1980      0.0003      0.0404      0.0097
        47         0.0565     -0.2033     -0.0001      0.0445      0.0108
        48        -0.0054      0.0001      0.1910      0.0365      0.0089
        49         0.1084     -0.0108      0.0131      0.0120      0.0029
        50         0.3876      0.0979     -0.0009      0.1598      0.0392
 Ground to excited state transition velocity dipole moments (Au):
       state          X           Y           Z        Dip. S.      Osc.
         1        -0.0913     -0.0034      0.0000      0.0084      0.0247
         2        -0.0174     -0.0134      0.0001      0.0005      0.0014
         3         0.0000      0.0000      0.0075      0.0001      0.0002
         4        -0.1428     -0.0095      0.0000      0.0205      0.0557
         5         0.0049     -0.0189      0.0000      0.0004      0.0010
         6         0.0684      0.0046      0.0000      0.0047      0.0123
         7         0.0000     -0.0004      0.0101      0.0001      0.0003
         8         0.0043     -0.1278      0.0003      0.0163      0.0412
         9        -0.0124      0.1776     -0.0004      0.0317      0.0783
        10        -0.0001      0.0008      0.0057      0.0000      0.0001
        11        -0.0125      0.0111      0.0000      0.0003      0.0007
        12         0.0067     -0.0864      0.0001      0.0075      0.0180
        13         0.0260     -0.1402      0.0003      0.0203      0.0483
        14         0.0000      0.0001      0.0533      0.0028      0.0065
        15         0.0001      0.0000     -0.0095      0.0001      0.0002
        16         0.0000      0.0001     -0.0144      0.0002      0.0005
        17        -0.0546      0.0082      0.0000      0.0030      0.0069
        18        -0.0992      0.0532      0.0000      0.0127      0.0280
        19        -0.0005     -0.0078     -0.0003      0.0001      0.0001
        20         0.0000      0.0003     -0.0037      0.0000      0.0000
        21         0.0449     -0.4487     -0.0002      0.2033      0.4431
        22        -0.0021      0.0209     -0.0033      0.0005      0.0010
        23         0.1107      0.0088      0.0000      0.0123      0.0264
        24        -0.0449     -0.0208      0.0000      0.0024      0.0052
        25         0.1213      0.0247      0.0000      0.0153      0.0320
        26         0.0000      0.0000      0.0021      0.0000      0.0000
        27         0.0004      0.0001      0.0024      0.0000      0.0000
        28         0.0048     -0.0087     -0.0001      0.0001      0.0002
        29         0.0277      0.0044      0.0001      0.0008      0.0016
        30         0.2366      0.0380     -0.0001      0.0574      0.1144
        31        -0.0092     -0.0364     -0.0001      0.0014      0.0028
        32         0.0228      0.0021      0.0000      0.0005      0.0010
        33         0.0005     -0.0004      0.0185      0.0003      0.0007
        34         0.0232     -0.0285     -0.0003      0.0014      0.0027
        35        -0.0010      0.0012     -0.0303      0.0009      0.0018
        36        -0.0437      0.0492      0.0002      0.0043      0.0084
        37         0.0001     -0.0003     -0.1629      0.0265      0.0515
        38         0.0035     -0.1173     -0.0001      0.0138      0.0267
        39        -0.0128      0.0812     -0.0004      0.0068      0.0131
        40        -0.0004      0.0013      0.0098      0.0001      0.0002
        41         0.0000      0.0000      0.0189      0.0004      0.0007
        42         0.0785      0.0065      0.0008      0.0062      0.0118
        43         0.0012      0.0000     -0.0508      0.0026      0.0049
        44        -0.0003     -0.0088     -0.0001      0.0001      0.0001
        45         0.0000      0.0002      0.0064      0.0000      0.0001
        46        -0.0123      0.0706     -0.0001      0.0051      0.0096
        47        -0.0201      0.0740      0.0000      0.0059      0.0108
        48         0.0019      0.0000     -0.0698      0.0049      0.0089
        49        -0.0384      0.0041     -0.0048      0.0015      0.0028
        50        -0.1394     -0.0357      0.0003      0.0207      0.0375
 Ground to excited state transition magnetic dipole moments (Au):
       state          X           Y           Z
         1         0.0000      0.0002     -0.0153
         2         0.0001     -0.0008      0.0192
         3         0.0824     -0.7459      0.0000
         4        -0.0001      0.0001      0.0233
         5         0.0000     -0.0001     -0.3711
         6         0.0000      0.0001      0.0677
         7        -0.0322      0.3391      0.0035
         8         0.0000      0.0008      1.3584
         9         0.0001     -0.0020     -1.2935
        10         0.0094     -0.0245     -0.0061
        11         0.0000     -0.0002     -0.1570
        12         0.0000      0.0006      0.0462
        13        -0.0001      0.0016      1.0110
        14         0.0211     -0.0361     -0.0011
        15        -0.0188      0.0386      0.0001
        16         0.1485     -1.4606      0.0027
        17         0.0000      0.0000      0.0066
        18         0.0000     -0.0002     -0.0397
        19         0.0001     -0.0018     -1.0307
        20         0.0044     -0.0372      0.0005
        21        -0.0005      0.0060     -0.3777
        22        -0.0102      0.1056      0.0194
        23        -0.0001      0.0002      0.0306
        24         0.0000      0.0003      0.1058
        25         0.0001     -0.0003     -0.0671
        26        -0.7007     -0.0734      0.0002
        27        -0.0099      0.0105      0.0003
        28        -0.0001     -0.0003     -0.5277
        29        -0.0001      0.0003      0.3133
        30         0.0000     -0.0006     -0.1353
        31         0.0000     -0.0008      0.0661
        32         0.0000      0.0001      0.0670
        33        -0.0033      0.0689     -0.0030
        34         0.0000     -0.0008     -0.1968
        35         0.0057     -0.0932     -0.0052
        36        -0.0002     -0.0006     -0.2559
        37        -0.0275     -0.9219      0.0018
        38        -0.0002     -0.0002      0.5356
        39        -0.0005     -0.0025     -0.5781
        40         0.0252      0.0831     -0.0105
        41        -0.4153      0.0798     -0.0001
        42        -0.0005      0.0073      0.0759
        43         0.0302     -0.4357     -0.0029
        44         0.0001      0.0022      1.7557
        45         0.0136     -0.0776     -0.0010
        46         0.0000     -0.0012     -0.5068
        47         0.0000      0.0001     -0.1057
        48         0.0199     -0.3340      0.0025
        49         0.0014     -0.0226     -0.0363
        50        -0.0002      0.0015      0.0654
 Ground to excited state transition velocity quadrupole moments (Au):
       state          XX          YY          ZZ          XY          XZ          YZ
         1         0.1459     -0.0013     -0.0045     -0.0791      0.0001      0.0000
         2        -0.0023      0.0267      0.0020      0.2236     -0.0003      0.0000
         3         0.0000      0.0000      0.0000     -0.0003     -0.0133     -0.0001
         4         1.6525     -0.0420     -0.0357      0.1109     -0.0001     -0.0001
         5         0.0153     -0.0113     -0.0057     -0.0299      0.0001      0.0000
         6         0.0009     -0.0815     -0.0561      0.0379      0.0000      0.0000
         7         0.0000      0.0002     -0.0001      0.0024      0.1711      0.0208
         8        -0.0499      0.0626      0.0078      0.8251     -0.0020     -0.0001
         9         0.2646     -0.1759     -0.0031     -1.5026      0.0021      0.0001
        10         0.0014     -0.0007     -0.0001     -0.0064      0.0810      0.0110
        11         0.5825      0.0738      0.0791     -0.0613      0.0001      0.0000
        12        -0.0941      0.0259     -0.0081      0.3217     -0.0006      0.0000
        13        -0.2438      0.0899      0.0032      0.8897     -0.0018     -0.0001
        14         0.0004     -0.0002      0.0001     -0.0018     -0.4382     -0.0406
        15        -0.0001     -0.0001      0.0001      0.0003      0.0834     -0.0456
        16        -0.0001      0.0000      0.0001     -0.0001     -0.1414     -0.0179
        17        -0.1070      0.1563      0.1017     -0.0208      0.0000      0.0000
        18         0.0873      0.0076     -0.0480     -0.0423      0.0003     -0.0002
        19         0.3128     -0.0982      0.0010     -1.0527      0.0013      0.0000
        20        -0.0005      0.0000      0.0000      0.0004      0.0286      0.0036
        21        -0.0370     -0.0287     -0.0019     -0.3184     -0.0064     -0.0005
        22         0.0014      0.0015      0.0001      0.0167     -0.1089     -0.0102
        23        -1.2759     -0.0042     -0.0523     -0.0608      0.0000     -0.0001
        24         1.2052      0.0400      0.0201      0.1903     -0.0003      0.0000
        25        -0.1313      0.0522      0.0273     -0.0628      0.0002      0.0001
        26        -0.0001     -0.0021      0.0022      0.0000      0.0457     -0.5988
        27        -0.0040      0.0003      0.0002     -0.0003     -0.0059     -0.0183
        28         0.3459     -0.0431     -0.0215     -0.2164      0.0004     -0.0001
        29         0.3165      0.0039     -0.0265      0.1654     -0.0003     -0.0001
        30        -2.3761     -0.0572      0.0524     -0.2572      0.0006      0.0000
        31         0.1971     -0.0072     -0.0056     -0.1281      0.0006      0.0001
        32         0.1908      0.0281     -0.0414      0.0113      0.0000     -0.0001
        33        -0.0034      0.0006     -0.0001      0.0017     -0.1927     -0.0150
        34        -0.1792      0.0467     -0.0061      0.1726      0.0028      0.0001
        35         0.0102     -0.0036     -0.0001     -0.0099      0.1653     -0.0035
        36         0.4347     -0.1787      0.0012     -0.3418     -0.0008     -0.0003
        37        -0.0005      0.0003      0.0001      0.0016      0.9906     -0.0047
        38        -0.0741      0.0022      0.0079      0.7408      0.0004     -0.0007
        39         0.0833     -0.0304      0.0009     -0.1862      0.0020     -0.0034
        40         0.0046     -0.0019      0.0001     -0.0020     -0.0532      0.1691
        41         0.0002     -0.0014      0.0013     -0.0001     -0.0764     -0.3623
        42        -1.2235      0.1314     -0.0377     -0.1106     -0.0027      0.0003
        43        -0.0192      0.0023     -0.0005      0.0002      0.1574      0.0189
        44         0.1338     -0.0943      0.0051     -0.3572      0.0008      0.0002
        45         0.0002     -0.0001      0.0000     -0.0006     -0.0525     -0.0125
        46         0.0556     -0.0232      0.0021     -0.0734      0.0010      0.0000
        47         0.0632     -0.0201      0.0048     -0.4863      0.0008      0.0000
        48         0.0074      0.0013     -0.0002     -0.0190      0.2863      0.0191
        49        -0.1106     -0.0202      0.0019      0.2286      0.0191      0.0013
        50        -0.0891     -0.0099     -0.0157      0.0504     -0.0013     -0.0003
 <0|del|b> * <b|rxdel|0> + <0|del|b> * <b|delr+rdel|0>
 Rotatory Strengths (R) in cgs (10**-40 erg-esu-cm/Gauss)
       state          XX          YY          ZZ    R(velocity)    E-M Angle
         1         0.0016      0.0015      0.0006      0.0012       90.00
         2         0.0311     -0.0210      0.0194      0.0098       90.00
         3        -0.0551      0.0016     -0.0562     -0.0366       90.00
         4         0.0012      0.0223      0.0015      0.0083       90.00
         5         0.0097      0.0035      0.0009      0.0047       90.00
         6         0.0009     -0.0012      0.0006      0.0001       90.00
         7        -0.0094      0.0150     -0.2702     -0.0882       90.00
         8         0.3185      0.1917      0.2086      0.2396       89.91
         9         0.5264     -0.1136      0.0163      0.1430       89.96
        10        -0.2051      0.0007      0.0600     -0.0481       90.00
        11         0.0047      0.0032     -0.0015      0.0022       90.00
        12        -0.0946     -0.0283      0.0022     -0.0402       90.00
        13         0.0627      0.0373      0.0305      0.0435       90.00
        14        -0.1588      0.0434     -0.0328     -0.0494       90.00
        15        -0.0040     -0.0085      0.0032     -0.0031       90.00
        16        -0.1801     -0.0496     -0.1628     -0.1308       90.44
        17        -0.0006      0.0027     -0.0013      0.0003       90.00
        18        -0.0307      0.0248     -0.0135     -0.0064       90.00
        19         0.8667     -0.0089      0.0043      0.2873       87.36
        20        -0.0247     -0.0005     -0.0028     -0.0093       90.00
        21        -6.3054     -0.0438      0.2342     -2.0384       90.89
        22         5.0373      0.0394     -0.0791      1.6659       19.37
        23         0.0015     -0.0152      0.0036     -0.0034       90.00
        24         0.0000     -0.0021      0.0036      0.0005       90.00
        25        -0.0061      0.0257     -0.0101      0.0032       90.00
        26        -0.0011     -0.0182     -0.0018     -0.0070       90.00
        27         0.0020     -0.0109      0.0042     -0.0016       90.00
        28         0.0721      0.0268     -0.0006      0.0328       90.00
        29         0.0372      0.0045      0.0013      0.0143       90.00
        30        -0.0127     -0.0186      0.0161     -0.0051       90.00
        31         0.0576     -0.0212      0.0067      0.0144       90.00
        32         0.0027      0.0004      0.0016      0.0016       90.00
        33        -0.1407     -0.1006      0.0608     -0.0601       90.00
        34         0.1142      0.1122     -0.0606      0.0553       90.00
        35         0.1534     -0.1492      0.0802      0.0281       90.00
        36        -0.1111      0.0424     -0.0782     -0.0490       90.00
        37         0.0631     -0.0393     -0.0240     -0.0001       90.00
        38        -0.0358      0.0142     -0.0164     -0.0127       90.00
        39        -0.0913      0.1949     -0.0829      0.0069       90.00
        40         0.0611     -0.1722      0.1049     -0.0020       90.00
        41         0.0008      0.0051      0.0005      0.0021       90.00
        42         0.0360      0.1422     -0.0263      0.0506       90.00
        43         0.1273      0.2204      0.0076      0.1184       89.55
        44        -0.1657     -0.2312     -0.0269     -0.1412       90.78
        45        -0.0138     -0.0022     -0.0206     -0.0122       90.00
        46        -0.0911      0.0449     -0.0162     -0.0208       90.00
        47        -0.0729      0.0133      0.0621      0.0008       90.00
        48         1.1325     -1.3809      0.0029     -0.0818       90.31
        49        -1.0525      1.1221     -0.0165      0.0177       90.00
        50        -0.0577      0.0696     -0.0291     -0.0057       90.00
 1/2[<0|r|b>*<b|rxdel|0> + (<0|rxdel|b>*<b|r|0>)*]
 Rotatory Strengths (R) in cgs (10**-40 erg-esu-cm/Gauss)
       state          XX          YY          ZZ     R(length)
         1         0.0055     -0.0024      0.0007      0.0013
         2        -0.0072      0.0340      0.0034      0.0101
         3        -0.0038     -0.1108      0.0008     -0.0380
         4         0.0259     -0.0025      0.0015      0.0083
         5         0.0001      0.0068      0.0061      0.0043
         6        -0.0010      0.0007      0.0006      0.0001
         7        -0.0002     -0.3594      0.0950     -0.0882
         8         0.0002     -0.2601      0.9632      0.2344
         9        -0.0018     -0.9362      1.3738      0.1453
        10        -0.0015     -0.0520     -0.0965     -0.0500
        11         0.0000     -0.0058      0.0129      0.0024
        12        -0.0006     -0.1299      0.0097     -0.0402
        13        -0.0051     -0.5838      0.7126      0.0412
        14         0.0005     -0.0049     -0.1446     -0.0497
        15        -0.0061     -0.0006     -0.0025     -0.0031
        16        -0.0017     -0.2739     -0.0971     -0.1242
        17         0.0010     -0.0002      0.0000      0.0003
        18         0.0096     -0.0312      0.0023     -0.0064
        19        -0.0001      0.0326      0.8161      0.2829
        20        -0.0003     -0.0238     -0.0042     -0.0094
        21        -0.0551     -6.2329      0.0904     -2.0659
        22         0.0501      5.1185     -0.0945      1.6914
        23        -0.0156      0.0038      0.0016     -0.0034
        24         0.0037     -0.0123      0.0100      0.0005
        25         0.0165     -0.0142      0.0070      0.0031
        26        -0.0192     -0.0018      0.0007     -0.0067
        27        -0.0082      0.0024      0.0017     -0.0014
        28        -0.0009      0.0052      0.0846      0.0296
        29        -0.0052      0.0029      0.0428      0.0135
        30         0.0073     -0.0472      0.0258     -0.0047
        31        -0.0007      0.0598     -0.0148      0.0148
        32         0.0001      0.0005      0.0039      0.0015
        33        -0.0034     -0.0655     -0.1200     -0.0630
        34        -0.0001      0.0525      0.1206      0.0576
        35        -0.0113     -0.2308      0.3375      0.0318
        36         0.0177     -0.0568     -0.1216     -0.0536
        37        -0.0037      0.5969     -0.5976     -0.0015
        38        -0.0012      0.0553     -0.0985     -0.0148
        39         0.0133     -0.4171      0.4312      0.0091
        40        -0.0220      0.2266     -0.2082     -0.0012
        41         0.0060      0.0054     -0.0049      0.0022
        42        -0.0686      0.0914      0.1270      0.0499
        43         0.0697     -0.0209      0.2981      0.1156
        44         0.0000     -0.0406     -0.3591     -0.1332
        45        -0.0006     -0.0238     -0.0120     -0.0121
        46        -0.0008     -0.1696      0.1103     -0.0201
        47         0.0004      0.0097     -0.0079      0.0007
        48         0.0757      0.0231     -0.3391     -0.0801
        49        -0.1062     -0.1718      0.3351      0.0190
        50         0.0438     -0.1018      0.0413     -0.0056
  1/2[<0|del|b>*<b|r|0> + (<0|r|b>*<b|del|0>)*] (Au)
       state          X           Y           Z        Dip. S.   Osc.(frdel)
         1        -0.0375     -0.0001      0.0000      0.0376      0.0250
         2        -0.0014     -0.0008      0.0000      0.0022      0.0014
         3         0.0000      0.0000     -0.0002      0.0002      0.0002
         4        -0.0825     -0.0004      0.0000      0.0829      0.0553
         5        -0.0001     -0.0014      0.0000      0.0015      0.0010
         6        -0.0185     -0.0001      0.0000      0.0186      0.0124
         7         0.0000      0.0000     -0.0004      0.0004      0.0003
         8        -0.0001     -0.0619      0.0000      0.0619      0.0413
         9        -0.0006     -0.1169      0.0000      0.1175      0.0783
        10         0.0000      0.0000     -0.0001      0.0001      0.0001
        11        -0.0005     -0.0005      0.0000      0.0010      0.0007
        12        -0.0002     -0.0270      0.0000      0.0271      0.0181
        13        -0.0024     -0.0702      0.0000      0.0726      0.0484
        14         0.0000      0.0000     -0.0099      0.0099      0.0066
        15         0.0000      0.0000     -0.0003      0.0003      0.0002
        16         0.0000      0.0000     -0.0007      0.0007      0.0005
        17        -0.0103     -0.0002      0.0000      0.0105      0.0070
        18        -0.0324     -0.0094      0.0000      0.0418      0.0279
        19         0.0000     -0.0002      0.0000      0.0002      0.0001
        20         0.0000      0.0000      0.0000      0.0000      0.0000
        21        -0.0066     -0.6609      0.0000      0.6675      0.4450
        22         0.0000     -0.0014      0.0000      0.0015      0.0010
        23        -0.0396     -0.0003      0.0000      0.0399      0.0266
        24        -0.0064     -0.0014      0.0000      0.0077      0.0052
        25        -0.0450     -0.0019      0.0000      0.0469      0.0313
        26         0.0000      0.0000      0.0000      0.0000      0.0000
        27         0.0000      0.0000      0.0000      0.0000      0.0000
        28        -0.0001     -0.0002      0.0000      0.0003      0.0002
        29        -0.0025     -0.0001      0.0000      0.0026      0.0017
        30        -0.1672     -0.0043      0.0000      0.1715      0.1143
        31        -0.0002     -0.0041      0.0000      0.0044      0.0029
        32        -0.0016      0.0000      0.0000      0.0016      0.0010
        33         0.0000      0.0000     -0.0010      0.0010      0.0007
        34        -0.0016     -0.0025      0.0000      0.0041      0.0027
        35         0.0000      0.0000     -0.0028      0.0028      0.0019
        36        -0.0057     -0.0071      0.0000      0.0128      0.0085
        37         0.0000      0.0000     -0.0770      0.0770      0.0514
        38         0.0000     -0.0402      0.0000      0.0403      0.0268
        39        -0.0005     -0.0191      0.0000      0.0196      0.0130
        40         0.0000      0.0000     -0.0003      0.0003      0.0002
        41         0.0000      0.0000     -0.0010      0.0010      0.0007
        42        -0.0169     -0.0001      0.0000      0.0170      0.0113
        43         0.0000      0.0000     -0.0073      0.0073      0.0049
        44         0.0000     -0.0002      0.0000      0.0002      0.0002
        45         0.0000      0.0000     -0.0001      0.0001      0.0001
        46        -0.0004     -0.0140      0.0000      0.0144      0.0096
        47        -0.0011     -0.0150      0.0000      0.0162      0.0108
        48         0.0000      0.0000     -0.0133      0.0133      0.0089
        49        -0.0042      0.0000     -0.0001      0.0043      0.0028
        50        -0.0540     -0.0035      0.0000      0.0575      0.0383

 Excitation energies and oscillator strengths:
 
 Excited State   1:      Singlet-A      6.1404 eV  201.91 nm  f=0.0254  <S**2>=0.000
      32 -> 33        -0.29434
      32 -> 34         0.60881
      32 -> 37        -0.17130
 This state for optimization and/or second-order correction.
 Total Energy, E(TD-HF/TD-KS) =  -554.110320380    
 Copying the excited state density for this state as the 1-particle RhoCI density.
 
 Excited State   2:      Singlet-A      6.2185 eV  199.38 nm  f=0.0015  <S**2>=0.000
      31 -> 33        -0.10767
      32 -> 33         0.62601
      32 -> 34         0.28975
 
 Excited State   3:      Singlet-A      6.4828 eV  191.25 nm  f=0.0002  <S**2>=0.000
      32 -> 36         0.56593
      32 -> 39         0.37051
      32 -> 46        -0.16496
 
 Excited State   4:      Singlet-A      6.6768 eV  185.69 nm  f=0.0549  <S**2>=0.000
      31 -> 34         0.64306
      31 -> 37         0.13905
      32 -> 37         0.21248
 
 Excited State   5:      Singlet-A      6.9041 eV  179.58 nm  f=0.0010  <S**2>=0.000
      32 -> 35         0.67801
      32 -> 40         0.13263
 
 Excited State   6:      Singlet-A      6.9550 eV  178.27 nm  f=0.0125  <S**2>=0.000
      31 -> 34        -0.21992
      32 -> 34         0.17727
      32 -> 37         0.63508
 
 Excited State   7:      Singlet-A      7.1840 eV  172.58 nm  f=0.0003  <S**2>=0.000
      31 -> 36         0.55173
      32 -> 36         0.28307
      32 -> 39        -0.30770
 
 Excited State   8:      Singlet-A      7.1994 eV  172.22 nm  f=0.0414  <S**2>=0.000
      31 -> 33         0.43053
      31 -> 35         0.49950
      31 -> 38        -0.15307
      32 -> 38        -0.12157
 
 Excited State   9:      Singlet-A      7.3479 eV  168.74 nm  f=0.0783  <S**2>=0.000
      31 -> 33        -0.42790
      31 -> 35         0.43951
      31 -> 37        -0.11255
      31 -> 38         0.14998
      31 -> 40        -0.16071
      32 -> 40        -0.18963
 
 Excited State  10:      Singlet-A      7.3804 eV  167.99 nm  f=0.0001  <S**2>=0.000
      31 -> 36         0.41617
      32 -> 36        -0.30480
      32 -> 39         0.45141
      32 -> 46        -0.12592
 
 Excited State  11:      Singlet-A      7.4226 eV  167.04 nm  f=0.0006  <S**2>=0.000
      31 -> 34        -0.15978
      31 -> 35         0.11236
      31 -> 37         0.66910
 
 Excited State  12:      Singlet-A      7.5556 eV  164.10 nm  f=0.0182  <S**2>=0.000
      31 -> 33         0.10463
      31 -> 35         0.13205
      31 -> 38         0.35347
      32 -> 38         0.27885
      32 -> 40         0.50098
 
 Excited State  13:      Singlet-A      7.6279 eV  162.54 nm  f=0.0485  <S**2>=0.000
      31 -> 33         0.21575
      31 -> 38         0.52187
      31 -> 40         0.10884
      32 -> 40        -0.38099
 
 Excited State  14:      Singlet-A      7.8872 eV  157.20 nm  f=0.0066  <S**2>=0.000
      30 -> 33         0.21320
      31 -> 36         0.10316
      31 -> 39         0.63528
      32 -> 41         0.11298
 
 Excited State  15:      Singlet-A      7.9099 eV  156.75 nm  f=0.0002  <S**2>=0.000
      31 -> 39        -0.10422
      32 -> 41         0.68921
 
 Excited State  16:      Singlet-A      7.9695 eV  155.57 nm  f=0.0005  <S**2>=0.000
      30 -> 33         0.65790
      31 -> 39        -0.22133
 
 Excited State  17:      Singlet-A      8.0489 eV  154.04 nm  f=0.0072  <S**2>=0.000
      32 -> 42         0.67894
      32 -> 44         0.12040
 
 Excited State  18:      Singlet-A      8.2029 eV  151.15 nm  f=0.0277  <S**2>=0.000
      32 -> 43         0.66716
      32 -> 44        -0.12430
 
 Excited State  19:      Singlet-A      8.2517 eV  150.25 nm  f=0.0001  <S**2>=0.000
      31 -> 33        -0.10635
      31 -> 40         0.64307
      32 -> 38         0.19200
 
 Excited State  20:      Singlet-A      8.2764 eV  149.80 nm  f=0.0000  <S**2>=0.000
      31 -> 41         0.69714
 
 Excited State  21:      Singlet-A      8.3242 eV  148.94 nm  f=0.4469  <S**2>=0.000
      31 -> 33         0.13616
      31 -> 38        -0.21251
      31 -> 40        -0.15792
      32 -> 38         0.57960
      32 -> 40        -0.19513
      32 -> 43         0.11514
 
 Excited State  22:      Singlet-A      8.3290 eV  148.86 nm  f=0.0010  <S**2>=0.000
      31 -> 39        -0.11479
      32 -> 39         0.22255
      32 -> 45         0.17724
      32 -> 46         0.60837
      32 -> 51        -0.13114
 
 Excited State  23:      Singlet-A      8.4865 eV  146.10 nm  f=0.0268  <S**2>=0.000
      31 -> 42        -0.39286
      31 -> 43         0.44850
      31 -> 44         0.14058
      32 -> 44         0.32411
 
 Excited State  24:      Singlet-A      8.5337 eV  145.29 nm  f=0.0051  <S**2>=0.000
      31 -> 42         0.52148
      31 -> 43         0.42616
      32 -> 47         0.11473
 
 Excited State  25:      Singlet-A      8.6811 eV  142.82 nm  f=0.0305  <S**2>=0.000
      31 -> 42         0.17957
      31 -> 43        -0.27210
      32 -> 43         0.14891
      32 -> 44         0.59122
 
 Excited State  26:      Singlet-A      8.7610 eV  141.52 nm  f=0.0000  <S**2>=0.000
      30 -> 34         0.68164
      30 -> 37         0.15162
 
 Excited State  27:      Singlet-A      8.8206 eV  140.56 nm  f=0.0000  <S**2>=0.000
      32 -> 45         0.67170
      32 -> 46        -0.18892
 
 Excited State  28:      Singlet-A      8.8696 eV  139.78 nm  f=0.0002  <S**2>=0.000
      32 -> 47         0.60947
      32 -> 48        -0.17201
      32 -> 52         0.27679
 
 Excited State  29:      Singlet-A      8.9381 eV  138.71 nm  f=0.0019  <S**2>=0.000
      31 -> 42        -0.10516
      32 -> 47         0.24154
      32 -> 48         0.61332
      32 -> 52        -0.18700
 
 Excited State  30:      Singlet-A      9.1063 eV  136.15 nm  f=0.1143  <S**2>=0.000
      31 -> 43        -0.11950
      31 -> 44         0.66386
      32 -> 49         0.14784
 
 Excited State  31:      Singlet-A      9.1397 eV  135.65 nm  f=0.0030  <S**2>=0.000
      32 -> 47         0.14452
      32 -> 48        -0.18644
      32 -> 50         0.50299
      32 -> 52        -0.40203
 
 Excited State  32:      Singlet-A      9.1573 eV  135.39 nm  f=0.0011  <S**2>=0.000
      31 -> 44        -0.13091
      32 -> 49         0.66688
      32 -> 56        -0.10404
 
 Excited State  33:      Singlet-A      9.2221 eV  134.44 nm  f=0.0007  <S**2>=0.000
      31 -> 45         0.12925
      31 -> 46         0.44093
      31 -> 51         0.19324
      32 -> 46         0.15555
      32 -> 51         0.46139
 
 Excited State  34:      Singlet-A      9.2418 eV  134.16 nm  f=0.0028  <S**2>=0.000
      31 -> 47        -0.22024
      31 -> 48         0.23793
      32 -> 47        -0.13039
      32 -> 48         0.15449
      32 -> 50         0.44660
      32 -> 52         0.37345
 
 Excited State  35:      Singlet-A      9.3198 eV  133.03 nm  f=0.0019  <S**2>=0.000
      31 -> 45        -0.19148
      31 -> 46        -0.46745
      32 -> 51         0.46818
 
 Excited State  36:      Singlet-A      9.3275 eV  132.92 nm  f=0.0086  <S**2>=0.000
      30 -> 36         0.15868
      31 -> 47         0.60297
      31 -> 48         0.16461
      31 -> 49         0.15723
      32 -> 52         0.13659
 
 Excited State  37:      Singlet-A      9.3378 eV  132.78 nm  f=0.0512  <S**2>=0.000
      30 -> 35         0.68062
 
 Excited State  38:      Singlet-A      9.3535 eV  132.55 nm  f=0.0270  <S**2>=0.000
      30 -> 36        -0.42828
      31 -> 48         0.49573
      32 -> 52        -0.16071
 
 Excited State  39:      Singlet-A      9.3956 eV  131.96 nm  f=0.0130  <S**2>=0.000
      30 -> 36         0.50896
      31 -> 47        -0.17441
      31 -> 48         0.36209
      31 -> 50         0.14086
      32 -> 50        -0.12528
      32 -> 52        -0.14010
 
 Excited State  40:      Singlet-A      9.3985 eV  131.92 nm  f=0.0002  <S**2>=0.000
      31 -> 45         0.66202
      31 -> 46        -0.22683
 
 Excited State  41:      Singlet-A      9.4710 eV  130.91 nm  f=0.0007  <S**2>=0.000
      30 -> 34        -0.15233
      30 -> 37         0.67920
 
 Excited State  42:      Singlet-A      9.5266 eV  130.15 nm  f=0.0109  <S**2>=0.000
      31 -> 47        -0.14458
      31 -> 48        -0.10614
      31 -> 49         0.65702
      31 -> 50         0.10608
 
 Excited State  43:      Singlet-A      9.5311 eV  130.08 nm  f=0.0048  <S**2>=0.000
      31 -> 46        -0.11905
      31 -> 51         0.66143
      32 -> 51        -0.14585
 
 Excited State  44:      Singlet-A      9.5593 eV  129.70 nm  f=0.0002  <S**2>=0.000
      29 -> 33         0.67761
 
 Excited State  45:      Singlet-A      9.7040 eV  127.77 nm  f=0.0001  <S**2>=0.000
      30 -> 38         0.69759
 
 Excited State  46:      Singlet-A      9.7637 eV  126.98 nm  f=0.0097  <S**2>=0.000
      31 -> 50         0.59689
      31 -> 52        -0.30336
 
 Excited State  47:      Singlet-A      9.8800 eV  125.49 nm  f=0.0108  <S**2>=0.000
      31 -> 50         0.24056
      31 -> 52         0.61026
      32 -> 53         0.16013
 
 Excited State  48:      Singlet-A      9.9318 eV  124.84 nm  f=0.0089  <S**2>=0.000
      32 -> 51        -0.11053
      32 -> 54         0.65962
      32 -> 55         0.18571
 
 Excited State  49:      Singlet-A      9.9604 eV  124.48 nm  f=0.0029  <S**2>=0.000
      31 -> 50        -0.16783
      31 -> 52        -0.11126
      32 -> 53         0.64879
      32 -> 56         0.13438
 
 Excited State  50:      Singlet-A     10.0217 eV  123.72 nm  f=0.0392  <S**2>=0.000
      30 -> 39         0.10384
      32 -> 49         0.11035
      32 -> 53        -0.13267
      32 -> 56         0.66309
 SavETr:  write IOETrn=   770 NScale= 10 NData=  16 NLR=1 NState=   50 LETran=     910.

 **********************************************************************

            Population analysis using the SCF density.

 **********************************************************************

 Orbital symmetries:
       Occupied  (A) (A) (A) (A) (A) (A) (A) (A) (A) (A) (A) (A)
                 (A) (A) (A) (A) (A) (A) (A) (A) (A) (A) (A) (A)
                 (A) (A) (A) (A) (A) (A) (A) (A)
       Virtual   (A) (A) (A) (A) (A) (A) (A) (A) (A) (A) (A) (A)
                 (A) (A) (A) (A) (A) (A) (A) (A) (A) (A) (A) (A)
                 (A) (A) (A) (A) (A) (A) (A) (A) (A) (A) (A) (A)
                 (A) (A) (A) (A) (A) (A) (A) (A) (A) (A) (A) (A)
                 (A) (A) (A) (A) (A) (A) (A) (A) (A) (A) (A) (A)
                 (A) (A) (A) (A) (A) (A) (A) (A) (A) (A) (A) (A)
                 (A) (A) (A) (A) (A) (A) (A) (A) (A) (A) (A) (A)
                 (A) (A) (A) (A) (A) (A) (A) (A) (A) (A) (A) (A)
                 (A) (A) (A) (A) (A) (A) (A) (A) (A) (A) (A) (A)
                 (A) (A) (A) (A) (A) (A) (A) (A) (A) (A) (A) (A)
                 (A) (A) (A) (A) (A) (A) (A) (A) (A) (A) (A) (A)
                 (A) (A) (A) (A) (A) (A) (A) (A) (A) (A) (A) (A)
                 (A) (A) (A) (A) (A) (A) (A) (A) (A) (A) (A) (A)
                 (A) (A) (A) (A) (A) (A) (A) (A) (A) (A) (A) (A)
                 (A) (A) (A) (A) (A) (A) (A) (A) (A) (A) (A) (A)
                 (A) (A) (A) (A) (A) (A) (A) (A) (A) (A) (A) (A)
                 (A) (A) (A) (A) (A) (A) (A) (A) (A) (A) (A) (A)
                 (A) (A) (A) (A) (A) (A) (A) (A) (A) (A) (A) (A)
                 (A) (A) (A) (A) (A) (A) (A) (A) (A) (A) (A) (A)
                 (A) (A) (A) (A) (A) (A) (A) (A) (A) (A) (A) (A)
                 (A) (A) (A) (A) (A) (A) (A) (A) (A) (A) (A) (A)
                 (A) (A) (A) (A) (A) (A) (A) (A) (A) (A) (A) (A)
                 (A) (A) (A) (A) (A) (A) (A) (A) (A) (A) (A) (A)
                 (A) (A) (A) (A) (A) (A) (A) (A) (A) (A) (A) (A)
                 (A) (A) (A) (A) (A) (A) (A) (A) (A) (A) (A) (A)
                 (A) (A) (A) (A) (A) (A) (A) (A) (A) (A) (A) (A)
                 (A) (A) (A) (A) (A) (A) (A) (A) (A) (A) (A) (A)
                 (A) (A) (A) (A) (A) (A) (A) (A) (A) (A) (A) (A)
                 (A) (A) (A) (A) (A) (A) (A) (A) (A) (A) (A) (A)
                 (A) (A) (A) (A) (A) (A) (A) (A) (A) (A) (A) (A)
                 (A) (A) (A) (A) (A) (A) (A) (A) (A) (A) (A) (A)
                 (A) (A) (A) (A) (A) (A) (A) (A) (A) (A) (A) (A)
                 (A) (A) (A) (A) (A) (A) (A) (A) (A) (A) (A) (A)
                 (A) (A) (A) (A) (A) (A) (A) (A) (A) (A) (A) (A)
                 (A) (A) (A) (A) (A) (A) (A) (A) (A) (A) (A) (A)
                 (A) (A) (A) (A) (A) (A) (A) (A)
 The electronic state is 1-A.
 Alpha  occ. eigenvalues --  -24.75101 -24.75100 -24.75088 -24.75086 -10.36760
 Alpha  occ. eigenvalues --  -10.36661 -10.18059 -10.17960  -1.32331  -1.30949
 Alpha  occ. eigenvalues --   -1.26695  -1.25625  -0.82034  -0.77173  -0.67816
 Alpha  occ. eigenvalues --   -0.63483  -0.62709  -0.58921  -0.58358  -0.57188
 Alpha  occ. eigenvalues --   -0.52925  -0.50254  -0.48105  -0.47915  -0.47437
 Alpha  occ. eigenvalues --   -0.47037  -0.46580  -0.45081  -0.43191  -0.36446
 Alpha  occ. eigenvalues --   -0.28813  -0.27139
 Alpha virt. eigenvalues --   -0.01729  -0.01289   0.00603   0.00712   0.00828
 Alpha virt. eigenvalues --    0.01695   0.02851   0.03248   0.03914   0.05129
 Alpha virt. eigenvalues --    0.05622   0.07216   0.07700   0.07736   0.07831
 Alpha virt. eigenvalues --    0.07959   0.08925   0.09117   0.09271   0.09711
 Alpha virt. eigenvalues --    0.11626   0.12211   0.12466   0.12540   0.13557
 Alpha virt. eigenvalues --    0.14559   0.16167   0.17267   0.17517   0.17895
 Alpha virt. eigenvalues --    0.18316   0.19538   0.19741   0.20883   0.21376
 Alpha virt. eigenvalues --    0.22073   0.22396   0.23299   0.23794   0.24121
 Alpha virt. eigenvalues --    0.24559   0.26388   0.27081   0.27291   0.27686
 Alpha virt. eigenvalues --    0.27715   0.28468   0.29167   0.29820   0.30381
 Alpha virt. eigenvalues --    0.30563   0.31058   0.31120   0.32728   0.33327
 Alpha virt. eigenvalues --    0.33372   0.33561   0.34660   0.35240   0.36002
 Alpha virt. eigenvalues --    0.36478   0.38248   0.38689   0.39100   0.40062
 Alpha virt. eigenvalues --    0.41019   0.41442   0.43323   0.44329   0.44633
 Alpha virt. eigenvalues --    0.44819   0.45628   0.46311   0.48296   0.48504
 Alpha virt. eigenvalues --    0.49745   0.49877   0.49909   0.52075   0.54754
 Alpha virt. eigenvalues --    0.55933   0.56654   0.57337   0.59823   0.61194
 Alpha virt. eigenvalues --    0.62473   0.62607   0.63461   0.66376   0.67244
 Alpha virt. eigenvalues --    0.68609   0.69667   0.69937   0.71038   0.71204
 Alpha virt. eigenvalues --    0.73765   0.73828   0.75961   0.76985   0.78657
 Alpha virt. eigenvalues --    0.78980   0.79760   0.80634   0.80828   0.81258
 Alpha virt. eigenvalues --    0.81769   0.84181   0.84556   0.84583   0.85211
 Alpha virt. eigenvalues --    0.86114   0.86937   0.87620   0.87952   0.88145
 Alpha virt. eigenvalues --    0.88832   0.89829   0.91391   0.91817   0.92146
 Alpha virt. eigenvalues --    0.94199   0.94526   0.95350   0.95452   0.95947
 Alpha virt. eigenvalues --    0.97782   0.97893   0.98620   0.98685   1.00504
 Alpha virt. eigenvalues --    1.02110   1.02478   1.03177   1.03494   1.04717
 Alpha virt. eigenvalues --    1.06052   1.07307   1.08625   1.08871   1.09850
 Alpha virt. eigenvalues --    1.11593   1.13070   1.13077   1.14986   1.15377
 Alpha virt. eigenvalues --    1.15878   1.16641   1.18313   1.18529   1.21086
 Alpha virt. eigenvalues --    1.21304   1.22095   1.22870   1.24666   1.27011
 Alpha virt. eigenvalues --    1.29548   1.31484   1.32646   1.33115   1.35733
 Alpha virt. eigenvalues --    1.37152   1.39764   1.41080   1.41361   1.41926
 Alpha virt. eigenvalues --    1.44077   1.45316   1.46030   1.46502   1.47976
 Alpha virt. eigenvalues --    1.48563   1.48940   1.50848   1.51777   1.52703
 Alpha virt. eigenvalues --    1.53055   1.53522   1.54682   1.55074   1.55740
 Alpha virt. eigenvalues --    1.56870   1.58863   1.62259   1.62995   1.63749
 Alpha virt. eigenvalues --    1.65279   1.66857   1.67448   1.72626   1.74237
 Alpha virt. eigenvalues --    1.74957   1.75084   1.78248   1.79085   1.85085
 Alpha virt. eigenvalues --    1.87816   1.89135   1.89224   1.91038   1.92448
 Alpha virt. eigenvalues --    1.94256   1.99578   2.00103   2.07455   2.08876
 Alpha virt. eigenvalues --    2.12063   2.14392   2.16447   2.17142   2.23071
 Alpha virt. eigenvalues --    2.24219   2.31829   2.35237   2.38898   2.39255
 Alpha virt. eigenvalues --    2.44046   2.45323   2.52074   2.52346   2.52596
 Alpha virt. eigenvalues --    2.53386   2.55143   2.56448   2.57009   2.58190
 Alpha virt. eigenvalues --    2.60993   2.61311   2.63077   2.64629   2.68375
 Alpha virt. eigenvalues --    2.68564   2.69315   2.71804   2.73755   2.73959
 Alpha virt. eigenvalues --    2.76149   2.79594   2.82985   2.84686   2.84790
 Alpha virt. eigenvalues --    2.86356   2.86779   2.87050   2.88743   2.90198
 Alpha virt. eigenvalues --    2.91545   2.93023   2.93549   2.98177   2.99298
 Alpha virt. eigenvalues --    2.99963   3.00021   3.00304   3.00948   3.04288
 Alpha virt. eigenvalues --    3.08447   3.08584   3.09005   3.09463   3.11938
 Alpha virt. eigenvalues --    3.11959   3.12275   3.13505   3.14834   3.15918
 Alpha virt. eigenvalues --    3.16570   3.17056   3.18588   3.23149   3.23201
 Alpha virt. eigenvalues --    3.25149   3.26003   3.29434   3.29919   3.34211
 Alpha virt. eigenvalues --    3.34770   3.37632   3.39519   3.40565   3.40982
 Alpha virt. eigenvalues --    3.45024   3.45685   3.45908   3.46598   3.47767
 Alpha virt. eigenvalues --    3.48474   3.51475   3.53185   3.53584   3.55044
 Alpha virt. eigenvalues --    3.57613   3.63435   3.64731   3.65861   3.66688
 Alpha virt. eigenvalues --    3.66748   3.67673   3.69646   3.70753   3.71518
 Alpha virt. eigenvalues --    3.75614   3.77327   3.78853   3.84408   3.87017
 Alpha virt. eigenvalues --    3.87170   3.87273   3.88903   3.92541   3.98369
 Alpha virt. eigenvalues --    4.02310   4.06672   4.06856   4.10348   4.17961
 Alpha virt. eigenvalues --    4.18417   4.19641   4.20363   4.23489   4.24559
 Alpha virt. eigenvalues --    4.24878   4.28711   4.32958   4.35244   4.38252
 Alpha virt. eigenvalues --    4.43147   4.43741   4.46149   4.47651   4.51361
 Alpha virt. eigenvalues --    4.58335   4.59172   4.61967   4.63124   4.64089
 Alpha virt. eigenvalues --    4.67189   4.70313   4.75018   4.79627   4.82439
 Alpha virt. eigenvalues --    4.87043   4.90051   4.91155   4.91527   4.95337
 Alpha virt. eigenvalues --    4.96915   4.97437   4.99795   5.00760   5.11720
 Alpha virt. eigenvalues --    5.13999   5.16273   5.17255   5.20788   5.22615
 Alpha virt. eigenvalues --    5.23242   5.25185   5.28806   5.29978   5.58942
 Alpha virt. eigenvalues --    5.64437   5.69436   5.97555   6.09400   6.16873
 Alpha virt. eigenvalues --    6.19025   6.29868   6.39867   6.51275   6.60573
 Alpha virt. eigenvalues --    6.83177   6.98826   8.27212   8.27397   8.33921
 Alpha virt. eigenvalues --    8.34264   8.34878   8.35426   8.38235   8.40822
 Alpha virt. eigenvalues --    8.45718   8.50274   8.54654   8.58570   8.65174
 Alpha virt. eigenvalues --    8.65401   8.68079   8.68219   8.69566   8.70566
 Alpha virt. eigenvalues --    8.71042   8.71879   8.72502   8.73052   8.73402
 Alpha virt. eigenvalues --    8.74565   8.76485   8.77840   8.78415   8.82167
 Alpha virt. eigenvalues --    8.82620   8.86648   8.87113   8.87695   8.88949
 Alpha virt. eigenvalues --    8.94990   8.95006   8.97175   9.01887   9.02481
 Alpha virt. eigenvalues --    9.02973   9.12804   9.14892   9.19795   9.21545
 Alpha virt. eigenvalues --    9.24974   9.26672   9.38929   9.48620   9.54852
 Alpha virt. eigenvalues --   11.89234  13.67652  14.62111  16.13248  16.29383
 Alpha virt. eigenvalues --   16.63763  16.94515  17.00807
          Condensed to atoms (all electrons):
               1          2          3          4          5          6
     1  C    5.642121   0.375142   0.375214   0.347448  -0.052880  -0.052826
     2  H    0.375142   0.429076  -0.060790  -0.054765  -0.028772   0.023111
     3  H    0.375214  -0.060790   0.429029  -0.054754   0.023065  -0.028778
     4  C    0.347448  -0.054765  -0.054754   5.659802   0.368875   0.368753
     5  H   -0.052880  -0.028772   0.023065   0.368875   0.433128  -0.061883
     6  H   -0.052826   0.023111  -0.028778   0.368753  -0.061883   0.433223
     7  C   -0.006947   0.001204   0.001194   0.004386  -0.000195  -0.000163
     8  C    0.005720  -0.000206  -0.000222  -0.011070   0.001375   0.001379
     9  F    0.004001   0.005637  -0.008499   0.000180  -0.001551   0.002572
    10  F    0.004005  -0.008470   0.005635   0.000143   0.002563  -0.001548
    11  F   -0.000167  -0.001149   0.001935   0.004075   0.005391  -0.008515
    12  F   -0.000152   0.001944  -0.001152   0.004085  -0.008541   0.005396
               7          8          9         10         11         12
     1  C   -0.006947   0.005720   0.004001   0.004005  -0.000167  -0.000152
     2  H    0.001204  -0.000206   0.005637  -0.008470  -0.001149   0.001944
     3  H    0.001194  -0.000222  -0.008499   0.005635   0.001935  -0.001152
     4  C    0.004386  -0.011070   0.000180   0.000143   0.004075   0.004085
     5  H   -0.000195   0.001375  -0.001551   0.002563   0.005391  -0.008541
     6  H   -0.000163   0.001379   0.002572  -0.001548  -0.008515   0.005396
     7  C    5.016574   0.219134   0.121483   0.121583  -0.038787  -0.038726
     8  C    0.219134   5.025851  -0.037634  -0.037660   0.124013   0.123907
     9  F    0.121483  -0.037634   9.312773  -0.112565  -0.001660   0.010704
    10  F    0.121583  -0.037660  -0.112565   9.312544   0.010704  -0.001651
    11  F   -0.038787   0.124013  -0.001660   0.010704   9.309696  -0.110113
    12  F   -0.038726   0.123907   0.010704  -0.001651  -0.110113   9.309854
 Mulliken charges:
               1
     1  C   -0.640678
     2  H    0.318038
     3  H    0.318123
     4  C   -0.637159
     5  H    0.319425
     6  H    0.319279
     7  C    0.599261
     8  C    0.585414
     9  F   -0.295441
    10  F   -0.295282
    11  F   -0.295425
    12  F   -0.295555
 Sum of Mulliken charges =   0.00000
 Mulliken charges with hydrogens summed into heavy atoms:
               1
     1  C   -0.004517
     4  C    0.001545
     7  C    0.599261
     8  C    0.585414
     9  F   -0.295441
    10  F   -0.295282
    11  F   -0.295425
    12  F   -0.295555
 Electronic spatial extent (au):  <R**2>=           1260.9568
 Charge=              0.0000 electrons
 Dipole moment (field-independent basis, Debye):
    X=             -0.1605    Y=              0.0043    Z=             -0.0001  Tot=              0.1606
 Quadrupole moment (field-independent basis, Debye-Ang):
   XX=            -44.9118   YY=            -44.9719   ZZ=            -45.1906
   XY=             -0.0101   XZ=              0.0007   YZ=             -0.0005
 Traceless Quadrupole moment (field-independent basis, Debye-Ang):
   XX=              0.1130   YY=              0.0529   ZZ=             -0.1658
   XY=             -0.0101   XZ=              0.0007   YZ=             -0.0005
 Octapole moment (field-independent basis, Debye-Ang**2):
  XXX=             50.2247  YYY=              0.6898  ZZZ=             -0.0001  XYY=              4.7216
  XXY=              3.4850  XXZ=             -0.0043  XZZ=              4.5962  YZZ=              0.2308
  YYZ=             -0.0001  XYZ=             -0.0002
 Hexadecapole moment (field-independent basis, Debye-Ang**3):
 XXXX=          -1061.8776 YYYY=           -349.6892 ZZZZ=           -193.5120 XXXY=            -16.4522
 XXXZ=              0.0181 YYYX=             -3.8975 YYYZ=              0.0268 ZZZX=              0.0019
 ZZZY=             -0.0078 XXYY=           -209.5238 XXZZ=           -185.2054 YYZZ=            -91.1509
 XXYZ=              0.0049 YYXZ=             -0.0007 ZZXY=             -1.4301
 N-N= 3.706834941655D+02 E-N=-2.052154541599D+03  KE= 5.513063033089D+02
 1\1\GINC-TC-NODE166\SP\RB3LYP TD-FC\Aug-CC-pVTZ\C4H4F4\EPKTB\10-Nov-20
 16\0\\# td=(singlet,nstates=50) b3lyp/aug-cc-pvtz geom=check gfp\\Titl
 e\\0,1\C,0,-0.0110011707,-0.0006908479,-0.0074338249\H,0,0.0172177338,
 -0.0032348228,1.0747005437\H,0,0.944476881,-0.0026355333,-0.516232753\
 C,0,-1.1558653132,0.0012868503,-0.6747081781\H,0,-2.1112411914,0.00018
 40391,-0.1656780376\H,0,-1.1837983633,0.0008689429,-1.7568719612\C,0,-
 0.2055936506,3.9939955935,-0.1214388024\C,0,-1.3474739398,3.9990767409
 ,-0.7836124474\F,0,0.9760297482,3.9882151778,-0.7086016155\F,0,-0.1281
 943566,3.9880383543,1.1957201346\F,0,-1.4249777018,3.9995893828,-2.101
 0538188\F,0,-2.5294016464,3.9991803325,-0.1964288162\\Version=ES64L-G0
 9RevD.01\State=1-A\HF=-554.3359775\RMSD=7.609e-09\PG=C01 [X(C4H4F4)]\\
 @


 Make no judgements where you have no compassion.
                               -- Anne McCaffrey
 Job cpu time:       0 days  6 hours 56 minutes 39.4 seconds.
 File lengths (MBytes):  RWF=   1305 Int=      0 D2E=      0 Chk=    279 Scr=      1
 Normal termination of Gaussian 09 at Thu Nov 10 13:06:52 2016.
