 Entering Gaussian System, Link 0=g09
 Initial command:
 /cluster/software/gaussian/gaussian-09-D.01/g09/l1.exe "/local/scratch/maxb2/Gau-19852.inp" -scrdir="/local/scratch/maxb2/"
 Entering Link 1 = /cluster/software/gaussian/gaussian-09-D.01/g09/l1.exe PID=     19853.
  
 Copyright (c) 1988,1990,1992,1993,1995,1998,2003,2009,2013,
            Gaussian, Inc.  All Rights Reserved.
  
 This is part of the Gaussian(R) 09 program.  It is based on
 the Gaussian(R) 03 system (copyright 2003, Gaussian, Inc.),
 the Gaussian(R) 98 system (copyright 1998, Gaussian, Inc.),
 the Gaussian(R) 94 system (copyright 1995, Gaussian, Inc.),
 the Gaussian 92(TM) system (copyright 1992, Gaussian, Inc.),
 the Gaussian 90(TM) system (copyright 1990, Gaussian, Inc.),
 the Gaussian 88(TM) system (copyright 1988, Gaussian, Inc.),
 the Gaussian 86(TM) system (copyright 1986, Carnegie Mellon
 University), and the Gaussian 82(TM) system (copyright 1983,
 Carnegie Mellon University). Gaussian is a federally registered
 trademark of Gaussian, Inc.
  
 This software contains proprietary and confidential information,
 including trade secrets, belonging to Gaussian, Inc.
  
 This software is provided under written license and may be
 used, copied, transmitted, or stored only in accord with that
 written license.
  
 The following legend is applicable only to US Government
 contracts under FAR:
  
                    RESTRICTED RIGHTS LEGEND
  
 Use, reproduction and disclosure by the US Government is
 subject to restrictions as set forth in subparagraphs (a)
 and (c) of the Commercial Computer Software - Restricted
 Rights clause in FAR 52.227-19.
  
 Gaussian, Inc.
 340 Quinnipiac St., Bldg. 40, Wallingford CT 06492
  
  
 ---------------------------------------------------------------
 Warning -- This program may not be used in any manner that
 competes with the business of Gaussian, Inc. or will provide
 assistance to any competitor of Gaussian, Inc.  The licensee
 of this program is prohibited from giving any competitor of
 Gaussian, Inc. access to this program.  By using this program,
 the user acknowledges that Gaussian, Inc. is engaged in the
 business of creating and licensing software in the field of
 computational chemistry and represents and warrants to the
 licensee that it is not a competitor of Gaussian, Inc. and that
 it will not use this program in any manner prohibited above.
 ---------------------------------------------------------------
  

 Cite this work as:
 Gaussian 09, Revision D.01,
 M. J. Frisch, G. W. Trucks, H. B. Schlegel, G. E. Scuseria, 
 M. A. Robb, J. R. Cheeseman, G. Scalmani, V. Barone, B. Mennucci, 
 G. A. Petersson, H. Nakatsuji, M. Caricato, X. Li, H. P. Hratchian, 
 A. F. Izmaylov, J. Bloino, G. Zheng, J. L. Sonnenberg, M. Hada, 
 M. Ehara, K. Toyota, R. Fukuda, J. Hasegawa, M. Ishida, T. Nakajima, 
 Y. Honda, O. Kitao, H. Nakai, T. Vreven, J. A. Montgomery, Jr., 
 J. E. Peralta, F. Ogliaro, M. Bearpark, J. J. Heyd, E. Brothers, 
 K. N. Kudin, V. N. Staroverov, T. Keith, R. Kobayashi, J. Normand, 
 K. Raghavachari, A. Rendell, J. C. Burant, S. S. Iyengar, J. Tomasi, 
 M. Cossi, N. Rega, J. M. Millam, M. Klene, J. E. Knox, J. B. Cross, 
 V. Bakken, C. Adamo, J. Jaramillo, R. Gomperts, R. E. Stratmann, 
 O. Yazyev, A. J. Austin, R. Cammi, C. Pomelli, J. W. Ochterski, 
 R. L. Martin, K. Morokuma, V. G. Zakrzewski, G. A. Voth, 
 P. Salvador, J. J. Dannenberg, S. Dapprich, A. D. Daniels, 
 O. Farkas, J. B. Foresman, J. V. Ortiz, J. Cioslowski, 
 and D. J. Fox, Gaussian, Inc., Wallingford CT, 2013.
 
 ******************************************
 Gaussian 09:  ES64L-G09RevD.01 24-Apr-2013
                10-Nov-2016 
 ******************************************
 %nprocshared=8
 Will use up to    8 processors via shared memory.
 %mem=6GB
 %chk=c2h4-c2f4-diff-aug
 ---------------------------------------------------
 # opt freq=raman b97d/aug-cc-pvtz geom=connectivity
 ---------------------------------------------------
 1/14=-1,18=20,19=15,26=3,38=1,57=2/1,3;
 2/9=110,12=2,17=6,18=5,40=1/2;
 3/5=16,6=1,7=10,11=2,16=1,25=1,30=1,71=1,74=-42/1,2,3;
 4//1;
 5/5=2,38=5/2;
 6/7=2,8=2,9=2,10=2,28=1/1;
 7//1,2,3,16;
 1/14=-1,18=20,19=15,26=3/3(2);
 2/9=110/2;
 99//99;
 2/9=110/2;
 3/5=16,6=1,7=10,11=2,16=1,25=1,30=1,71=1,74=-42/1,2,3;
 4/5=5,16=3,69=1/1;
 5/5=2,38=5/2;
 7//1,2,3,16;
 1/14=-1,18=20,19=15,26=3/3(-5);
 2/9=110/2;
 6/7=2,8=2,9=2,10=2,19=2,28=1/1;
 99/9=1/99;
 -----
 Title
 -----
 Symbolic Z-matrix:
 Charge =  0 Multiplicity = 1
 C
 H                    1    B1
 H                    1    B2       2    A1
 C                    1    B3       3    A2       2    D1       0
 H                    4    B4       1    A3       3    D2       0
 H                    4    B5       1    A4       3    D3       0
 C                    1    B6       4    A5       6    D4       0
 C                    7    B7       1    A6       4    D5       0
 F                    7    B8       1    A7       4    D6       0
 F                    7    B9       1    A8       4    D7       0
 F                    8    B10      7    A9       1    D8       0
 F                    8    B11      7    A10      1    D9       0
       Variables:
  B1                    1.07                     
  B2                    1.07                     
  B3                    1.3552                   
  B4                    1.07                     
  B5                    1.07                     
  B6                    4.                       
  B7                    1.3552                   
  B8                    1.35                     
  B9                    1.35                     
  B10                   1.35                     
  B11                   1.35                     
  A1                  119.88653                  
  A2                  119.88653                  
  A3                  120.22695                  
  A4                  119.88653                  
  A5                   86.85591                  
  A6                   93.14409                  
  A7                   88.43394                  
  A8                   88.41777                  
  A9                  120.22695                  
  A10                 119.88653                  
  D1                 -180.                       
  D2                  180.                       
  D3                    0.                       
  D4                   90.                       
  D5                    0.                       
  D6                 -119.84925                  
  D7                  120.18942                  
  D8                  -90.                       
  D9                   90.                       
 
 Add virtual bond connecting atoms C7         and C1         Dist= 7.56D+00.
 Add virtual bond connecting atoms C7         and C4         Dist= 7.85D+00.
 Add virtual bond connecting atoms C8         and C4         Dist= 7.56D+00.
 Add virtual bond connecting atoms C8         and H5         Dist= 7.77D+00.
 Add virtual bond connecting atoms C8         and H6         Dist= 7.77D+00.

 GradGradGradGradGradGradGradGradGradGradGradGradGradGradGradGradGradGrad
 Berny optimization.
 Initialization pass.
                           ----------------------------
                           !    Initial Parameters    !
                           ! (Angstroms and Degrees)  !
 --------------------------                            --------------------------
 ! Name  Definition              Value          Derivative Info.                !
 --------------------------------------------------------------------------------
 ! R1    R(1,2)                  1.07           estimate D2E/DX2                !
 ! R2    R(1,3)                  1.07           estimate D2E/DX2                !
 ! R3    R(1,4)                  1.3552         estimate D2E/DX2                !
 ! R4    R(1,7)                  4.0            estimate D2E/DX2                !
 ! R5    R(4,5)                  1.07           estimate D2E/DX2                !
 ! R6    R(4,6)                  1.07           estimate D2E/DX2                !
 ! R7    R(4,7)                  4.1523         estimate D2E/DX2                !
 ! R8    R(4,8)                  4.0            estimate D2E/DX2                !
 ! R9    R(5,8)                  4.112          estimate D2E/DX2                !
 ! R10   R(6,8)                  4.1123         estimate D2E/DX2                !
 ! R11   R(7,8)                  1.3552         estimate D2E/DX2                !
 ! R12   R(7,9)                  1.35           estimate D2E/DX2                !
 ! R13   R(7,10)                 1.35           estimate D2E/DX2                !
 ! R14   R(8,11)                 1.35           estimate D2E/DX2                !
 ! R15   R(8,12)                 1.35           estimate D2E/DX2                !
 ! A1    A(2,1,3)              119.8865         estimate D2E/DX2                !
 ! A2    A(2,1,4)              120.2269         estimate D2E/DX2                !
 ! A3    A(2,1,7)               91.5822         estimate D2E/DX2                !
 ! A4    A(3,1,4)              119.8865         estimate D2E/DX2                !
 ! A5    A(3,1,7)               91.5661         estimate D2E/DX2                !
 ! A6    A(1,4,5)              120.2269         estimate D2E/DX2                !
 ! A7    A(1,4,6)              119.8865         estimate D2E/DX2                !
 ! A8    A(1,4,8)               93.1441         estimate D2E/DX2                !
 ! A9    A(5,4,6)              119.8865         estimate D2E/DX2                !
 ! A10   A(5,4,7)               97.9151         estimate D2E/DX2                !
 ! A11   A(6,4,7)               97.8337         estimate D2E/DX2                !
 ! A12   A(1,7,8)               93.1441         estimate D2E/DX2                !
 ! A13   A(1,7,9)               88.4339         estimate D2E/DX2                !
 ! A14   A(1,7,10)              88.4178         estimate D2E/DX2                !
 ! A15   A(4,7,9)               97.8337         estimate D2E/DX2                !
 ! A16   A(4,7,10)              97.9151         estimate D2E/DX2                !
 ! A17   A(8,7,9)              119.8865         estimate D2E/DX2                !
 ! A18   A(8,7,10)             120.2269         estimate D2E/DX2                !
 ! A19   A(9,7,10)             119.8865         estimate D2E/DX2                !
 ! A20   A(4,8,11)              91.5822         estimate D2E/DX2                !
 ! A21   A(4,8,12)              91.5661         estimate D2E/DX2                !
 ! A22   A(5,8,6)               26.031          estimate D2E/DX2                !
 ! A23   A(5,8,7)               94.4532         estimate D2E/DX2                !
 ! A24   A(5,8,11)              98.9271         estimate D2E/DX2                !
 ! A25   A(5,8,12)              76.4895         estimate D2E/DX2                !
 ! A26   A(6,8,7)               94.376          estimate D2E/DX2                !
 ! A27   A(6,8,11)              76.5066         estimate D2E/DX2                !
 ! A28   A(6,8,12)              99.066          estimate D2E/DX2                !
 ! A29   A(7,8,11)             120.2269         estimate D2E/DX2                !
 ! A30   A(7,8,12)             119.8865         estimate D2E/DX2                !
 ! A31   A(11,8,12)            119.8865         estimate D2E/DX2                !
 ! D1    D(2,1,4,5)              0.0            estimate D2E/DX2                !
 ! D2    D(2,1,4,6)            180.0            estimate D2E/DX2                !
 ! D3    D(2,1,4,8)             90.0            estimate D2E/DX2                !
 ! D4    D(3,1,4,5)            180.0            estimate D2E/DX2                !
 ! D5    D(3,1,4,6)              0.0            estimate D2E/DX2                !
 ! D6    D(3,1,4,8)            -90.0            estimate D2E/DX2                !
 ! D7    D(2,1,7,8)           -120.1894         estimate D2E/DX2                !
 ! D8    D(2,1,7,9)            119.9613         estimate D2E/DX2                !
 ! D9    D(2,1,7,10)             0.0            estimate D2E/DX2                !
 ! D10   D(3,1,7,8)            119.8493         estimate D2E/DX2                !
 ! D11   D(3,1,7,9)              0.0            estimate D2E/DX2                !
 ! D12   D(3,1,7,10)          -119.9613         estimate D2E/DX2                !
 ! D13   D(5,4,7,9)           -179.6663         estimate D2E/DX2                !
 ! D14   D(5,4,7,10)            58.5345         estimate D2E/DX2                !
 ! D15   D(6,4,7,9)            -57.8671         estimate D2E/DX2                !
 ! D16   D(6,4,7,10)          -179.6663         estimate D2E/DX2                !
 ! D17   D(1,4,8,11)           120.1894         estimate D2E/DX2                !
 ! D18   D(1,4,8,12)          -119.8493         estimate D2E/DX2                !
 ! D19   D(1,7,8,5)             13.0332         estimate D2E/DX2                !
 ! D20   D(1,7,8,6)            -13.0765         estimate D2E/DX2                !
 ! D21   D(1,7,8,11)           -90.0            estimate D2E/DX2                !
 ! D22   D(1,7,8,12)            90.0            estimate D2E/DX2                !
 ! D23   D(9,7,8,5)            103.0332         estimate D2E/DX2                !
 ! D24   D(9,7,8,6)             76.9235         estimate D2E/DX2                !
 ! D25   D(9,7,8,11)             0.0            estimate D2E/DX2                !
 ! D26   D(9,7,8,12)           180.0            estimate D2E/DX2                !
 ! D27   D(10,7,8,5)           -76.9668         estimate D2E/DX2                !
 ! D28   D(10,7,8,6)          -103.0765         estimate D2E/DX2                !
 ! D29   D(10,7,8,11)          180.0            estimate D2E/DX2                !
 ! D30   D(10,7,8,12)            0.0            estimate D2E/DX2                !
 --------------------------------------------------------------------------------
 Trust Radius=3.00D-01 FncErr=1.00D-07 GrdErr=1.00D-06
 Number of steps in this run=     86 maximum allowed number of steps=    100.
 GradGradGradGradGradGradGradGradGradGradGradGradGradGradGradGradGradGrad

                          Input orientation:                          
 ---------------------------------------------------------------------
 Center     Atomic      Atomic             Coordinates (Angstroms)
 Number     Number       Type             X           Y           Z
 ---------------------------------------------------------------------
      1          6           0        0.000000    0.000000    0.000000
      2          1           0        0.000000    0.000000    1.070000
      3          1           0        0.927705    0.000000   -0.533164
      4          6           0       -1.170944    0.000000   -0.682243
      5          1           0       -2.101801    0.000000   -0.154601
      6          1           0       -1.164587    0.000000   -1.752225
      7          6           0       -0.189560    3.993979   -0.110446
      8          6           0       -1.360505    3.993979   -0.792690
      9          9           0        0.980908    3.993979   -0.783129
     10          9           0       -0.189560    3.993979    1.239554
     11          9           0       -1.360505    3.993979   -2.142690
     12          9           0       -2.530974    3.993979   -0.120006
 ---------------------------------------------------------------------
                    Distance matrix (angstroms):
                    1          2          3          4          5
     1  C    0.000000
     2  H    1.070000   0.000000
     3  H    1.070000   1.852234   0.000000
     4  C    1.355200   2.107479   2.103938   0.000000
     5  H    2.107479   2.432532   3.053066   1.070000   0.000000
     6  H    2.103938   3.053066   2.421527   1.070000   1.852234
     7  C    4.000000   4.169083   4.168794   4.152341   4.428372
     8  C    4.293157   4.612207   4.610328   4.000000   4.112000
     9  F    4.186567   4.510891   4.002147   4.537898   5.084291
    10  F    4.186203   4.002068   4.510286   4.539635   4.642435
    11  F    4.732226   5.303227   4.876305   4.256842   4.522597
    12  F    4.729915   4.875840   5.299531   4.256484   4.017120
                    6          7          8          9         10
     6  H    0.000000
     7  C    4.426961   0.000000
     8  C    4.112294   1.355200   0.000000
     9  F    4.636180   1.350000   2.341433   0.000000
    10  F    5.084612   1.350000   2.345448   2.336931   0.000000
    11  F    4.017800   2.345448   1.350000   2.707512   3.579201
    12  F    4.525817   2.341433   1.350000   3.573940   2.707512
                   11         12
    11  F    0.000000
    12  F    2.336931   0.000000
 Stoichiometry    C4H4F4
 Framework group  C1[X(C4H4F4)]
 Deg. of freedom    30
 Full point group                 C1      NOp   1
 Largest Abelian subgroup         C1      NOp   1
 Largest concise Abelian subgroup C1      NOp   1
                         Standard orientation:                         
 ---------------------------------------------------------------------
 Center     Atomic      Atomic             Coordinates (Angstroms)
 Number     Number       Type             X           Y           Z
 ---------------------------------------------------------------------
      1          6           0       -3.062519    0.550552    0.000481
      2          1           0       -3.114158    1.088234   -0.923170
      3          1           0       -3.113822    1.079738    0.929045
      4          6           0       -2.932361   -0.798381   -0.001704
      5          1           0       -2.880530   -1.333050   -0.927093
      6          1           0       -2.881250   -1.330592    0.925140
      7          6           0        0.934068    0.715772    0.001164
      8          6           0        1.064226   -0.633162   -0.001022
      9          9           0        0.869340    1.383436    1.172716
     10          9           0        0.868915    1.394156   -1.164190
     11          9           0        1.129379   -1.311546    1.164332
     12          9           0        1.128953   -1.300826   -1.172574
 ---------------------------------------------------------------------
 Rotational constants (GHZ):      1.8478192      1.1023159      0.9764892
 Standard basis: Aug-CC-pVTZ (5D, 7F)
 There are   540 symmetry adapted cartesian basis functions of A   symmetry.
 There are   460 symmetry adapted basis functions of A   symmetry.
   460 basis functions,   684 primitive gaussians,   540 cartesian basis functions
    32 alpha electrons       32 beta electrons
       nuclear repulsion energy       365.9518417123 Hartrees.
 NAtoms=   12 NActive=   12 NUniq=   12 SFac= 1.00D+00 NAtFMM=   60 NAOKFM=F Big=F
 Integral buffers will be    131072 words long.
 Raffenetti 2 integral format.
 Two-electron integral symmetry is turned on.
 Nuclear repulsion after empirical dispersion term =      365.9449098663 Hartrees.
 One-electron integrals computed using PRISM.
 NBasis=   460 RedAO= T EigKep=  4.23D-06  NBF=   460
 NBsUse=   460 1.00D-06 EigRej= -1.00D+00 NBFU=   460
 ExpMin= 2.53D-02 ExpMax= 1.95D+04 ExpMxC= 6.65D+02 IAcc=3 IRadAn=         5 AccDes= 0.00D+00
 Harris functional with IExCor= 3630 and IRadAn=       5 diagonalized for initial guess.
 HarFok:  IExCor= 3630 AccDes= 0.00D+00 IRadAn=         5 IDoV= 1 UseB2=F ITyADJ=14
 ICtDFT=  3500011 ScaDFX=  1.000000  1.000000  1.000000  1.000000
 FoFCou: FMM=F IPFlag=           0 FMFlag=      100000 FMFlg1=           0
         NFxFlg=           0 DoJE=T BraDBF=F KetDBF=T FulRan=T
         wScrn=  0.000000 ICntrl=     500 IOpCl=  0 I1Cent=   200000004 NGrid=           0
         NMat0=    1 NMatS0=      1 NMatT0=    0 NMatD0=    1 NMtDS0=    0 NMtDT0=    0
 Petite list used in FoFCou.
 Requested convergence on RMS density matrix=1.00D-08 within 128 cycles.
 Requested convergence on MAX density matrix=1.00D-06.
 Requested convergence on             energy=1.00D-06.
 No special actions if energy rises.
 SCF Done:  E(RB97D) =  -554.023046830     A.U. after   11 cycles
            NFock= 11  Conv=0.71D-08     -V/T= 2.0055

 **********************************************************************

            Population analysis using the SCF density.

 **********************************************************************

 Orbital symmetries:
       Occupied  (A) (A) (A) (A) (A) (A) (A) (A) (A) (A) (A) (A)
                 (A) (A) (A) (A) (A) (A) (A) (A) (A) (A) (A) (A)
                 (A) (A) (A) (A) (A) (A) (A) (A)
       Virtual   (A) (A) (A) (A) (A) (A) (A) (A) (A) (A) (A) (A)
                 (A) (A) (A) (A) (A) (A) (A) (A) (A) (A) (A) (A)
                 (A) (A) (A) (A) (A) (A) (A) (A) (A) (A) (A) (A)
                 (A) (A) (A) (A) (A) (A) (A) (A) (A) (A) (A) (A)
                 (A) (A) (A) (A) (A) (A) (A) (A) (A) (A) (A) (A)
                 (A) (A) (A) (A) (A) (A) (A) (A) (A) (A) (A) (A)
                 (A) (A) (A) (A) (A) (A) (A) (A) (A) (A) (A) (A)
                 (A) (A) (A) (A) (A) (A) (A) (A) (A) (A) (A) (A)
                 (A) (A) (A) (A) (A) (A) (A) (A) (A) (A) (A) (A)
                 (A) (A) (A) (A) (A) (A) (A) (A) (A) (A) (A) (A)
                 (A) (A) (A) (A) (A) (A) (A) (A) (A) (A) (A) (A)
                 (A) (A) (A) (A) (A) (A) (A) (A) (A) (A) (A) (A)
                 (A) (A) (A) (A) (A) (A) (A) (A) (A) (A) (A) (A)
                 (A) (A) (A) (A) (A) (A) (A) (A) (A) (A) (A) (A)
                 (A) (A) (A) (A) (A) (A) (A) (A) (A) (A) (A) (A)
                 (A) (A) (A) (A) (A) (A) (A) (A) (A) (A) (A) (A)
                 (A) (A) (A) (A) (A) (A) (A) (A) (A) (A) (A) (A)
                 (A) (A) (A) (A) (A) (A) (A) (A) (A) (A) (A) (A)
                 (A) (A) (A) (A) (A) (A) (A) (A) (A) (A) (A) (A)
                 (A) (A) (A) (A) (A) (A) (A) (A) (A) (A) (A) (A)
                 (A) (A) (A) (A) (A) (A) (A) (A) (A) (A) (A) (A)
                 (A) (A) (A) (A) (A) (A) (A) (A) (A) (A) (A) (A)
                 (A) (A) (A) (A) (A) (A) (A) (A) (A) (A) (A) (A)
                 (A) (A) (A) (A) (A) (A) (A) (A) (A) (A) (A) (A)
                 (A) (A) (A) (A) (A) (A) (A) (A) (A) (A) (A) (A)
                 (A) (A) (A) (A) (A) (A) (A) (A) (A) (A) (A) (A)
                 (A) (A) (A) (A) (A) (A) (A) (A) (A) (A) (A) (A)
                 (A) (A) (A) (A) (A) (A) (A) (A) (A) (A) (A) (A)
                 (A) (A) (A) (A) (A) (A) (A) (A) (A) (A) (A) (A)
                 (A) (A) (A) (A) (A) (A) (A) (A) (A) (A) (A) (A)
                 (A) (A) (A) (A) (A) (A) (A) (A) (A) (A) (A) (A)
                 (A) (A) (A) (A) (A) (A) (A) (A) (A) (A) (A) (A)
                 (A) (A) (A) (A) (A) (A) (A) (A) (A) (A) (A) (A)
                 (A) (A) (A) (A) (A) (A) (A) (A) (A) (A) (A) (A)
                 (A) (A) (A) (A) (A) (A) (A) (A) (A) (A) (A) (A)
                 (A) (A) (A) (A) (A) (A) (A) (A)
 The electronic state is 1-A.
 Alpha  occ. eigenvalues --  -24.31605 -24.31588 -24.31565 -24.31548 -10.09253
 Alpha  occ. eigenvalues --  -10.09198  -9.90742  -9.90685  -1.20295  -1.18854
 Alpha  occ. eigenvalues --   -1.16177  -1.15102  -0.73437  -0.69537  -0.60531
 Alpha  occ. eigenvalues --   -0.55923  -0.55365  -0.53214  -0.52078  -0.49188
 Alpha  occ. eigenvalues --   -0.45194  -0.43157  -0.42438  -0.41306  -0.41242
 Alpha  occ. eigenvalues --   -0.40662  -0.39503  -0.38871  -0.37222  -0.32735
 Alpha  occ. eigenvalues --   -0.24643  -0.22708
 Alpha virt. eigenvalues --   -0.04544  -0.02664  -0.02403  -0.00506  -0.00039
 Alpha virt. eigenvalues --    0.00113   0.01837   0.01983   0.03971   0.04707
 Alpha virt. eigenvalues --    0.04929   0.05112   0.05773   0.06213   0.07635
 Alpha virt. eigenvalues --    0.07672   0.07969   0.08493   0.08761   0.08920
 Alpha virt. eigenvalues --    0.10979   0.11159   0.11494   0.12075   0.12790
 Alpha virt. eigenvalues --    0.12931   0.13819   0.15485   0.16832   0.16910
 Alpha virt. eigenvalues --    0.17273   0.17433   0.18817   0.20276   0.20455
 Alpha virt. eigenvalues --    0.21639   0.21659   0.22450   0.23276   0.23350
 Alpha virt. eigenvalues --    0.23933   0.25413   0.25949   0.26491   0.26882
 Alpha virt. eigenvalues --    0.27029   0.27710   0.28369   0.28660   0.29432
 Alpha virt. eigenvalues --    0.29743   0.30051   0.30384   0.31478   0.32285
 Alpha virt. eigenvalues --    0.32487   0.32735   0.33148   0.33699   0.34091
 Alpha virt. eigenvalues --    0.35281   0.35335   0.36489   0.37379   0.37938
 Alpha virt. eigenvalues --    0.38462   0.40237   0.41514   0.42203   0.42823
 Alpha virt. eigenvalues --    0.42831   0.43722   0.44869   0.45433   0.46091
 Alpha virt. eigenvalues --    0.48310   0.48755   0.49276   0.50680   0.53902
 Alpha virt. eigenvalues --    0.54546   0.56091   0.56561   0.58727   0.59477
 Alpha virt. eigenvalues --    0.60088   0.61169   0.61364   0.64707   0.65610
 Alpha virt. eigenvalues --    0.66371   0.67360   0.67599   0.68950   0.70660
 Alpha virt. eigenvalues --    0.71783   0.72093   0.73621   0.74205   0.76229
 Alpha virt. eigenvalues --    0.77177   0.77281   0.77755   0.78246   0.79861
 Alpha virt. eigenvalues --    0.80068   0.80753   0.81501   0.82369   0.82962
 Alpha virt. eigenvalues --    0.83109   0.84050   0.85395   0.86057   0.86564
 Alpha virt. eigenvalues --    0.86728   0.87038   0.87184   0.90436   0.90482
 Alpha virt. eigenvalues --    0.91819   0.92812   0.92915   0.94327   0.94341
 Alpha virt. eigenvalues --    0.94826   0.95532   0.96499   0.96795   0.97896
 Alpha virt. eigenvalues --    0.98678   1.00467   1.00936   1.02029   1.02860
 Alpha virt. eigenvalues --    1.03895   1.05258   1.05711   1.05934   1.06797
 Alpha virt. eigenvalues --    1.07730   1.10829   1.11055   1.11432   1.12682
 Alpha virt. eigenvalues --    1.13182   1.14033   1.14385   1.15303   1.18009
 Alpha virt. eigenvalues --    1.18476   1.20233   1.20462   1.20822   1.25128
 Alpha virt. eigenvalues --    1.25781   1.28130   1.29082   1.29474   1.31948
 Alpha virt. eigenvalues --    1.34188   1.35565   1.36847   1.38088   1.38476
 Alpha virt. eigenvalues --    1.38592   1.39057   1.40846   1.42048   1.42462
 Alpha virt. eigenvalues --    1.45215   1.45579   1.46886   1.47040   1.48821
 Alpha virt. eigenvalues --    1.49244   1.51438   1.52515   1.53304   1.53785
 Alpha virt. eigenvalues --    1.55546   1.56167   1.57316   1.59625   1.60366
 Alpha virt. eigenvalues --    1.61706   1.63000   1.63867   1.67869   1.69520
 Alpha virt. eigenvalues --    1.71081   1.71535   1.71612   1.77798   1.81117
 Alpha virt. eigenvalues --    1.82315   1.83429   1.85267   1.86154   1.86489
 Alpha virt. eigenvalues --    1.89101   1.91468   1.96621   2.03431   2.04667
 Alpha virt. eigenvalues --    2.08899   2.10839   2.11587   2.14686   2.16879
 Alpha virt. eigenvalues --    2.17505   2.22406   2.26924   2.32510   2.32899
 Alpha virt. eigenvalues --    2.34767   2.36438   2.44862   2.44882   2.45837
 Alpha virt. eigenvalues --    2.47178   2.48353   2.49227   2.50382   2.52364
 Alpha virt. eigenvalues --    2.53285   2.54225   2.54947   2.56373   2.62189
 Alpha virt. eigenvalues --    2.62884   2.63297   2.64140   2.64215   2.66113
 Alpha virt. eigenvalues --    2.66811   2.68627   2.70533   2.71876   2.74895
 Alpha virt. eigenvalues --    2.75119   2.76043   2.78129   2.79924   2.82131
 Alpha virt. eigenvalues --    2.83385   2.84331   2.86642   2.88531   2.89695
 Alpha virt. eigenvalues --    2.91287   2.91726   2.91875   2.92571   2.92878
 Alpha virt. eigenvalues --    3.01444   3.03302   3.03892   3.04048   3.04426
 Alpha virt. eigenvalues --    3.05281   3.06430   3.06706   3.07488   3.09588
 Alpha virt. eigenvalues --    3.10238   3.11063   3.11235   3.12300   3.17437
 Alpha virt. eigenvalues --    3.20076   3.20719   3.20907   3.22179   3.24596
 Alpha virt. eigenvalues --    3.27070   3.29947   3.32128   3.32487   3.33137
 Alpha virt. eigenvalues --    3.37376   3.37552   3.37788   3.37910   3.39927
 Alpha virt. eigenvalues --    3.40451   3.44721   3.45177   3.46331   3.48233
 Alpha virt. eigenvalues --    3.48915   3.51240   3.53394   3.55876   3.57314
 Alpha virt. eigenvalues --    3.58377   3.58586   3.63172   3.64384   3.65876
 Alpha virt. eigenvalues --    3.67133   3.69397   3.71135   3.71904   3.73968
 Alpha virt. eigenvalues --    3.75418   3.76336   3.81017   3.82877   3.92960
 Alpha virt. eigenvalues --    3.93418   3.93873   3.96986   3.97667   4.02442
 Alpha virt. eigenvalues --    4.04737   4.07765   4.12000   4.15761   4.16125
 Alpha virt. eigenvalues --    4.16694   4.18794   4.19518   4.26739   4.31343
 Alpha virt. eigenvalues --    4.33437   4.34446   4.37244   4.45047   4.45958
 Alpha virt. eigenvalues --    4.46211   4.46940   4.47308   4.48000   4.54684
 Alpha virt. eigenvalues --    4.58006   4.58609   4.65301   4.67286   4.73669
 Alpha virt. eigenvalues --    4.74727   4.76511   4.80810   4.82502   4.83427
 Alpha virt. eigenvalues --    4.86008   4.86206   4.88633   4.90923   4.95974
 Alpha virt. eigenvalues --    5.01053   5.03219   5.10113   5.12507   5.13373
 Alpha virt. eigenvalues --    5.15004   5.19384   5.20267   5.21423   5.39762
 Alpha virt. eigenvalues --    5.59987   5.62906   5.86080   5.91271   6.08045
 Alpha virt. eigenvalues --    6.09269   6.15876   6.21753   6.27230   6.52369
 Alpha virt. eigenvalues --    6.55765   6.68955   8.14729   8.15662   8.16488
 Alpha virt. eigenvalues --    8.16578   8.20180   8.22557   8.22860   8.25131
 Alpha virt. eigenvalues --    8.32562   8.38914   8.42293   8.44638   8.45102
 Alpha virt. eigenvalues --    8.52298   8.53111   8.53496   8.54074   8.54581
 Alpha virt. eigenvalues --    8.56242   8.56409   8.56800   8.57111   8.58655
 Alpha virt. eigenvalues --    8.58896   8.59779   8.60279   8.62314   8.67221
 Alpha virt. eigenvalues --    8.69216   8.70898   8.75630   8.76628   8.76669
 Alpha virt. eigenvalues --    8.76896   8.77758   8.81167   8.81251   8.86416
 Alpha virt. eigenvalues --    8.87438   8.88751   9.02282   9.05539   9.05654
 Alpha virt. eigenvalues --    9.06095   9.12610   9.26162   9.27885   9.29471
 Alpha virt. eigenvalues --   11.50861  13.34744  14.20327  15.18814  16.31802
 Alpha virt. eigenvalues --   16.33579  16.48758  16.63585
          Condensed to atoms (all electrons):
               1          2          3          4          5          6
     1  C    5.451053   0.387330   0.389687   0.370163  -0.059107  -0.061460
     2  H    0.387330   0.536314  -0.093353  -0.061370  -0.039090   0.029516
     3  H    0.389687  -0.093353   0.539105  -0.063517   0.029442  -0.040298
     4  C    0.370163  -0.061370  -0.063517   5.475828   0.380117   0.381977
     5  H   -0.059107  -0.039090   0.029442   0.380117   0.542993  -0.096775
     6  H   -0.061460   0.029516  -0.040298   0.381977  -0.096775   0.546170
     7  C   -0.009495   0.001336   0.001402   0.006824  -0.000372  -0.000400
     8  C    0.006262  -0.000082  -0.000210  -0.009802   0.001665   0.001797
     9  F    0.005070   0.005780  -0.008617  -0.000643  -0.001628   0.002632
    10  F    0.005158  -0.008588   0.005796  -0.000744   0.002615  -0.001644
    11  F   -0.000374  -0.001181   0.001883   0.004226   0.005406  -0.008324
    12  F   -0.000405   0.001875  -0.001191   0.004231  -0.008297   0.005420
               7          8          9         10         11         12
     1  C   -0.009495   0.006262   0.005070   0.005158  -0.000374  -0.000405
     2  H    0.001336  -0.000082   0.005780  -0.008588  -0.001181   0.001875
     3  H    0.001402  -0.000210  -0.008617   0.005796   0.001883  -0.001191
     4  C    0.006824  -0.009802  -0.000643  -0.000744   0.004226   0.004231
     5  H   -0.000372   0.001665  -0.001628   0.002615   0.005406  -0.008297
     6  H   -0.000400   0.001797   0.002632  -0.001644  -0.008324   0.005420
     7  C    5.088680   0.253993   0.038777   0.038660  -0.000764  -0.000847
     8  C    0.253993   5.092724   0.000874   0.000990   0.040251   0.040181
     9  F    0.038777   0.000874   9.329067  -0.091076  -0.001813   0.008924
    10  F    0.038660   0.000990  -0.091076   9.329140   0.008776  -0.001791
    11  F   -0.000764   0.040251  -0.001813   0.008776   9.327891  -0.089248
    12  F   -0.000847   0.040181   0.008924  -0.001791  -0.089248   9.327977
 Mulliken charges:
               1
     1  C   -0.483880
     2  H    0.241512
     3  H    0.239872
     4  C   -0.487290
     5  H    0.243033
     6  H    0.241389
     7  C    0.582206
     8  C    0.571356
     9  F   -0.287346
    10  F   -0.287290
    11  F   -0.286731
    12  F   -0.286829
 Sum of Mulliken charges =   0.00000
 Mulliken charges with hydrogens summed into heavy atoms:
               1
     1  C   -0.002497
     4  C   -0.002869
     7  C    0.582206
     8  C    0.571356
     9  F   -0.287346
    10  F   -0.287290
    11  F   -0.286731
    12  F   -0.286829
 Electronic spatial extent (au):  <R**2>=           1269.2212
 Charge=              0.0000 electrons
 Dipole moment (field-independent basis, Debye):
    X=             -0.1474    Y=              0.0019    Z=              0.0001  Tot=              0.1474
 Quadrupole moment (field-independent basis, Debye-Ang):
   XX=            -45.0366   YY=            -44.4283   ZZ=            -44.7879
   XY=             -0.0764   XZ=              0.0005   YZ=             -0.0093
 Traceless Quadrupole moment (field-independent basis, Debye-Ang):
   XX=             -0.2857   YY=              0.3227   ZZ=             -0.0370
   XY=             -0.0764   XZ=              0.0005   YZ=             -0.0093
 Octapole moment (field-independent basis, Debye-Ang**2):
  XXX=             49.8761  YYY=              0.7243  ZZZ=              0.0115  XYY=              5.7511
  XXY=              2.8803  XXZ=              0.0097  XZZ=              4.1916  YZZ=              0.1822
  YYZ=             -0.0225  XYZ=             -0.0052
 Hexadecapole moment (field-independent basis, Debye-Ang**3):
 XXXX=          -1060.3339 YYYY=           -339.4100 ZZZZ=           -207.7746 XXXY=            -14.3587
 XXXZ=             -0.0272 YYYX=             -3.4719 YYYZ=             -0.0382 ZZZX=             -0.0340
 ZZZY=             -0.0778 XXYY=           -208.2760 XXZZ=           -185.7734 YYZZ=            -91.8180
 XXYZ=             -0.0373 YYXZ=              0.0651 ZZXY=             -1.1914
 N-N= 3.659449098663D+02 E-N=-2.042964448970D+03  KE= 5.509764752802D+02
 Calling FoFJK, ICntrl=      2527 FMM=F ISym2X=0 I1Cent= 0 IOpClX= 0 NMat=1 NMatS=1 NMatT=0.
 ***** Axes restored to original set *****
 -------------------------------------------------------------------
 Center     Atomic                   Forces (Hartrees/Bohr)
 Number     Number              X              Y              Z
 -------------------------------------------------------------------
      1        6          -0.032061875    0.000411782   -0.018754926
      2        1           0.003064889   -0.000002975    0.012014060
      3        1           0.012126103   -0.000003433   -0.003088838
      4        6           0.032109446    0.000501222    0.018635449
      5        1          -0.011972406    0.000008612    0.003268527
      6        1          -0.003286003    0.000008804   -0.012085223
      7        6          -0.022229578    0.000260370   -0.013732889
      8        6           0.022464771    0.000335939    0.013869154
      9        9          -0.010028049   -0.000395117    0.023553935
     10        9           0.014956516   -0.000398180   -0.020993987
     11        9          -0.014978874   -0.000362217    0.020784453
     12        9           0.009835058   -0.000364808   -0.023469715
 -------------------------------------------------------------------
 Cartesian Forces:  Max     0.032109446 RMS     0.014321556

 GradGradGradGradGradGradGradGradGradGradGradGradGradGradGradGradGradGrad
 Berny optimization.
 FormGI is forming the generalized inverse of G from B-inverse, IUseBI=4.
 Internal  Forces:  Max     0.020995723 RMS     0.007465047
 Search for a local minimum.
 Step number   1 out of a maximum of   86
 All quantities printed in internal units (Hartrees-Bohrs-Radians)
 Mixed Optimization -- RFO/linear search
 Second derivative matrix not updated -- first step.
 ITU=  0
     Eigenvalues ---    0.00562   0.00768   0.02973   0.02998   0.04068
     Eigenvalues ---    0.04918   0.05347   0.05919   0.06779   0.06928
     Eigenvalues ---    0.08170   0.08490   0.08989   0.10090   0.11201
     Eigenvalues ---    0.12859   0.14277   0.15786   0.18808   0.19401
     Eigenvalues ---    0.34593   0.35927   0.37230   0.37230   0.52048
     Eigenvalues ---    0.53247   0.55021   0.55021   0.55021   0.55021
 RFO step:  Lambda=-1.34779551D-02 EMin= 5.61849243D-03
 Linear search not attempted -- first point.
 Iteration  1 RMS(Cart)=  0.02673611 RMS(Int)=  0.00073173
 Iteration  2 RMS(Cart)=  0.00074001 RMS(Int)=  0.00008894
 Iteration  3 RMS(Cart)=  0.00000031 RMS(Int)=  0.00008894
 Variable       Old X    -DE/DX   Delta X   Delta X   Delta X     New X
                                 (Linear)    (Quad)   (Total)
    R1        2.02201   0.01202   0.00000   0.03115   0.03115   2.05316
    R2        2.02201   0.01205   0.00000   0.03125   0.03125   2.05325
    R3        2.56096  -0.01926   0.00000  -0.03579  -0.03578   2.52518
    R4        7.55890   0.00033   0.00000  -0.01496  -0.01496   7.54395
    R5        2.02201   0.01095   0.00000   0.03102   0.03108   2.05309
    R6        2.02201   0.01093   0.00000   0.03109   0.03115   2.05316
    R7        7.84679  -0.00356   0.00000  -0.02231  -0.02225   7.82454
    R8        7.55890  -0.00069   0.00000  -0.00689  -0.00699   7.55191
    R9        7.77055   0.00152   0.00000  -0.00048  -0.00048   7.77007
   R10        7.77111   0.00162   0.00000  -0.00003  -0.00003   7.77108
   R11        2.56096  -0.01941   0.00000  -0.03678  -0.03676   2.52420
   R12        2.55113  -0.02043   0.00000  -0.03625  -0.03625   2.51488
   R13        2.55113  -0.02100   0.00000  -0.03725  -0.03725   2.51388
   R14        2.55113  -0.02078   0.00000  -0.03687  -0.03687   2.51426
   R15        2.55113  -0.02022   0.00000  -0.03587  -0.03587   2.51526
    A1        2.09241  -0.00216   0.00000  -0.02291  -0.02291   2.06950
    A2        2.09836   0.00105   0.00000   0.01008   0.01009   2.10844
    A3        1.59841  -0.00011   0.00000   0.00028   0.00027   1.59868
    A4        2.09241   0.00111   0.00000   0.01283   0.01283   2.10524
    A5        1.59813  -0.00020   0.00000   0.00009   0.00008   1.59821
    A6        2.09836   0.00116   0.00000   0.00980   0.00978   2.10814
    A7        2.09241   0.00134   0.00000   0.01248   0.01246   2.10487
    A8        1.62567  -0.00058   0.00000  -0.00085  -0.00086   1.62482
    A9        2.09241  -0.00250   0.00000  -0.02228  -0.02224   2.07017
   A10        1.70894  -0.00097   0.00000   0.00070   0.00066   1.70960
   A11        1.70752  -0.00100   0.00000   0.00090   0.00086   1.70838
   A12        1.62567  -0.00096   0.00000   0.00252   0.00252   1.62819
   A13        1.54346   0.00032   0.00000  -0.00583  -0.00579   1.53768
   A14        1.54318   0.00021   0.00000  -0.00589  -0.00584   1.53734
   A15        1.70752   0.00073   0.00000   0.00551   0.00522   1.71274
   A16        1.70894   0.00058   0.00000   0.00501   0.00474   1.71368
   A17        2.09241   0.00584   0.00000   0.04701   0.04701   2.13942
   A18        2.09836   0.00521   0.00000   0.04288   0.04287   2.14122
   A19        2.09241  -0.01105   0.00000  -0.08989  -0.08989   2.00253
   A20        1.59841   0.00033   0.00000   0.00285   0.00292   1.60134
   A21        1.59813   0.00041   0.00000   0.00324   0.00331   1.60144
   A22        0.45433   0.00207   0.00000   0.00413   0.00408   0.45841
   A23        1.64852   0.00197   0.00000   0.00233   0.00237   1.65089
   A24        1.72660  -0.00145   0.00000  -0.00824  -0.00855   1.71805
   A25        1.33499  -0.00100   0.00000  -0.00097  -0.00071   1.33429
   A26        1.64717   0.00188   0.00000   0.00228   0.00232   1.64949
   A27        1.33529  -0.00106   0.00000  -0.00124  -0.00101   1.33428
   A28        1.72903  -0.00145   0.00000  -0.00870  -0.00906   1.71997
   A29        2.09836   0.00921   0.00000   0.04559   0.04557   2.14393
   A30        2.09241   0.01009   0.00000   0.04998   0.04996   2.14237
   A31        2.09241  -0.01930   0.00000  -0.09557  -0.09553   1.99688
    D1        0.00000   0.00054   0.00000   0.00027   0.00027   0.00027
    D2        3.14159  -0.00037   0.00000  -0.00050  -0.00050   3.14110
    D3        1.57080   0.00005   0.00000  -0.00032  -0.00032   1.57048
    D4        3.14159   0.00036   0.00000   0.00033   0.00033  -3.14126
    D5        0.00000  -0.00055   0.00000  -0.00043  -0.00043  -0.00043
    D6       -1.57080  -0.00013   0.00000  -0.00025  -0.00025  -1.57105
    D7       -2.09770  -0.00079   0.00000  -0.00867  -0.00867  -2.10637
    D8        2.09372  -0.00665   0.00000  -0.05547  -0.05547   2.03825
    D9        0.00000   0.00444   0.00000   0.03399   0.03399   0.03399
   D10        2.09176   0.00139   0.00000   0.01426   0.01426   2.10603
   D11        0.00000  -0.00447   0.00000  -0.03254  -0.03254  -0.03254
   D12       -2.09372   0.00662   0.00000   0.05692   0.05692  -2.03680
   D13       -3.13577  -0.00416   0.00000  -0.03602  -0.03607   3.11135
   D14        1.02162   0.00700   0.00000   0.05482   0.05484   1.07646
   D15       -1.00997  -0.00725   0.00000  -0.05879  -0.05881  -1.06878
   D16       -3.13577   0.00391   0.00000   0.03205   0.03211  -3.10366
   D17        2.09770   0.00949   0.00000   0.04694   0.04692   2.14462
   D18       -2.09176  -0.00981   0.00000  -0.04849  -0.04846  -2.14022
   D19        0.22747   0.00096   0.00000   0.00161   0.00159   0.22906
   D20       -0.22823  -0.00119   0.00000  -0.00262  -0.00259  -0.23082
   D21       -1.57080  -0.00054   0.00000   0.00008   0.00008  -1.57071
   D22        1.57080   0.00039   0.00000  -0.00083  -0.00082   1.56998
   D23        1.79827   0.00110   0.00000  -0.00108  -0.00105   1.79721
   D24        1.34257  -0.00105   0.00000  -0.00531  -0.00523   1.33733
   D25        0.00000  -0.00040   0.00000  -0.00262  -0.00256  -0.00256
   D26        3.14159   0.00053   0.00000  -0.00353  -0.00347   3.13813
   D27       -1.34332   0.00099   0.00000   0.00462   0.00454  -1.33878
   D28       -1.79903  -0.00116   0.00000   0.00039   0.00036  -1.79866
   D29        3.14159  -0.00051   0.00000   0.00309   0.00303  -3.13856
   D30        0.00000   0.00042   0.00000   0.00218   0.00213   0.00213
         Item               Value     Threshold  Converged?
 Maximum Force            0.020996     0.000450     NO 
 RMS     Force            0.007465     0.000300     NO 
 Maximum Displacement     0.114075     0.001800     NO 
 RMS     Displacement     0.026746     0.001200     NO 
 Predicted change in Energy=-7.161291D-03
 GradGradGradGradGradGradGradGradGradGradGradGradGradGradGradGradGradGrad

                          Input orientation:                          
 ---------------------------------------------------------------------
 Center     Atomic      Atomic             Coordinates (Angstroms)
 Number     Number       Type             X           Y           Z
 ---------------------------------------------------------------------
      1          6           0       -0.007477    0.004045   -0.004824
      2          1           0        0.003448    0.004508    1.081604
      3          1           0        0.941446    0.004620   -0.534071
      4          6           0       -1.162042    0.002864   -0.677571
      5          1           0       -2.112418    0.002594   -0.151119
      6          1           0       -1.169091    0.002866   -1.764033
      7          6           0       -0.197149    3.990073   -0.115941
      8          6           0       -1.352217    3.993142   -0.786786
      9          9           0        0.985719    3.985226   -0.725757
     10          9           0       -0.138302    3.985350    1.213039
     11          9           0       -1.414673    3.994477   -2.115809
     12          9           0       -2.537068    3.994110   -0.180372
 ---------------------------------------------------------------------
                    Distance matrix (angstroms):
                    1          2          3          4          5
     1  C    0.000000
     2  H    1.086483   0.000000
     3  H    1.086535   1.868219   0.000000
     4  C    1.336267   2.110229   2.108378   0.000000
     5  H    2.110019   2.448775   3.077782   1.086447   0.000000
     6  H    2.108118   3.077742   2.442780   1.086485   1.868517
     7  C    3.992085   4.166423   4.165941   4.140566   4.423740
     8  C    4.281669   4.608461   4.607935   3.996301   4.111745
     9  F    4.166052   4.480794   3.985464   4.524865   5.078387
    10  F    4.165465   3.985533   4.479337   4.525776   4.649775
    11  F    4.728637   5.306068   4.896136   4.250332   4.503552
    12  F    4.727607   4.895276   5.304827   4.250642   4.014148
                    6          7          8          9         10
     6  H    0.000000
     7  C    4.422521   0.000000
     8  C    4.112280   1.335749   0.000000
     9  F    4.645472   1.330818   2.338746   0.000000
    10  F    5.077958   1.330290   2.339433   2.241060   0.000000
    11  F    4.014600   2.341336   1.330490   2.773845   3.565169
    12  F    4.506592   2.340809   1.331018   3.564765   2.774121
                   11         12
    11  F    0.000000
    12  F    2.237338   0.000000
 Stoichiometry    C4H4F4
 Framework group  C1[X(C4H4F4)]
 Deg. of freedom    30
 Full point group                 C1      NOp   1
 Largest Abelian subgroup         C1      NOp   1
 Largest concise Abelian subgroup C1      NOp   1
                         Standard orientation:                         
 ---------------------------------------------------------------------
 Center     Atomic      Atomic             Coordinates (Angstroms)
 Number     Number       Type             X           Y           Z
 ---------------------------------------------------------------------
      1          6           0       -3.058939    0.524572   -0.001169
      2          1           0       -3.114991    1.076868   -0.935124
      3          1           0       -3.115009    1.076446    0.933095
      4          6           0       -2.923873   -0.804850    0.000652
      5          1           0       -2.867227   -1.359339   -0.931924
      6          1           0       -2.867697   -1.353780    0.936585
      7          6           0        0.928730    0.712297    0.000015
      8          6           0        1.067971   -0.616175   -0.000060
      9          9           0        0.850749    1.424599    1.121453
     10          9           0        0.850890    1.426480   -1.119607
     11          9           0        1.142762   -1.333830    1.117787
     12          9           0        1.142442   -1.332278   -1.119551
 ---------------------------------------------------------------------
 Rotational constants (GHZ):      1.8630963      1.1256009      0.9668798
 Standard basis: Aug-CC-pVTZ (5D, 7F)
 There are   540 symmetry adapted cartesian basis functions of A   symmetry.
 There are   460 symmetry adapted basis functions of A   symmetry.
   460 basis functions,   684 primitive gaussians,   540 cartesian basis functions
    32 alpha electrons       32 beta electrons
       nuclear repulsion energy       368.5747467469 Hartrees.
 NAtoms=   12 NActive=   12 NUniq=   12 SFac= 1.00D+00 NAtFMM=   60 NAOKFM=F Big=F
 Integral buffers will be    131072 words long.
 Raffenetti 2 integral format.
 Two-electron integral symmetry is turned on.
 Nuclear repulsion after empirical dispersion term =      368.5680250799 Hartrees.
 One-electron integrals computed using PRISM.
 NBasis=   460 RedAO= T EigKep=  4.44D-06  NBF=   460
 NBsUse=   460 1.00D-06 EigRej= -1.00D+00 NBFU=   460
 Initial guess from the checkpoint file:  "c2h4-c2f4-diff-aug.chk"
 B after Tr=     0.000000    0.000000    0.000000
         Rot=    0.999994    0.001477    0.000035   -0.003214 Ang=   0.41 deg.
 ExpMin= 2.53D-02 ExpMax= 1.95D+04 ExpMxC= 6.65D+02 IAcc=3 IRadAn=         5 AccDes= 0.00D+00
 Harris functional with IExCor= 3630 and IRadAn=       5 diagonalized for initial guess.
 HarFok:  IExCor= 3630 AccDes= 0.00D+00 IRadAn=         5 IDoV= 1 UseB2=F ITyADJ=14
 ICtDFT=  3500011 ScaDFX=  1.000000  1.000000  1.000000  1.000000
 FoFCou: FMM=F IPFlag=           0 FMFlag=      100000 FMFlg1=           0
         NFxFlg=           0 DoJE=T BraDBF=F KetDBF=T FulRan=T
         wScrn=  0.000000 ICntrl=     500 IOpCl=  0 I1Cent=   200000004 NGrid=           0
         NMat0=    1 NMatS0=      1 NMatT0=    0 NMatD0=    1 NMtDS0=    0 NMtDT0=    0
 Petite list used in FoFCou.
 Requested convergence on RMS density matrix=1.00D-08 within 128 cycles.
 Requested convergence on MAX density matrix=1.00D-06.
 Requested convergence on             energy=1.00D-06.
 No special actions if energy rises.
 SCF Done:  E(RB97D) =  -554.031232427     A.U. after   11 cycles
            NFock= 11  Conv=0.11D-08     -V/T= 2.0052
 Calling FoFJK, ICntrl=      2527 FMM=F ISym2X=0 I1Cent= 0 IOpClX= 0 NMat=1 NMatS=1 NMatT=0.
 ***** Axes restored to original set *****
 -------------------------------------------------------------------
 Center     Atomic                   Forces (Hartrees/Bohr)
 Number     Number              X              Y              Z
 -------------------------------------------------------------------
      1        6          -0.005720111    0.000411165   -0.003425226
      2        1           0.002115721    0.000002225    0.001096153
      3        1           0.002066943    0.000008889    0.001437366
      4        6           0.005878866    0.000575651    0.003333686
      5        1          -0.002049225   -0.000015978   -0.001321728
      6        1          -0.002318970   -0.000020826   -0.001135508
      7        6          -0.004991786   -0.000047172   -0.003372291
      8        6           0.004106282    0.000202129    0.002861459
      9        9          -0.001679245   -0.000271877    0.004977504
     10        9           0.003393360   -0.000286057   -0.003725092
     11        9          -0.002696077   -0.000286050    0.003549531
     12        9           0.001894242   -0.000272099   -0.004275854
 -------------------------------------------------------------------
 Cartesian Forces:  Max     0.005878866 RMS     0.002747105

 GradGradGradGradGradGradGradGradGradGradGradGradGradGradGradGradGradGrad
 Berny optimization.
 Using GEDIIS/GDIIS optimizer.
 FormGI is forming the generalized inverse of G from B-inverse, IUseBI=4.
 Internal  Forces:  Max     0.003774609 RMS     0.001351350
 Search for a local minimum.
 Step number   2 out of a maximum of   86
 All quantities printed in internal units (Hartrees-Bohrs-Radians)
 Mixed Optimization -- RFO/linear search
 Update second derivatives using D2CorX and points    1    2
 DE= -8.19D-03 DEPred=-7.16D-03 R= 1.14D+00
 TightC=F SS=  1.41D+00  RLast= 2.50D-01 DXNew= 5.0454D-01 7.5043D-01
 Trust test= 1.14D+00 RLast= 2.50D-01 DXMaxT set to 5.05D-01
 ITU=  1  0
 Use linear search instead of GDIIS.
     Eigenvalues ---    0.00562   0.00767   0.02975   0.02989   0.04046
     Eigenvalues ---    0.04914   0.05245   0.05890   0.06673   0.06791
     Eigenvalues ---    0.08015   0.08390   0.08734   0.09743   0.11057
     Eigenvalues ---    0.12624   0.14546   0.15748   0.18222   0.19402
     Eigenvalues ---    0.34618   0.35918   0.37230   0.37284   0.51076
     Eigenvalues ---    0.52783   0.53847   0.55021   0.55021   0.55028
 RFO step:  Lambda=-1.81154352D-04 EMin= 5.61974681D-03
 Quartic linear search produced a step of  0.21832.
 Iteration  1 RMS(Cart)=  0.01052693 RMS(Int)=  0.00005937
 Iteration  2 RMS(Cart)=  0.00005122 RMS(Int)=  0.00002699
 Iteration  3 RMS(Cart)=  0.00000000 RMS(Int)=  0.00002699
 Variable       Old X    -DE/DX   Delta X   Delta X   Delta X     New X
                                 (Linear)    (Quad)   (Total)
    R1        2.05316   0.00112   0.00680  -0.00335   0.00345   2.05660
    R2        2.05325   0.00111   0.00682  -0.00341   0.00341   2.05666
    R3        2.52518  -0.00175  -0.00781   0.00357  -0.00424   2.52094
    R4        7.54395  -0.00032  -0.00327  -0.03389  -0.03715   7.50680
    R5        2.05309   0.00110   0.00679  -0.00314   0.00366   2.05675
    R6        2.05316   0.00109   0.00680  -0.00318   0.00364   2.05680
    R7        7.82454  -0.00078  -0.00486  -0.02945  -0.03429   7.79024
    R8        7.55191  -0.00027  -0.00153  -0.02739  -0.02896   7.52295
    R9        7.77007   0.00016  -0.00011  -0.02790  -0.02800   7.74207
   R10        7.77108   0.00018  -0.00001  -0.02821  -0.02820   7.74288
   R11        2.52420  -0.00362  -0.00803  -0.00039  -0.00841   2.51579
   R12        2.51488  -0.00377  -0.00791  -0.00040  -0.00832   2.50657
   R13        2.51388  -0.00357  -0.00813   0.00026  -0.00787   2.50602
   R14        2.51426  -0.00342  -0.00805   0.00052  -0.00752   2.50674
   R15        2.51526  -0.00363  -0.00783  -0.00017  -0.00800   2.50726
    A1        2.06950  -0.00150  -0.00500  -0.01580  -0.02080   2.04870
    A2        2.10844   0.00072   0.00220   0.00723   0.00943   2.11788
    A3        1.59868   0.00005   0.00006   0.00003   0.00008   1.59877
    A4        2.10524   0.00078   0.00280   0.00857   0.01137   2.11661
    A5        1.59821   0.00004   0.00002  -0.00007  -0.00006   1.59814
    A6        2.10814   0.00082   0.00214   0.00709   0.00922   2.11736
    A7        2.10487   0.00092   0.00272   0.00845   0.01116   2.11603
    A8        1.62482  -0.00025  -0.00019  -0.00126  -0.00145   1.62337
    A9        2.07017  -0.00174  -0.00486  -0.01554  -0.02038   2.04979
   A10        1.70960   0.00010   0.00014   0.00227   0.00241   1.71201
   A11        1.70838   0.00011   0.00019   0.00241   0.00259   1.71097
   A12        1.62819   0.00007   0.00055   0.00198   0.00253   1.63071
   A13        1.53768  -0.00012  -0.00126  -0.00169  -0.00296   1.53472
   A14        1.53734  -0.00014  -0.00128  -0.00180  -0.00308   1.53426
   A15        1.71274   0.00013   0.00114  -0.00012   0.00094   1.71368
   A16        1.71368   0.00010   0.00103  -0.00015   0.00081   1.71449
   A17        2.13942   0.00135   0.01026   0.00237   0.01263   2.15206
   A18        2.14122   0.00123   0.00936   0.00225   0.01161   2.15283
   A19        2.00253  -0.00258  -0.01962  -0.00463  -0.02425   1.97827
   A20        1.60134  -0.00001   0.00064  -0.00035   0.00032   1.60166
   A21        1.60144   0.00001   0.00072  -0.00024   0.00052   1.60196
   A22        0.45841   0.00000   0.00089  -0.00119  -0.00034   0.45807
   A23        1.65089   0.00045   0.00052   0.00057   0.00110   1.65199
   A24        1.71805  -0.00057  -0.00187  -0.00187  -0.00383   1.71422
   A25        1.33429  -0.00012  -0.00015  -0.00086  -0.00095   1.33334
   A26        1.64949   0.00045   0.00051   0.00080   0.00132   1.65081
   A27        1.33428  -0.00014  -0.00022  -0.00101  -0.00116   1.33312
   A28        1.71997  -0.00058  -0.00198  -0.00197  -0.00406   1.71591
   A29        2.14393   0.00172   0.00995   0.00011   0.01005   2.15397
   A30        2.14237   0.00188   0.01091   0.00004   0.01094   2.15331
   A31        1.99688  -0.00360  -0.02086  -0.00015  -0.02099   1.97589
    D1        0.00027   0.00001   0.00006   0.00080   0.00087   0.00114
    D2        3.14110   0.00002  -0.00011  -0.00090  -0.00102   3.14008
    D3        1.57048   0.00000  -0.00007  -0.00001  -0.00007   1.57041
    D4       -3.14126  -0.00001   0.00007   0.00089   0.00097  -3.14029
    D5       -0.00043  -0.00001  -0.00009  -0.00081  -0.00092  -0.00135
    D6       -1.57105  -0.00002  -0.00006   0.00008   0.00003  -1.57102
    D7       -2.10637  -0.00067  -0.00189  -0.00707  -0.00896  -2.11533
    D8        2.03825  -0.00201  -0.01211  -0.00935  -0.02146   2.01679
    D9        0.03399   0.00056   0.00742  -0.00490   0.00252   0.03651
   D10        2.10603   0.00083   0.00311   0.00876   0.01187   2.11790
   D11       -0.03254  -0.00052  -0.00710   0.00647  -0.00063  -0.03317
   D12       -2.03680   0.00206   0.01243   0.01092   0.02335  -2.01345
   D13        3.11135  -0.00049  -0.00788   0.00451  -0.00338   3.10796
   D14        1.07646   0.00213   0.01197   0.00937   0.02134   1.09781
   D15       -1.06878  -0.00225  -0.01284  -0.01049  -0.02333  -1.09212
   D16       -3.10366   0.00038   0.00701  -0.00563   0.00139  -3.10227
   D17        2.14462   0.00177   0.01024   0.00029   0.01053   2.15516
   D18       -2.14022  -0.00183  -0.01058   0.00012  -0.01045  -2.15067
   D19        0.22906  -0.00001   0.00035  -0.00058  -0.00025   0.22881
   D20       -0.23082  -0.00002  -0.00056   0.00058   0.00004  -0.23078
   D21       -1.57071  -0.00003   0.00002   0.00127   0.00129  -1.56942
   D22        1.56998   0.00001  -0.00018  -0.00125  -0.00143   1.56855
   D23        1.79721  -0.00004  -0.00023  -0.00120  -0.00143   1.79578
   D24        1.33733  -0.00005  -0.00114  -0.00003  -0.00114   1.33619
   D25       -0.00256  -0.00005  -0.00056   0.00066   0.00011  -0.00245
   D26        3.13813  -0.00002  -0.00076  -0.00187  -0.00261   3.13552
   D27       -1.33878   0.00005   0.00099   0.00016   0.00112  -1.33766
   D28       -1.79866   0.00004   0.00008   0.00133   0.00141  -1.79725
   D29       -3.13856   0.00003   0.00066   0.00202   0.00267  -3.13589
   D30        0.00213   0.00007   0.00047  -0.00050  -0.00005   0.00208
         Item               Value     Threshold  Converged?
 Maximum Force            0.003775     0.000450     NO 
 RMS     Force            0.001351     0.000300     NO 
 Maximum Displacement     0.028124     0.001800     NO 
 RMS     Displacement     0.010525     0.001200     NO 
 Predicted change in Energy=-4.174662D-04
 GradGradGradGradGradGradGradGradGradGradGradGradGradGradGradGradGradGrad

                          Input orientation:                          
 ---------------------------------------------------------------------
 Center     Atomic      Atomic             Coordinates (Angstroms)
 Number     Number       Type             X           Y           Z
 ---------------------------------------------------------------------
      1          6           0       -0.008497    0.014088   -0.005732
      2          1           0        0.012623    0.015291    1.082370
      3          1           0        0.948007    0.015653   -0.524940
      4          6           0       -1.161065    0.011002   -0.677441
      5          1           0       -2.118001    0.010643   -0.158929
      6          1           0       -1.180181    0.011211   -1.765684
      7          6           0       -0.199267    3.980357   -0.117533
      8          6           0       -1.350751    3.985983   -0.785677
      9          9           0        0.987017    3.972773   -0.710874
     10          9           0       -0.124706    3.972750    1.206474
     11          9           0       -1.426866    3.987283   -2.109999
     12          9           0       -2.538137    3.986842   -0.193674
 ---------------------------------------------------------------------
                    Distance matrix (angstroms):
                    1          2          3          4          5
     1  C    0.000000
     2  H    1.088308   0.000000
     3  H    1.088338   1.859675   0.000000
     4  C    1.334022   2.115301   2.114583   0.000000
     5  H    2.115063   2.465848   3.087782   1.088386   0.000000
     6  H    2.114305   3.087753   2.463464   1.088411   1.860422
     7  C    3.972428   4.148061   4.147421   4.122418   4.409295
     8  C    4.264494   4.595082   4.595193   3.980976   4.096928
     9  F    4.142398   4.452733   3.961678   4.506773   5.064016
    10  F    4.141733   3.961785   4.450520   4.507618   4.640673
    11  F    4.714445   5.295288   4.891450   4.234818   4.483081
    12  F    4.713510   4.889568   5.294647   4.235288   3.998485
                    6          7          8          9         10
     6  H    0.000000
     7  C    4.408255   0.000000
     8  C    4.097355   1.331301   0.000000
     9  F    4.637170   1.326417   2.339002   0.000000
    10  F    5.063748   1.326126   2.339236   2.216337   0.000000
    11  F    3.998569   2.340293   1.326509   2.790089   3.562980
    12  F    4.485632   2.340118   1.326783   3.562921   2.790208
                   11         12
    11  F    0.000000
    12  F    2.215226   0.000000
 Stoichiometry    C4H4F4
 Framework group  C1[X(C4H4F4)]
 Deg. of freedom    30
 Full point group                 C1      NOp   1
 Largest Abelian subgroup         C1      NOp   1
 Largest concise Abelian subgroup C1      NOp   1
                         Standard orientation:                         
 ---------------------------------------------------------------------
 Center     Atomic      Atomic             Coordinates (Angstroms)
 Number     Number       Type             X           Y           Z
 ---------------------------------------------------------------------
      1          6           0       -3.045614    0.515092   -0.001213
      2          1           0       -3.103635    1.076676   -0.931628
      3          1           0       -3.103685    1.078639    0.928046
      4          6           0       -2.908516   -0.811865    0.001025
      5          1           0       -2.849170   -1.376004   -0.927850
      6          1           0       -2.849265   -1.371648    0.932567
      7          6           0        0.921933    0.711941    0.000132
      8          6           0        1.067409   -0.611388   -0.000168
      9          9           0        0.837775    1.435130    1.108869
     10          9           0        0.837869    1.436348   -1.107468
     11          9           0        1.145359   -1.337952    1.106925
     12          9           0        1.145050   -1.336899   -1.108301
 ---------------------------------------------------------------------
 Rotational constants (GHZ):      1.8660100      1.1387059      0.9697819
 Standard basis: Aug-CC-pVTZ (5D, 7F)
 There are   540 symmetry adapted cartesian basis functions of A   symmetry.
 There are   460 symmetry adapted basis functions of A   symmetry.
   460 basis functions,   684 primitive gaussians,   540 cartesian basis functions
    32 alpha electrons       32 beta electrons
       nuclear repulsion energy       369.5053925552 Hartrees.
 NAtoms=   12 NActive=   12 NUniq=   12 SFac= 1.00D+00 NAtFMM=   60 NAOKFM=F Big=F
 Integral buffers will be    131072 words long.
 Raffenetti 2 integral format.
 Two-electron integral symmetry is turned on.
 Nuclear repulsion after empirical dispersion term =      369.4987174834 Hartrees.
 One-electron integrals computed using PRISM.
 NBasis=   460 RedAO= T EigKep=  4.47D-06  NBF=   460
 NBsUse=   460 1.00D-06 EigRej= -1.00D+00 NBFU=   460
 Initial guess from the checkpoint file:  "c2h4-c2f4-diff-aug.chk"
 B after Tr=     0.000000    0.000000    0.000000
         Rot=    0.999998    0.000096   -0.000002   -0.001743 Ang=   0.20 deg.
 ExpMin= 2.53D-02 ExpMax= 1.95D+04 ExpMxC= 6.65D+02 IAcc=3 IRadAn=         5 AccDes= 0.00D+00
 Harris functional with IExCor= 3630 and IRadAn=       5 diagonalized for initial guess.
 HarFok:  IExCor= 3630 AccDes= 0.00D+00 IRadAn=         5 IDoV= 1 UseB2=F ITyADJ=14
 ICtDFT=  3500011 ScaDFX=  1.000000  1.000000  1.000000  1.000000
 FoFCou: FMM=F IPFlag=           0 FMFlag=      100000 FMFlg1=           0
         NFxFlg=           0 DoJE=T BraDBF=F KetDBF=T FulRan=T
         wScrn=  0.000000 ICntrl=     500 IOpCl=  0 I1Cent=   200000004 NGrid=           0
         NMat0=    1 NMatS0=      1 NMatT0=    0 NMatD0=    1 NMtDS0=    0 NMtDT0=    0
 Petite list used in FoFCou.
 Requested convergence on RMS density matrix=1.00D-08 within 128 cycles.
 Requested convergence on MAX density matrix=1.00D-06.
 Requested convergence on             energy=1.00D-06.
 No special actions if energy rises.
 SCF Done:  E(RB97D) =  -554.031651089     A.U. after    8 cycles
            NFock=  8  Conv=0.94D-08     -V/T= 2.0051
 Calling FoFJK, ICntrl=      2527 FMM=F ISym2X=0 I1Cent= 0 IOpClX= 0 NMat=1 NMatS=1 NMatT=0.
 ***** Axes restored to original set *****
 -------------------------------------------------------------------
 Center     Atomic                   Forces (Hartrees/Bohr)
 Number     Number              X              Y              Z
 -------------------------------------------------------------------
      1        6          -0.001627187    0.000400058   -0.000990727
      2        1           0.000631795   -0.000001969    0.000112173
      3        1           0.000428946    0.000006275    0.000552237
      4        6           0.001723520    0.000685912    0.000956324
      5        1          -0.000412022   -0.000057460   -0.000583556
      6        1          -0.000775640   -0.000064308   -0.000064093
      7        6          -0.000553984   -0.000192533   -0.000561509
      8        6           0.000142028    0.000062258    0.000313469
      9        9           0.000682940   -0.000203889   -0.000247036
     10        9           0.000093544   -0.000215557    0.000854132
     11        9           0.000191938   -0.000214628   -0.000834904
     12        9          -0.000525878   -0.000204159    0.000493490
 -------------------------------------------------------------------
 Cartesian Forces:  Max     0.001723520 RMS     0.000615678

 GradGradGradGradGradGradGradGradGradGradGradGradGradGradGradGradGradGrad
 Berny optimization.
 Using GEDIIS/GDIIS optimizer.
 FormGI is forming the generalized inverse of G from B-inverse, IUseBI=4.
 Internal  Forces:  Max     0.000857105 RMS     0.000258146
 Search for a local minimum.
 Step number   3 out of a maximum of   86
 All quantities printed in internal units (Hartrees-Bohrs-Radians)
 Mixed Optimization -- En-DIIS/RFO-DIIS
 Update second derivatives using D2CorX and points    1    2    3
 DE= -4.19D-04 DEPred=-4.17D-04 R= 1.00D+00
 TightC=F SS=  1.41D+00  RLast= 1.04D-01 DXNew= 8.4853D-01 3.1115D-01
 Trust test= 1.00D+00 RLast= 1.04D-01 DXMaxT set to 5.05D-01
 ITU=  1  1  0
 Use linear search instead of GDIIS.
     Eigenvalues ---    0.00529   0.00770   0.02970   0.02979   0.04024
     Eigenvalues ---    0.04907   0.05201   0.05882   0.06632   0.06685
     Eigenvalues ---    0.07441   0.08362   0.08669   0.09472   0.11745
     Eigenvalues ---    0.12562   0.14619   0.15736   0.19387   0.19659
     Eigenvalues ---    0.34659   0.35910   0.37230   0.37286   0.51980
     Eigenvalues ---    0.52763   0.55011   0.55021   0.55022   0.57342
 RFO step:  Lambda=-6.10939339D-05 EMin= 5.28688673D-03
 Quartic linear search produced a step of  0.08908.
 Iteration  1 RMS(Cart)=  0.00860644 RMS(Int)=  0.00000579
 Iteration  2 RMS(Cart)=  0.00000506 RMS(Int)=  0.00000253
 Iteration  3 RMS(Cart)=  0.00000000 RMS(Int)=  0.00000253
 Variable       Old X    -DE/DX   Delta X   Delta X   Delta X     New X
                                 (Linear)    (Quad)   (Total)
    R1        2.05660   0.00013   0.00031   0.00047   0.00078   2.05738
    R2        2.05666   0.00012   0.00030   0.00044   0.00075   2.05741
    R3        2.52094  -0.00060  -0.00038  -0.00152  -0.00190   2.51904
    R4        7.50680  -0.00045  -0.00331  -0.04155  -0.04486   7.46195
    R5        2.05675   0.00010   0.00033   0.00030   0.00062   2.05737
    R6        2.05680   0.00009   0.00032   0.00027   0.00060   2.05740
    R7        7.79024  -0.00025  -0.00305  -0.03567  -0.03873   7.75151
    R8        7.52295  -0.00021  -0.00258  -0.03435  -0.03693   7.48603
    R9        7.74207  -0.00005  -0.00249  -0.03092  -0.03341   7.70866
   R10        7.74288  -0.00004  -0.00251  -0.03095  -0.03346   7.70942
   R11        2.51579   0.00024  -0.00075   0.00055  -0.00020   2.51560
   R12        2.50657   0.00072  -0.00074   0.00139   0.00065   2.50722
   R13        2.50602   0.00086  -0.00070   0.00164   0.00094   2.50695
   R14        2.50674   0.00082  -0.00067   0.00157   0.00090   2.50764
   R15        2.50726   0.00069  -0.00071   0.00133   0.00062   2.50788
    A1        2.04870  -0.00045  -0.00185  -0.00548  -0.00734   2.04136
    A2        2.11788   0.00021   0.00084   0.00237   0.00321   2.12109
    A3        1.59877  -0.00004   0.00001  -0.00028  -0.00028   1.59849
    A4        2.11661   0.00024   0.00101   0.00311   0.00412   2.12073
    A5        1.59814  -0.00005  -0.00001  -0.00037  -0.00038   1.59776
    A6        2.11736   0.00028   0.00082   0.00252   0.00334   2.12070
    A7        2.11603   0.00032   0.00099   0.00327   0.00426   2.12029
    A8        1.62337  -0.00003  -0.00013  -0.00146  -0.00158   1.62179
    A9        2.04979  -0.00060  -0.00182  -0.00579  -0.00761   2.04219
   A10        1.71201   0.00017   0.00021   0.00260   0.00282   1.71483
   A11        1.71097   0.00017   0.00023   0.00269   0.00293   1.71389
   A12        1.63071  -0.00006   0.00023   0.00115   0.00137   1.63209
   A13        1.53472  -0.00003  -0.00026  -0.00123  -0.00150   1.53322
   A14        1.53426  -0.00004  -0.00027  -0.00128  -0.00156   1.53270
   A15        1.71368  -0.00006   0.00008  -0.00042  -0.00034   1.71334
   A16        1.71449  -0.00007   0.00007  -0.00048  -0.00040   1.71408
   A17        2.15206   0.00004   0.00113   0.00031   0.00143   2.15349
   A18        2.15283   0.00000   0.00103  -0.00010   0.00094   2.15377
   A19        1.97827  -0.00004  -0.00216  -0.00022  -0.00238   1.97589
   A20        1.60166  -0.00006   0.00003  -0.00044  -0.00041   1.60125
   A21        1.60196  -0.00005   0.00005  -0.00035  -0.00030   1.60166
   A22        0.45807  -0.00006  -0.00003   0.00111   0.00108   0.45915
   A23        1.65199   0.00003   0.00010  -0.00011  -0.00001   1.65198
   A24        1.71422  -0.00008  -0.00034  -0.00040  -0.00075   1.71348
   A25        1.33334  -0.00007  -0.00008  -0.00153  -0.00161   1.33173
   A26        1.65081   0.00003   0.00012  -0.00002   0.00010   1.65091
   A27        1.33312  -0.00008  -0.00010  -0.00163  -0.00173   1.33138
   A28        1.71591  -0.00009  -0.00036  -0.00048  -0.00084   1.71506
   A29        2.15397  -0.00017   0.00090  -0.00097  -0.00007   2.15390
   A30        2.15331  -0.00011   0.00097  -0.00063   0.00034   2.15365
   A31        1.97589   0.00028  -0.00187   0.00159  -0.00028   1.97561
    D1        0.00114  -0.00005   0.00008   0.00001   0.00009   0.00123
    D2        3.14008   0.00010  -0.00009   0.00101   0.00092   3.14100
    D3        1.57041   0.00002  -0.00001   0.00050   0.00049   1.57090
    D4       -3.14029  -0.00009   0.00009  -0.00097  -0.00088  -3.14118
    D5       -0.00135   0.00006  -0.00008   0.00003  -0.00006  -0.00141
    D6       -1.57102  -0.00002   0.00000  -0.00048  -0.00048  -1.57150
    D7       -2.11533  -0.00020  -0.00080  -0.00220  -0.00300  -2.11832
    D8        2.01679  -0.00024  -0.00191  -0.00244  -0.00436   2.01243
    D9        0.03651  -0.00020   0.00022  -0.00237  -0.00214   0.03436
   D10        2.11790   0.00026   0.00106   0.00332   0.00438   2.12228
   D11       -0.03317   0.00022  -0.00006   0.00307   0.00302  -0.03015
   D12       -2.01345   0.00026   0.00208   0.00315   0.00523  -2.00822
   D13        3.10796   0.00021  -0.00030   0.00176   0.00146   3.10942
   D14        1.09781   0.00028   0.00190   0.00219   0.00409   1.10190
   D15       -1.09212  -0.00033  -0.00208  -0.00297  -0.00505  -1.09716
   D16       -3.10227  -0.00026   0.00012  -0.00254  -0.00241  -3.10468
   D17        2.15516  -0.00015   0.00094  -0.00076   0.00018   2.15534
   D18       -2.15067   0.00013  -0.00093   0.00080  -0.00013  -2.15081
   D19        0.22881  -0.00003  -0.00002   0.00051   0.00049   0.22930
   D20       -0.23078   0.00002   0.00000  -0.00060  -0.00059  -0.23137
   D21       -1.56942   0.00009   0.00012   0.00131   0.00142  -1.56800
   D22        1.56855  -0.00009  -0.00013  -0.00135  -0.00148   1.56707
   D23        1.79578  -0.00011  -0.00013  -0.00019  -0.00031   1.79547
   D24        1.33619  -0.00005  -0.00010  -0.00130  -0.00140   1.33480
   D25       -0.00245   0.00001   0.00001   0.00061   0.00062  -0.00183
   D26        3.13552  -0.00017  -0.00023  -0.00205  -0.00228   3.13324
   D27       -1.33766   0.00005   0.00010   0.00130   0.00140  -1.33626
   D28       -1.79725   0.00011   0.00013   0.00019   0.00032  -1.79693
   D29       -3.13589   0.00018   0.00024   0.00209   0.00233  -3.13356
   D30        0.00208   0.00000   0.00000  -0.00056  -0.00057   0.00151
         Item               Value     Threshold  Converged?
 Maximum Force            0.000857     0.000450     NO 
 RMS     Force            0.000258     0.000300     YES
 Maximum Displacement     0.024914     0.001800     NO 
 RMS     Displacement     0.008607     0.001200     NO 
 Predicted change in Energy=-3.475996D-05
 GradGradGradGradGradGradGradGradGradGradGradGradGradGradGradGradGradGrad

                          Input orientation:                          
 ---------------------------------------------------------------------
 Center     Atomic      Atomic             Coordinates (Angstroms)
 Number     Number       Type             X           Y           Z
 ---------------------------------------------------------------------
      1          6           0       -0.009431    0.026610   -0.006433
      2          1           0        0.015151    0.028272    1.082008
      3          1           0        0.949571    0.028788   -0.521845
      4          6           0       -1.161102    0.021231   -0.677676
      5          1           0       -2.120073    0.019440   -0.162243
      6          1           0       -1.184824    0.020124   -1.766144
      7          6           0       -0.198980    3.969184   -0.117543
      8          6           0       -1.350493    3.976668   -0.785411
      9          9           0        0.988332    3.959667   -0.709571
     10          9           0       -0.122909    3.959566    1.206862
     11          9           0       -1.426800    3.977394   -2.110198
     12          9           0       -2.538265    3.976932   -0.193445
 ---------------------------------------------------------------------
                    Distance matrix (angstroms):
                    1          2          3          4          5
     1  C    0.000000
     2  H    1.088720   0.000000
     3  H    1.088732   1.856202   0.000000
     4  C    1.333019   2.116626   2.116431   0.000000
     5  H    2.116398   2.471320   3.090650   1.088715   0.000000
     6  H    2.116169   3.090627   2.470627   1.088727   1.856661
     7  C    3.948691   4.124992   4.124239   4.101922   4.392388
     8  C    4.243608   4.576250   4.576628   3.961434   4.079246
     9  F    4.118115   4.428623   3.935550   4.486910   5.048479
    10  F    4.117415   3.935698   4.426020   4.487740   4.624684
    11  F    4.695047   5.278728   4.874577   4.215916   4.465486
    12  F    4.694147   4.872230   5.278322   4.216471   3.979648
                    6          7          8          9         10
     6  H    0.000000
     7  C    4.391451   0.000000
     8  C    4.079647   1.331198   0.000000
     9  F    4.621575   1.326762   2.340117   0.000000
    10  F    5.048329   1.326623   2.340172   2.215304   0.000000
    11  F    3.979562   2.340574   1.326984   2.791941   3.564174
    12  F    4.467830   2.340529   1.327111   3.564207   2.791971
                   11         12
    11  F    0.000000
    12  F    2.215693   0.000000
 Stoichiometry    C4H4F4
 Framework group  C1[X(C4H4F4)]
 Deg. of freedom    30
 Full point group                 C1      NOp   1
 Largest Abelian subgroup         C1      NOp   1
 Largest concise Abelian subgroup C1      NOp   1
                         Standard orientation:                         
 ---------------------------------------------------------------------
 Center     Atomic      Atomic             Coordinates (Angstroms)
 Number     Number       Type             X           Y           Z
 ---------------------------------------------------------------------
      1          6           0       -3.028349    0.510126   -0.001207
      2          1           0       -3.087222    1.074741   -0.930215
      3          1           0       -3.087258    1.077738    0.925985
      4          6           0       -2.891302   -0.815828    0.001166
      5          1           0       -2.832012   -1.383362   -0.926029
      6          1           0       -2.831955   -1.379658    0.930628
      7          6           0        0.915136    0.712830    0.000224
      8          6           0        1.064778   -0.609931   -0.000242
      9          9           0        0.827592    1.437273    1.108292
     10          9           0        0.827659    1.438298   -1.107012
     11          9           0        1.143456   -1.336743    1.107206
     12          9           0        1.143167   -1.335789   -1.108487
 ---------------------------------------------------------------------
 Rotational constants (GHZ):      1.8652338      1.1487981      0.9767382
 Standard basis: Aug-CC-pVTZ (5D, 7F)
 There are   540 symmetry adapted cartesian basis functions of A   symmetry.
 There are   460 symmetry adapted basis functions of A   symmetry.
   460 basis functions,   684 primitive gaussians,   540 cartesian basis functions
    32 alpha electrons       32 beta electrons
       nuclear repulsion energy       369.8888495531 Hartrees.
 NAtoms=   12 NActive=   12 NUniq=   12 SFac= 1.00D+00 NAtFMM=   60 NAOKFM=F Big=F
 Integral buffers will be    131072 words long.
 Raffenetti 2 integral format.
 Two-electron integral symmetry is turned on.
 Nuclear repulsion after empirical dispersion term =      369.8821312728 Hartrees.
 One-electron integrals computed using PRISM.
 NBasis=   460 RedAO= T EigKep=  4.45D-06  NBF=   460
 NBsUse=   460 1.00D-06 EigRej= -1.00D+00 NBFU=   460
 Initial guess from the checkpoint file:  "c2h4-c2f4-diff-aug.chk"
 B after Tr=     0.000000    0.000000    0.000000
         Rot=    0.999999    0.000024   -0.000001   -0.001019 Ang=   0.12 deg.
 ExpMin= 2.53D-02 ExpMax= 1.95D+04 ExpMxC= 6.65D+02 IAcc=3 IRadAn=         5 AccDes= 0.00D+00
 Harris functional with IExCor= 3630 and IRadAn=       5 diagonalized for initial guess.
 HarFok:  IExCor= 3630 AccDes= 0.00D+00 IRadAn=         5 IDoV= 1 UseB2=F ITyADJ=14
 ICtDFT=  3500011 ScaDFX=  1.000000  1.000000  1.000000  1.000000
 FoFCou: FMM=F IPFlag=           0 FMFlag=      100000 FMFlg1=           0
         NFxFlg=           0 DoJE=T BraDBF=F KetDBF=T FulRan=T
         wScrn=  0.000000 ICntrl=     500 IOpCl=  0 I1Cent=   200000004 NGrid=           0
         NMat0=    1 NMatS0=      1 NMatT0=    0 NMatD0=    1 NMtDS0=    0 NMtDT0=    0
 Petite list used in FoFCou.
 Requested convergence on RMS density matrix=1.00D-08 within 128 cycles.
 Requested convergence on MAX density matrix=1.00D-06.
 Requested convergence on             energy=1.00D-06.
 No special actions if energy rises.
 SCF Done:  E(RB97D) =  -554.031708126     A.U. after    7 cycles
            NFock=  7  Conv=0.63D-08     -V/T= 2.0051
 Calling FoFJK, ICntrl=      2527 FMM=F ISym2X=0 I1Cent= 0 IOpClX= 0 NMat=1 NMatS=1 NMatT=0.
 ***** Axes restored to original set *****
 -------------------------------------------------------------------
 Center     Atomic                   Forces (Hartrees/Bohr)
 Number     Number              X              Y              Z
 -------------------------------------------------------------------
      1        6          -0.000122505    0.000344842   -0.000083368
      2        1           0.000112439    0.000026344   -0.000073738
      3        1          -0.000006175    0.000033004    0.000150949
      4        6           0.000213259    0.000631253    0.000105015
      5        1          -0.000036249   -0.000033776   -0.000178766
      6        1          -0.000193412   -0.000039083    0.000060961
      7        6           0.000132343   -0.000283200   -0.000027283
[...]
     Eigenvalues ---    0.38733   0.43367   0.48016   0.55289   0.60681
 Eigenvalue     1 is  -9.01D-06 should be greater than     0.000000 Eigenvector:
                          D10       D7        D11       D12       D8
   1                   -0.28025  -0.27902  -0.27367  -0.27355  -0.27244
                          D9        D17       D18       D13       D14
   1                   -0.27233  -0.26658  -0.26657  -0.23264  -0.23264
 Angle between quadratic step and forces=  77.32 degrees.
 Linear search not attempted -- first point.
 Iteration  1 RMS(Cart)=  0.00158804 RMS(Int)=  0.00000223
 Iteration  2 RMS(Cart)=  0.00000200 RMS(Int)=  0.00000090
 Iteration  3 RMS(Cart)=  0.00000000 RMS(Int)=  0.00000090
 Variable       Old X    -DE/DX   Delta X   Delta X   Delta X     New X
                                 (Linear)    (Quad)   (Total)
    R1        2.05683   0.00000   0.00000   0.00001   0.00001   2.05683
    R2        2.05683   0.00000   0.00000   0.00000   0.00000   2.05683
    R3        2.51845   0.00000   0.00000  -0.00001  -0.00001   2.51844
    R4        6.67132   0.00000   0.00000  -0.00057  -0.00057   6.67075
    R5        2.05718   0.00000   0.00000   0.00001   0.00001   2.05719
    R6        2.05717   0.00000   0.00000   0.00001   0.00001   2.05719
    R7        6.27122   0.00000   0.00000   0.00034   0.00034   6.27156
    R8        6.46703   0.00000   0.00000   0.00071   0.00071   6.46774
    R9        6.42303   0.00000   0.00000  -0.00418  -0.00418   6.41885
   R10        6.41076   0.00000   0.00000   0.00608   0.00608   6.41684
   R11        2.51512   0.00000   0.00000   0.00000   0.00000   2.51512
   R12        2.50562   0.00000   0.00000  -0.00003  -0.00003   2.50559
   R13        2.50560  -0.00001   0.00000   0.00001   0.00001   2.50561
   R14        2.50976   0.00000   0.00000  -0.00001  -0.00001   2.50975
   R15        2.50973   0.00000   0.00000   0.00001   0.00001   2.50975
    A1        2.04032   0.00000   0.00000  -0.00002  -0.00002   2.04029
    A2        2.12143   0.00000   0.00000   0.00000   0.00000   2.12143
    A3        1.75085   0.00000   0.00000  -0.00315  -0.00315   1.74770
    A4        2.12142   0.00000   0.00000   0.00003   0.00002   2.12144
    A5        1.74611   0.00000   0.00000   0.00285   0.00285   1.74897
    A6        2.12189   0.00000   0.00000   0.00000   0.00000   2.12189
    A7        2.12186   0.00000   0.00000   0.00002   0.00002   2.12188
    A8        1.93026   0.00000   0.00000  -0.00041  -0.00041   1.92985
    A9        2.03943   0.00000   0.00000  -0.00002  -0.00001   2.03942
   A10        1.59347   0.00000   0.00000  -0.00300  -0.00300   1.59047
   A11        1.58857   0.00000   0.00000   0.00324   0.00324   1.59181
   A12        1.83586   0.00000   0.00000   0.00019   0.00019   1.83605
   A13        1.42182   0.00000   0.00000  -0.00065  -0.00065   1.42117
   A14        1.42214   0.00000   0.00000   0.00050   0.00050   1.42264
   A15        1.63348   0.00000   0.00000  -0.00021  -0.00021   1.63328
   A16        1.63250   0.00000   0.00000   0.00008   0.00008   1.63258
   A17        2.15209   0.00000   0.00000   0.00002   0.00002   2.15211
   A18        2.15213   0.00000   0.00000  -0.00003  -0.00003   2.15210
   A19        1.97892   0.00000   0.00000   0.00002   0.00002   1.97893
   A20        1.71214   0.00000   0.00000  -0.00012  -0.00012   1.71203
   A21        1.71109   0.00000   0.00000   0.00027   0.00027   1.71135
   A22        0.55328   0.00000   0.00000  -0.00008  -0.00008   0.55320
   A23        1.46425   0.00000   0.00000  -0.00067  -0.00067   1.46358
   A24        1.85300   0.00000   0.00000   0.00054   0.00054   1.85354
   A25        1.39093   0.00000   0.00000   0.00023   0.00023   1.39116
   A26        1.46501   0.00000   0.00000   0.00041   0.00041   1.46542
   A27        1.39169   0.00000   0.00000   0.00000   0.00000   1.39169
   A28        1.85134   0.00000   0.00000  -0.00045  -0.00045   1.85089
   A29        2.15310   0.00000   0.00000   0.00001   0.00001   2.15311
   A30        2.15312   0.00000   0.00000  -0.00001  -0.00001   2.15312
   A31        1.97678   0.00000   0.00000  -0.00001  -0.00001   1.97678
    D1       -0.00436   0.00000   0.00000   0.00009   0.00009  -0.00426
    D2        3.13941   0.00000   0.00000  -0.00008  -0.00008   3.13932
    D3        1.57124   0.00000   0.00000  -0.00310  -0.00310   1.56814
    D4       -3.13935   0.00000   0.00000   0.00004   0.00004  -3.13931
    D5        0.00441   0.00000   0.00000  -0.00014  -0.00014   0.00427
    D6       -1.56375   0.00000   0.00000  -0.00316  -0.00316  -1.56691
    D7       -2.09615   0.00000   0.00000  -0.00237  -0.00237  -2.09852
    D8        2.05219   0.00000   0.00000  -0.00224  -0.00224   2.04995
    D9        0.03881   0.00000   0.00000  -0.00230  -0.00230   0.03651
   D10        2.09346   0.00000   0.00000  -0.00226  -0.00226   2.09119
   D11       -0.04138   0.00000   0.00000  -0.00213  -0.00213  -0.04352
   D12       -2.05477   0.00000   0.00000  -0.00219  -0.00219  -2.05696
   D13        3.11194   0.00000   0.00000  -0.00129  -0.00129   3.11065
   D14        1.12711   0.00000   0.00000  -0.00130  -0.00130   1.12582
   D15       -1.13115   0.00000   0.00000  -0.00129  -0.00129  -1.13244
   D16       -3.11598   0.00000   0.00000  -0.00130  -0.00130  -3.11728
   D17        2.13553   0.00000   0.00000  -0.00139  -0.00139   2.13415
   D18       -2.14015   0.00000   0.00000  -0.00136  -0.00136  -2.14151
   D19        0.27913   0.00000   0.00000   0.00097   0.00097   0.28010
   D20       -0.27736   0.00000   0.00000   0.00104   0.00104  -0.27632
   D21       -1.55976   0.00000   0.00000   0.00076   0.00076  -1.55901
   D22        1.56004   0.00000   0.00000   0.00077   0.00077   1.56081
   D23        1.84425   0.00000   0.00000   0.00031   0.00030   1.84456
   D24        1.28776   0.00000   0.00000   0.00038   0.00038   1.28814
   D25        0.00536   0.00000   0.00000   0.00009   0.00009   0.00545
   D26        3.12516   0.00000   0.00000   0.00011   0.00011   3.12527
   D27       -1.28639   0.00000   0.00000   0.00024   0.00024  -1.28615
   D28       -1.84289   0.00000   0.00000   0.00031   0.00032  -1.84257
   D29       -3.12529   0.00000   0.00000   0.00003   0.00003  -3.12526
   D30       -0.00548   0.00000   0.00000   0.00005   0.00005  -0.00544
         Item               Value     Threshold  Converged?
 Maximum Force            0.000005     0.000450     YES
 RMS     Force            0.000001     0.000300     YES
 Maximum Displacement     0.006114     0.001800     NO 
 RMS     Displacement     0.001588     0.001200     NO 
 Predicted change in Energy=-1.787781D-08
 GradGradGradGradGradGradGradGradGradGradGradGradGradGradGradGradGradGrad

 1\1\GINC-TC-NODE159\Freq\RB97D\Aug-CC-pVTZ\C4H4F4\MAXB2\10-Nov-2016\0\
 \#N Geom=AllCheck Guess=TCheck SCRF=Check GenChk RB97D/Aug-CC-pVTZ Fre
 q\\Title\\0,1\C,0.0763719017,0.1270824017,0.0419534805\H,0.0917008482,
 0.0000548298,1.1228321365\H,1.0228082813,0.0055766476,-0.4816529165\C,
 -1.0475962827,0.4248681903,-0.6092914966\H,-1.9940316478,0.5485220284,
 -0.0857996858\H,-1.0629916445,0.5539821921,-1.6901075911\C,-0.30351135
 67,3.6300205404,-0.1775993527\C,-1.442414377,3.8163410071,-0.840616491
 2\F,0.8763103101,3.5223124843,-0.7729827296\F,-0.238707946,3.521862807
 1,1.1422972765\F,-1.5108102148,3.9069164218,-2.1638651649\F,-2.6269508
 425,3.9063346596,-0.2468070422\\Version=ES64L-G09RevD.01\State=1-A\HF=
 -554.0325245\RMSD=7.547e-09\RMSF=6.954e-06\ZeroPoint=0.0708657\Thermal
 =0.0815145\Dipole=0.0340574,-0.0527694,0.0200233\DipoleDeriv=0.0380875
 ,-0.0511383,-0.0550706,-0.0390282,-0.3083421,-0.0239789,-0.0550398,-0.
 0310407,0.1009269,0.0443417,0.0186199,0.02068,0.0160618,0.1427979,0.01
 51176,-0.0186526,0.0329132,-0.0912962,-0.0571669,0.036937,0.0394254,0.
 0200537,0.1429967,0.007167,0.0786869,0.0007707,0.0100354,0.0137687,-0.
 0522645,-0.058722,-0.0541079,-0.2545723,-0.0326279,-0.0587054,-0.03195
 91,0.080208,-0.059326,0.0439331,0.0362935,0.038463,0.143512,0.003138,0
 .072178,-0.0057358,0.0091703,0.0388325,0.0163943,0.0160046,0.0216731,0
 .1434555,0.0330459,-0.0198534,0.0422987,-0.0889229,1.1144125,-0.078499
 4,-0.1044183,-0.1408128,0.1767846,-0.0822813,-0.1044064,-0.0460023,1.2
 331329,1.1896145,-0.2206957,-0.0794428,-0.077517,0.062385,-0.0455237,-
 0.0793859,-0.1288509,1.2797024,-0.9057313,0.0764656,0.166455,0.081271,
 -0.0769806,0.0013307,0.3118967,-0.0050975,-0.2905377,-0.2351114,0.0333
 098,-0.0688943,0.0413237,-0.076988,0.0703236,-0.2143628,0.0692876,-0.9
 611758,-0.2485158,0.040627,-0.0746954,0.0261608,-0.0476111,0.0620041,-
 0.2263541,0.1340752,-0.9829724,-0.9332062,0.1363111,0.1623849,0.066458
 9,-0.0474375,-0.0077152,0.3139987,-0.030659,-0.2982709\Polar=65.980886
 5,-5.4644048,52.7855971,6.945738,-3.186336,58.0486005\PolarDeriv=1.803
 8469,0.2555012,10.0888755,4.3917974,-0.3674469,1.7468464,-0.4286767,4.
 0537834,-6.6586606,-0.3491805,2.3321921,0.0262117,5.352864,-0.3681218,
 5.8264879,0.084912,0.7393097,-3.2870282,1.381713,-0.5683815,0.1383114,
 0.9041051,-0.1212306,0.0339988,-0.4605255,-0.058036,-0.0818373,-0.2265
 667,0.5630699,-0.9346074,1.1807197,-0.347078,1.3688087,1.4767772,-1.64
 0177,8.635896,7.5833025,-1.5500562,1.2462372,-1.6273751,0.2222575,1.65
 11601,-0.9776506,0.4503736,-0.0678408,0.0770273,-0.3247353,-0.3768394,
 -3.0164283,0.4382792,-0.5511049,2.126694,-0.6247436,-0.6355843,-2.0066
 221,-0.8013591,-9.2447874,-4.280105,0.1037406,-1.8335484,-0.6842613,-4
 .6404982,9.4954324,0.0172557,-2.6778461,-0.7549364,-5.2603585,0.105242
 3,-5.3410794,-0.1436625,-0.9840593,3.0169931,-6.9912898,0.7049733,-1.3
 012317,1.5994346,-0.0585904,-1.5905733,0.8218167,-0.2994715,-0.1640752
 ,0.0027504,0.3889903,0.2100176,2.9234734,-0.1226263,0.5193221,-2.02830
 55,0.3158256,0.624482,-1.2520793,0.3332347,-0.1942221,-0.783875,0.0875
 526,0.0697462,0.3638935,0.1903137,-0.1584339,0.2700744,-0.4564548,0.70
 20916,-1.0603684,0.1611715,-1.3997622,-1.2944707,0.7199123,-8.1286459,
 4.8643296,0.0279103,7.3369942,3.3448591,-0.058301,0.8877798,0.5466013,
 6.1621369,-6.4463059,-0.0016875,3.5855774,0.5522866,2.6762721,-0.05908
 83,4.2732975,2.035417,0.0975358,0.6735624,-4.9829018,0.6664245,-8.0578
 545,-3.4042789,0.2563424,-0.9085296,0.7425658,-5.6445704,3.370223,0.39
 93661,-3.2858828,0.285339,-2.7181939,0.2564811,-4.6878616,-2.0858564,0
 .3704342,-0.7106624,6.108914,0.1126398,-0.1608984,-1.1814152,-0.085352
 1,2.1130249,-0.2148598,0.4586492,0.2696559,-0.0786087,-0.889713,-0.198
 7177,-1.4357628,-0.3069298,-0.3126287,2.0677317,-0.2345261,-1.7561272,
 1.1085819,-0.3190182,-0.3483669,1.5890813,-0.0622502,0.1758849,-0.2696
 808,-0.5480599,0.2725177,-0.0476647,0.8382438,-0.1456739,1.7539439,0.1
 590303,0.0172923,0.3750357,0.1944722,6.9722774,-1.278444,0.3606112,0.2
 861194,-1.7133065,0.12294,-0.2163037,0.1570341,0.4595363,0.0836549,0.0
 389095,-0.9332725,0.4421152,-1.7566484,0.1973129,0.0793152,-0.4211714,
 0.7329361,-7.1334368,-6.339351,0.7775199,0.2108233,1.1610783,-0.039662
 ,-2.1294862,0.4037432,-0.584157,0.0856697,-0.1016753,0.859831,0.192713
 3,1.3604872,-0.1136732,0.2079131,-2.1931011,0.31308,1.728274\HyperPola
 r=4.467644,-20.7322712,10.1291175,-82.5997861,-0.5913132,-4.1948216,5.
 8772604,1.4921312,-15.9660109,4.004962\PG=C01 [X(C4H4F4)]\NImag=0\\0.7
 3143848,-0.13077214,0.13935109,0.07135882,-0.07750954,0.64884453,-0.05
 420331,0.00329347,0.00446291,0.04985205,0.00367171,-0.03918730,0.03145
 286,-0.00552603,0.02830275,0.00013501,0.03266683,-0.31768748,0.0025846
 0,-0.03648661,0.33593952,-0.25101789,0.02877984,0.11268399,0.00306149,
 0.00019440,-0.00262150,0.26794226,0.02788936,-0.03888061,-0.01165897,-
 0.00278234,0.00283321,0.00179798,-0.03307262,0.02796858,0.11701021,-0.
 01257650,-0.12116284,0.02302274,-0.00318014,-0.00860723,-0.12213005,0.
 01247454,0.11817439,-0.40996105,0.09186696,-0.17541658,0.00306403,0.00
 024299,0.00217623,-0.01937037,0.00666384,-0.01530535,0.73126378,0.0923
 6590,-0.06823310,0.05373654,0.00364570,0.00439137,0.00152194,0.0029828
 2,0.00442435,0.00233330,-0.13127252,0.13926571,-0.17541754,0.05344647,
 -0.20873983,-0.02813715,0.00752572,-0.01182460,0.01500681,-0.00350871,
 0.01057606,0.07178511,-0.07777463,0.64816315,-0.01938132,0.00296946,0.
 01505754,0.00137036,-0.00186688,-0.00018500,-0.00192255,0.00313501,-0.
 00280790,-0.25043309,0.02903289,0.11236439,0.26738365,0.00680345,0.004
 24768,-0.00364662,-0.00191510,-0.00778513,-0.00105121,0.00309907,0.011
 34314,0.00205879,0.02850259,-0.03866279,-0.01196666,-0.03357382,0.0282
 4701,-0.01523983,0.00231651,0.01063949,0.00021634,-0.00116354,0.001345
 43,-0.00278847,0.00201962,-0.00027209,0.11664868,-0.01274980,-0.121020
 38,-0.12184171,0.01273235,0.11801998,0.00316084,0.00362357,-0.02813296
 ,-0.00310865,0.00327678,-0.00211000,0.00137651,-0.00191224,0.00021288,
 -0.05425228,0.00325913,0.00446736,0.00301683,-0.00269971,0.02301105,0.
 04985513,0.00019937,0.00421046,0.00772008,0.00329285,0.01134343,0.0017
 1705,-0.00183388,-0.00778521,-0.00118712,0.00369331,-0.03895913,0.0321
 0942,0.00018769,0.00265670,-0.00308095,-0.00554229,0.02857525,0.002167
 33,0.00151671,-0.01186850,-0.00213002,0.00176728,0.00091187,-0.0001882
 1,-0.00109176,0.00133947,0.00017982,0.03295133,-0.31692005,-0.00261691
 ,0.00174202,-0.00864801,0.00255194,-0.03702816,0.33523502,-0.00037790,
 0.00059065,-0.00056798,-0.00009583,0.00002660,0.00000322,-0.00049224,0
 .00070363,0.00028809,-0.00034338,-0.00047651,-0.00002970,-0.00061877,-
 0.00052819,0.00044772,0.00031320,-0.00010034,-0.00020819,0.82504157,0.
 00069812,-0.00133067,0.00040802,0.00000908,-0.00008162,0.00005607,0.00
 005450,-0.00008210,-0.00002200,0.00042218,-0.00129632,0.00023678,0.000
 14873,0.00017874,-0.00017176,-0.00007644,0.00018001,0.00022052,-0.1056
 6018,0.10151684,-0.00056891,0.00034014,0.00024797,0.00005868,0.0007940
 0,-0.00065150,0.00023015,-0.00036706,-0.00025606,-0.00003711,-0.000289
 48,-0.00028337,0.00032791,0.00019272,0.00016849,-0.00008152,-0.0005521
 2,-0.00076364,0.15589585,-0.06163029,0.64800189,-0.00072084,-0.0016833
 4,0.00013660,0.00010939,0.00030997,-0.00004937,-0.00022708,0.00025775,
 0.00000437,0.00126992,-0.00013359,-0.00048336,-0.00007661,-0.00034131,
 0.00044797,0.00007169,0.00031728,0.00035607,-0.41840966,0.06731540,-0.
 21176344,0.82363017,-0.00000123,-0.00046876,-0.00000012,-0.00001018,-0
 .00001098,-0.00002606,-0.00002742,-0.00001381,0.00000391,0.00044807,-0
 .00144743,0.00025664,-0.00000797,-0.00010773,-0.00006428,-0.00005879,-
 0.00010169,0.00002887,0.06102010,-0.03086616,0.03553180,-0.09816801,0.
 09504567,0.00013492,-0.00097759,-0.00088283,-0.00018783,0.00012095,-0.
 00019826,0.00014055,0.00021049,0.00013890,-0.00046751,-0.00009239,0.00
 181484,0.00043384,0.00056062,-0.00038988,0.00036069,-0.00056508,-0.000
 52575,-0.21176700,0.03919661,-0.17792841,0.15873808,-0.05729017,0.6432
 8927,0.00032388,0.00040602,0.00037614,0.00005009,-0.00000994,-0.000051
 19,0.00032409,-0.00046515,-0.00020935,-0.00040390,0.00068043,0.0000348
 0,0.00038016,0.00021316,-0.00033561,-0.00023929,-0.00000010,-0.0000270
 9,-0.30815516,0.02954566,0.07741327,-0.02856388,0.00116256,0.03880946,
 0.35053181,-0.00032731,0.00003829,-0.00027226,-0.00001825,0.00000527,0
 .00001596,-0.00018139,0.00016266,0.00011747,-0.00035484,0.00001115,0.0
 0018961,-0.00007756,-0.00013293,0.00003653,0.00006510,0.00003650,-0.00
 000130,0.03127223,-0.03182271,-0.00498769,0.00259482,-0.00261175,-0.00
 559571,-0.03303462,0.02214776,-0.00003771,-0.00007173,-0.00013069,-0.0
 0005796,-0.00013850,0.00012074,-0.00015157,0.00022428,0.00003496,0.000
 03436,-0.00025083,-0.00002720,-0.00016214,-0.00013202,0.00013890,0.000
 13639,0.00011396,0.00011712,0.09767562,-0.00649717,-0.10171717,-0.0069
 2367,0.00046665,0.00084744,-0.13544929,0.00873423,0.13630135,0.0001237
 7,0.00013617,0.00007494,-0.00004619,-0.00003941,0.00006087,0.00005704,
 -0.00012537,-0.00006268,-0.00008717,0.00011818,-0.00014379,0.00007821,
 0.00009985,-0.00004143,-0.00001606,-0.00000907,0.00006337,-0.07687294,
 0.00894036,-0.03364407,0.00737121,0.00099338,-0.02732460,0.00076775,-0
 .00330170,0.04597473,0.07220694,-0.00040195,0.00004074,-0.00015649,0.0
 0001099,0.00016745,-0.00021149,0.00000509,0.00000604,-0.00002246,-0.00
 001062,0.00000588,-0.00040113,0.00003161,0.00003715,0.00005572,-0.0000
 0615,-0.00013387,-0.00008723,0.01111038,-0.03183603,0.02976916,-0.0035
 8858,-0.00261415,0.00502419,-0.00176064,0.00425796,-0.00277841,-0.0087
 0856,0.02216146,0.00049141,0.00038998,0.00007753,0.00000586,-0.0005171
 4,0.00040520,-0.00005633,0.00005812,0.00011157,-0.00014418,0.00072241,
 -0.00035492,-0.00020655,-0.00005888,-0.00019276,-0.00010990,0.00024839
 ,0.00053722,-0.05390647,0.02900710,-0.33301186,0.01840718,0.00079678,-
 0.03507784,0.03146239,-0.00013968,-0.04320489,0.02257117,-0.03318120,0
 .41462295,0.00009092,0.00013438,0.00002835,0.00000119,-0.00006499,0.00
 002818,0.00003702,-0.00007155,0.00000118,-0.00003764,0.00001516,0.0000
 4278,-0.00002091,0.00003863,-0.00008942,-0.00009386,-0.00002228,0.0000
 0312,0.00742989,0.00051856,-0.02719327,-0.07676730,0.00780967,-0.03432
 204,0.00084553,-0.00016568,-0.00248935,-0.00440545,0.00217632,-0.00503
 447,0.07200913,-0.00009361,0.00010528,0.00001747,0.00001477,0.00000745
 ,0.00000027,-0.00000796,0.00001507,-0.00001253,-0.00001557,0.00025260,
 -0.00020501,-0.00002031,-0.00000910,0.00007923,0.00001299,-0.00001430,
 0.00003965,-0.00197382,-0.00228040,0.00574157,0.00920613,-0.02841515,0
 .02240991,0.00032695,-0.00245674,-0.00047529,0.00214710,0.01036299,0.0
 0216182,-0.00780045,0.01903466,0.00018472,0.00067681,0.00055074,0.0001
 0827,-0.00021517,0.00022699,-0.00002296,-0.00020866,-0.00007510,0.0001
 2262,-0.00025148,-0.00103090,-0.00018634,-0.00023398,0.00005867,-0.000
 25206,0.00035696,0.00046956,0.01957775,-0.00247148,-0.03432782,-0.0556
 3724,0.02655454,-0.33098047,-0.01349148,0.00140173,0.00988823,-0.00505
 427,0.00283065,-0.01382285,0.02324301,-0.02784696,0.41195663,0.0005244
 2,0.00065497,-0.00006176,-0.00005462,-0.00021519,0.00002894,0.00023173
 ,-0.00022032,-0.00002415,-0.00070885,-0.00021759,0.00051030,0.00022406
 ,0.00030139,-0.00043528,-0.00008407,-0.00018253,-0.00015123,-0.0274187
 8,-0.00191597,0.03936246,-0.30768700,0.02683982,0.07545144,-0.01586109
 ,0.00352920,0.00145058,0.00082286,0.00114210,-0.01348011,0.00091150,-0
 .00179621,0.03140799,0.34909984,-0.00003167,0.00010689,-0.00009098,-0.
 00001494,0.00001410,-0.00000074,0.00000756,0.00000869,0.00001275,-0.00
 018638,0.00024769,0.00009149,0.00004115,-0.00001274,-0.00000963,0.0000
 5804,-0.00000815,-0.00005792,0.00401546,-0.00227957,-0.00454274,0.0239
 1348,-0.02838806,-0.00300183,0.00293567,0.01036454,0.00080483,-0.00025
 094,-0.00245563,0.00051229,-0.00256777,0.00339763,-0.00059296,-0.02791
 966,0.01900463,-0.00021842,-0.00021810,0.00011190,0.00005356,0.0000402
 9,0.00001933,-0.00010241,0.00005013,-0.00000202,0.00042391,0.00014310,
 -0.00035282,-0.00017713,-0.00019713,0.00015217,-0.00005387,0.00014757,
 0.00011567,-0.00740892,0.00166759,0.00052149,0.09676682,-0.00625856,-0
 .10010701,0.00146793,0.00050110,-0.00236880,-0.00247423,-0.00084131,0.
 00991065,0.04578193,-0.00191012,-0.04291369,-0.13405918,0.00687546,0.1
 3491314\\0.00001337,-0.00000289,0.00000917,0.00000691,0.00000664,0.000
 00318,0.00000616,0.00000914,0.00000389,-0.00000029,0.00001128,0.000002
 30,0.00000797,-0.00000965,0.00000280,0.00000631,-0.00000761,0.00000676
 ,-0.00001275,0.00000616,-0.00001104,-0.00000847,-0.00000376,-0.0000050
 6,-0.00000131,0.00000455,-0.00000342,-0.00000376,0.00000302,0.00000109
 ,-0.00000720,-0.00000635,-0.00000522,-0.00000695,-0.00001054,-0.000004
 44\\\@


 WE HAVE LEFT UNDONE THOSE THINGS WHICH WE OUGHT TO HAVE DONE,
 AND WE HAVE DONE THOSE THINGS WHICH WE OUGHT NOT TO HAVE DONE.
                   BOOK OF COMMON PRAYER                      
 Job cpu time:       0 days  4 hours 56 minutes 44.2 seconds.
 File lengths (MBytes):  RWF=    218 Int=      0 D2E=      0 Chk=     17 Scr=      1
 Normal termination of Gaussian 09 at Thu Nov 10 14:46:31 2016.
