 Entering Gaussian System, Link 0=g09
 Initial command:
 /cluster/software/gaussian/gaussian-09-D.01/g09/l1.exe "/local/scratch/maxb2/Gau-9226.inp" -scrdir="/local/scratch/maxb2/"
 Entering Link 1 = /cluster/software/gaussian/gaussian-09-D.01/g09/l1.exe PID=      9227.
  
 Copyright (c) 1988,1990,1992,1993,1995,1998,2003,2009,2013,
            Gaussian, Inc.  All Rights Reserved.
  
 This is part of the Gaussian(R) 09 program.  It is based on
 the Gaussian(R) 03 system (copyright 2003, Gaussian, Inc.),
 the Gaussian(R) 98 system (copyright 1998, Gaussian, Inc.),
 the Gaussian(R) 94 system (copyright 1995, Gaussian, Inc.),
 the Gaussian 92(TM) system (copyright 1992, Gaussian, Inc.),
 the Gaussian 90(TM) system (copyright 1990, Gaussian, Inc.),
 the Gaussian 88(TM) system (copyright 1988, Gaussian, Inc.),
 the Gaussian 86(TM) system (copyright 1986, Carnegie Mellon
 University), and the Gaussian 82(TM) system (copyright 1983,
 Carnegie Mellon University). Gaussian is a federally registered
 trademark of Gaussian, Inc.
  
 This software contains proprietary and confidential information,
 including trade secrets, belonging to Gaussian, Inc.
  
 This software is provided under written license and may be
 used, copied, transmitted, or stored only in accord with that
 written license.
  
 The following legend is applicable only to US Government
 contracts under FAR:
  
                    RESTRICTED RIGHTS LEGEND
  
 Use, reproduction and disclosure by the US Government is
 subject to restrictions as set forth in subparagraphs (a)
 and (c) of the Commercial Computer Software - Restricted
 Rights clause in FAR 52.227-19.
  
 Gaussian, Inc.
 340 Quinnipiac St., Bldg. 40, Wallingford CT 06492
  
  
 ---------------------------------------------------------------
 Warning -- This program may not be used in any manner that
 competes with the business of Gaussian, Inc. or will provide
 assistance to any competitor of Gaussian, Inc.  The licensee
 of this program is prohibited from giving any competitor of
 Gaussian, Inc. access to this program.  By using this program,
 the user acknowledges that Gaussian, Inc. is engaged in the
 business of creating and licensing software in the field of
 computational chemistry and represents and warrants to the
 licensee that it is not a competitor of Gaussian, Inc. and that
 it will not use this program in any manner prohibited above.
 ---------------------------------------------------------------
  

 Cite this work as:
 Gaussian 09, Revision D.01,
 M. J. Frisch, G. W. Trucks, H. B. Schlegel, G. E. Scuseria, 
 M. A. Robb, J. R. Cheeseman, G. Scalmani, V. Barone, B. Mennucci, 
 G. A. Petersson, H. Nakatsuji, M. Caricato, X. Li, H. P. Hratchian, 
 A. F. Izmaylov, J. Bloino, G. Zheng, J. L. Sonnenberg, M. Hada, 
 M. Ehara, K. Toyota, R. Fukuda, J. Hasegawa, M. Ishida, T. Nakajima, 
 Y. Honda, O. Kitao, H. Nakai, T. Vreven, J. A. Montgomery, Jr., 
 J. E. Peralta, F. Ogliaro, M. Bearpark, J. J. Heyd, E. Brothers, 
 K. N. Kudin, V. N. Staroverov, T. Keith, R. Kobayashi, J. Normand, 
 K. Raghavachari, A. Rendell, J. C. Burant, S. S. Iyengar, J. Tomasi, 
 M. Cossi, N. Rega, J. M. Millam, M. Klene, J. E. Knox, J. B. Cross, 
 V. Bakken, C. Adamo, J. Jaramillo, R. Gomperts, R. E. Stratmann, 
 O. Yazyev, A. J. Austin, R. Cammi, C. Pomelli, J. W. Ochterski, 
 R. L. Martin, K. Morokuma, V. G. Zakrzewski, G. A. Voth, 
 P. Salvador, J. J. Dannenberg, S. Dapprich, A. D. Daniels, 
 O. Farkas, J. B. Foresman, J. V. Ortiz, J. Cioslowski, 
 and D. J. Fox, Gaussian, Inc., Wallingford CT, 2013.
 
 ******************************************
 Gaussian 09:  ES64L-G09RevD.01 24-Apr-2013
                16-Nov-2016 
 ******************************************
 %nprocshared=8
 Will use up to    8 processors via shared memory.
 %mem=6GB
 %chk=c2h4-c2f4-wb97xd-pople
 ----------------------------------------------------
 # opt freq=raman wb97xd/6-311++g** geom=connectivity
 ----------------------------------------------------
 1/14=-1,18=20,19=15,26=3,38=1,57=2/1,3;
 2/9=110,12=2,17=6,18=5,40=1/2;
 3/5=4,6=6,7=1111,11=2,16=1,25=1,30=1,71=1,74=-58/1,2,3;
 4//1;
 5/5=2,38=5/2;
 6/7=2,8=2,9=2,10=2,28=1/1;
 7//1,2,3,16;
 1/14=-1,18=20,19=15,26=3/3(2);
 2/9=110/2;
 99//99;
 2/9=110/2;
 3/5=4,6=6,7=1111,11=2,16=1,25=1,30=1,71=1,74=-58/1,2,3;
 4/5=5,16=3,69=1/1;
 5/5=2,38=5/2;
 7//1,2,3,16;
 1/14=-1,18=20,19=15,26=3/3(-5);
 2/9=110/2;
 6/7=2,8=2,9=2,10=2,19=2,28=1/1;
 99/9=1/99;
 -----
 Title
 -----
 Symbolic Z-matrix:
 Charge =  0 Multiplicity = 1
 C
 H                    1    B1
 H                    1    B2       2    A1
 C                    1    B3       3    A2       2    D1       0
 H                    4    B4       1    A3       3    D2       0
 H                    4    B5       1    A4       3    D3       0
 C                    1    B6       4    A5       6    D4       0
 C                    7    B7       1    A6       4    D5       0
 F                    7    B8       1    A7       4    D6       0
 F                    7    B9       1    A8       4    D7       0
 F                    8    B10      7    A9       1    D8       0
 F                    8    B11      7    A10      1    D9       0
       Variables:
  B1                    1.07                     
  B2                    1.07                     
  B3                    1.3552                   
  B4                    1.07                     
  B5                    1.07                     
  B6                    4.                       
  B7                    1.3552                   
  B8                    1.35                     
  B9                    1.35                     
  B10                   1.35                     
  B11                   1.35                     
  A1                  119.88653                  
  A2                  119.88653                  
  A3                  120.22695                  
  A4                  119.88653                  
  A5                   86.85591                  
  A6                   93.14409                  
  A7                   88.43394                  
  A8                   88.41777                  
  A9                  120.22695                  
  A10                 119.88653                  
  D1                 -180.                       
  D2                  180.                       
  D3                    0.                       
  D4                   90.                       
  D5                    0.                       
  D6                 -119.84925                  
  D7                  120.18942                  
  D8                  -90.                       
  D9                   90.                       
 
 Add virtual bond connecting atoms C7         and C1         Dist= 7.56D+00.
 Add virtual bond connecting atoms C7         and C4         Dist= 7.85D+00.
 Add virtual bond connecting atoms C8         and C4         Dist= 7.56D+00.
 Add virtual bond connecting atoms C8         and H5         Dist= 7.77D+00.
 Add virtual bond connecting atoms C8         and H6         Dist= 7.77D+00.

 GradGradGradGradGradGradGradGradGradGradGradGradGradGradGradGradGradGrad
 Berny optimization.
 Initialization pass.
                           ----------------------------
                           !    Initial Parameters    !
                           ! (Angstroms and Degrees)  !
 --------------------------                            --------------------------
 ! Name  Definition              Value          Derivative Info.                !
 --------------------------------------------------------------------------------
 ! R1    R(1,2)                  1.07           estimate D2E/DX2                !
 ! R2    R(1,3)                  1.07           estimate D2E/DX2                !
 ! R3    R(1,4)                  1.3552         estimate D2E/DX2                !
 ! R4    R(1,7)                  4.0            estimate D2E/DX2                !
 ! R5    R(4,5)                  1.07           estimate D2E/DX2                !
 ! R6    R(4,6)                  1.07           estimate D2E/DX2                !
 ! R7    R(4,7)                  4.1523         estimate D2E/DX2                !
 ! R8    R(4,8)                  4.0            estimate D2E/DX2                !
 ! R9    R(5,8)                  4.112          estimate D2E/DX2                !
 ! R10   R(6,8)                  4.1123         estimate D2E/DX2                !
 ! R11   R(7,8)                  1.3552         estimate D2E/DX2                !
 ! R12   R(7,9)                  1.35           estimate D2E/DX2                !
 ! R13   R(7,10)                 1.35           estimate D2E/DX2                !
 ! R14   R(8,11)                 1.35           estimate D2E/DX2                !
 ! R15   R(8,12)                 1.35           estimate D2E/DX2                !
 ! A1    A(2,1,3)              119.8865         estimate D2E/DX2                !
 ! A2    A(2,1,4)              120.2269         estimate D2E/DX2                !
 ! A3    A(2,1,7)               91.5822         estimate D2E/DX2                !
 ! A4    A(3,1,4)              119.8865         estimate D2E/DX2                !
 ! A5    A(3,1,7)               91.5661         estimate D2E/DX2                !
 ! A6    A(1,4,5)              120.2269         estimate D2E/DX2                !
 ! A7    A(1,4,6)              119.8865         estimate D2E/DX2                !
 ! A8    A(1,4,8)               93.1441         estimate D2E/DX2                !
 ! A9    A(5,4,6)              119.8865         estimate D2E/DX2                !
 ! A10   A(5,4,7)               97.9151         estimate D2E/DX2                !
 ! A11   A(6,4,7)               97.8337         estimate D2E/DX2                !
 ! A12   A(1,7,8)               93.1441         estimate D2E/DX2                !
 ! A13   A(1,7,9)               88.4339         estimate D2E/DX2                !
 ! A14   A(1,7,10)              88.4178         estimate D2E/DX2                !
 ! A15   A(4,7,9)               97.8337         estimate D2E/DX2                !
 ! A16   A(4,7,10)              97.9151         estimate D2E/DX2                !
 ! A17   A(8,7,9)              119.8865         estimate D2E/DX2                !
 ! A18   A(8,7,10)             120.2269         estimate D2E/DX2                !
 ! A19   A(9,7,10)             119.8865         estimate D2E/DX2                !
 ! A20   A(4,8,11)              91.5822         estimate D2E/DX2                !
 ! A21   A(4,8,12)              91.5661         estimate D2E/DX2                !
 ! A22   A(5,8,6)               26.031          estimate D2E/DX2                !
 ! A23   A(5,8,7)               94.4532         estimate D2E/DX2                !
 ! A24   A(5,8,11)              98.9271         estimate D2E/DX2                !
 ! A25   A(5,8,12)              76.4895         estimate D2E/DX2                !
 ! A26   A(6,8,7)               94.376          estimate D2E/DX2                !
 ! A27   A(6,8,11)              76.5066         estimate D2E/DX2                !
 ! A28   A(6,8,12)              99.066          estimate D2E/DX2                !
 ! A29   A(7,8,11)             120.2269         estimate D2E/DX2                !
 ! A30   A(7,8,12)             119.8865         estimate D2E/DX2                !
 ! A31   A(11,8,12)            119.8865         estimate D2E/DX2                !
 ! D1    D(2,1,4,5)              0.0            estimate D2E/DX2                !
 ! D2    D(2,1,4,6)            180.0            estimate D2E/DX2                !
 ! D3    D(2,1,4,8)             90.0            estimate D2E/DX2                !
 ! D4    D(3,1,4,5)            180.0            estimate D2E/DX2                !
 ! D5    D(3,1,4,6)              0.0            estimate D2E/DX2                !
 ! D6    D(3,1,4,8)            -90.0            estimate D2E/DX2                !
 ! D7    D(2,1,7,8)           -120.1894         estimate D2E/DX2                !
 ! D8    D(2,1,7,9)            119.9613         estimate D2E/DX2                !
 ! D9    D(2,1,7,10)             0.0            estimate D2E/DX2                !
 ! D10   D(3,1,7,8)            119.8493         estimate D2E/DX2                !
 ! D11   D(3,1,7,9)              0.0            estimate D2E/DX2                !
 ! D12   D(3,1,7,10)          -119.9613         estimate D2E/DX2                !
 ! D13   D(5,4,7,9)           -179.6663         estimate D2E/DX2                !
 ! D14   D(5,4,7,10)            58.5345         estimate D2E/DX2                !
 ! D15   D(6,4,7,9)            -57.8671         estimate D2E/DX2                !
 ! D16   D(6,4,7,10)          -179.6663         estimate D2E/DX2                !
 ! D17   D(1,4,8,11)           120.1894         estimate D2E/DX2                !
 ! D18   D(1,4,8,12)          -119.8493         estimate D2E/DX2                !
 ! D19   D(1,7,8,5)             13.0332         estimate D2E/DX2                !
 ! D20   D(1,7,8,6)            -13.0765         estimate D2E/DX2                !
 ! D21   D(1,7,8,11)           -90.0            estimate D2E/DX2                !
 ! D22   D(1,7,8,12)            90.0            estimate D2E/DX2                !
 ! D23   D(9,7,8,5)            103.0332         estimate D2E/DX2                !
 ! D24   D(9,7,8,6)             76.9235         estimate D2E/DX2                !
 ! D25   D(9,7,8,11)             0.0            estimate D2E/DX2                !
 ! D26   D(9,7,8,12)           180.0            estimate D2E/DX2                !
 ! D27   D(10,7,8,5)           -76.9668         estimate D2E/DX2                !
 ! D28   D(10,7,8,6)          -103.0765         estimate D2E/DX2                !
 ! D29   D(10,7,8,11)          180.0            estimate D2E/DX2                !
 ! D30   D(10,7,8,12)            0.0            estimate D2E/DX2                !
 --------------------------------------------------------------------------------
 Trust Radius=3.00D-01 FncErr=1.00D-07 GrdErr=1.00D-06
 Number of steps in this run=     86 maximum allowed number of steps=    100.
 GradGradGradGradGradGradGradGradGradGradGradGradGradGradGradGradGradGrad

                          Input orientation:                          
 ---------------------------------------------------------------------
 Center     Atomic      Atomic             Coordinates (Angstroms)
 Number     Number       Type             X           Y           Z
 ---------------------------------------------------------------------
      1          6           0        0.000000    0.000000    0.000000
      2          1           0        0.000000    0.000000    1.070000
      3          1           0        0.927705    0.000000   -0.533164
      4          6           0       -1.170944    0.000000   -0.682243
      5          1           0       -2.101801    0.000000   -0.154601
      6          1           0       -1.164587    0.000000   -1.752225
      7          6           0       -0.189560    3.993979   -0.110446
      8          6           0       -1.360505    3.993979   -0.792690
      9          9           0        0.980908    3.993979   -0.783129
     10          9           0       -0.189560    3.993979    1.239554
     11          9           0       -1.360505    3.993979   -2.142690
     12          9           0       -2.530974    3.993979   -0.120006
 ---------------------------------------------------------------------
                    Distance matrix (angstroms):
                    1          2          3          4          5
     1  C    0.000000
     2  H    1.070000   0.000000
     3  H    1.070000   1.852234   0.000000
     4  C    1.355200   2.107479   2.103938   0.000000
     5  H    2.107479   2.432532   3.053066   1.070000   0.000000
     6  H    2.103938   3.053066   2.421527   1.070000   1.852234
     7  C    4.000000   4.169083   4.168794   4.152341   4.428372
     8  C    4.293157   4.612207   4.610328   4.000000   4.112000
     9  F    4.186567   4.510891   4.002147   4.537898   5.084291
    10  F    4.186203   4.002068   4.510286   4.539635   4.642435
    11  F    4.732226   5.303227   4.876305   4.256842   4.522597
    12  F    4.729915   4.875840   5.299531   4.256484   4.017120
                    6          7          8          9         10
     6  H    0.000000
     7  C    4.426961   0.000000
     8  C    4.112294   1.355200   0.000000
     9  F    4.636180   1.350000   2.341433   0.000000
    10  F    5.084612   1.350000   2.345448   2.336931   0.000000
    11  F    4.017800   2.345448   1.350000   2.707512   3.579201
    12  F    4.525817   2.341433   1.350000   3.573940   2.707512
                   11         12
    11  F    0.000000
    12  F    2.336931   0.000000
 Stoichiometry    C4H4F4
 Framework group  C1[X(C4H4F4)]
 Deg. of freedom    30
 Full point group                 C1      NOp   1
 Largest Abelian subgroup         C1      NOp   1
 Largest concise Abelian subgroup C1      NOp   1
                         Standard orientation:                         
 ---------------------------------------------------------------------
 Center     Atomic      Atomic             Coordinates (Angstroms)
 Number     Number       Type             X           Y           Z
 ---------------------------------------------------------------------
      1          6           0       -3.062519    0.550552    0.000481
      2          1           0       -3.114158    1.088234   -0.923170
      3          1           0       -3.113822    1.079738    0.929045
      4          6           0       -2.932361   -0.798381   -0.001704
      5          1           0       -2.880530   -1.333050   -0.927093
      6          1           0       -2.881250   -1.330592    0.925140
      7          6           0        0.934068    0.715772    0.001164
      8          6           0        1.064226   -0.633162   -0.001022
      9          9           0        0.869340    1.383436    1.172716
     10          9           0        0.868915    1.394156   -1.164190
     11          9           0        1.129379   -1.311546    1.164332
     12          9           0        1.128953   -1.300826   -1.172574
 ---------------------------------------------------------------------
 Rotational constants (GHZ):      1.8478192      1.1023159      0.9764892
 Standard basis: 6-311++G(d,p) (5D, 7F)
 There are   212 symmetry adapted cartesian basis functions of A   symmetry.
 There are   204 symmetry adapted basis functions of A   symmetry.
   204 basis functions,   324 primitive gaussians,   212 cartesian basis functions
    32 alpha electrons       32 beta electrons
       nuclear repulsion energy       365.9518417123 Hartrees.
 NAtoms=   12 NActive=   12 NUniq=   12 SFac= 1.00D+00 NAtFMM=   60 NAOKFM=F Big=F
 Integral buffers will be    131072 words long.
 Raffenetti 2 integral format.
 Two-electron integral symmetry is turned on.
 Nuclear repulsion after empirical dispersion term =      365.9484956170 Hartrees.
 One-electron integrals computed using PRISM.
 NBasis=   204 RedAO= T EigKep=  3.42D-05  NBF=   204
 NBsUse=   204 1.00D-06 EigRej= -1.00D+00 NBFU=   204
 ExpMin= 3.60D-02 ExpMax= 1.14D+04 ExpMxC= 1.72D+03 IAcc=3 IRadAn=         5 AccDes= 0.00D+00
 Harris functional with IExCor= 4639 and IRadAn=       5 diagonalized for initial guess.
 HarFok:  IExCor= 4639 AccDes= 0.00D+00 IRadAn=         5 IDoV= 1 UseB2=F ITyADJ=14
 ICtDFT=  3500011 ScaDFX=  1.000000  1.000000  1.000000  1.000000
 FoFCou: FMM=F IPFlag=           0 FMFlag=      100000 FMFlg1=           0
         NFxFlg=           0 DoJE=T BraDBF=F KetDBF=T FulRan=T
         wScrn=  0.000000 ICntrl=     500 IOpCl=  0 I1Cent=   200000004 NGrid=           0
         NMat0=    1 NMatS0=      1 NMatT0=    0 NMatD0=    1 NMtDS0=    0 NMtDT0=    0
 Petite list used in FoFCou.
 Keep R1 ints in memory in canonical form, NReq=442237348.
 Requested convergence on RMS density matrix=1.00D-08 within 128 cycles.
 Requested convergence on MAX density matrix=1.00D-06.
 Requested convergence on             energy=1.00D-06.
 No special actions if energy rises.
 SCF Done:  E(RwB97XD) =  -554.095826247     A.U. after   13 cycles
            NFock= 13  Conv=0.25D-08     -V/T= 2.0036

 **********************************************************************

            Population analysis using the SCF density.

 **********************************************************************

 Orbital symmetries:
       Occupied  (A) (A) (A) (A) (A) (A) (A) (A) (A) (A) (A) (A)
                 (A) (A) (A) (A) (A) (A) (A) (A) (A) (A) (A) (A)
                 (A) (A) (A) (A) (A) (A) (A) (A)
       Virtual   (A) (A) (A) (A) (A) (A) (A) (A) (A) (A) (A) (A)
                 (A) (A) (A) (A) (A) (A) (A) (A) (A) (A) (A) (A)
                 (A) (A) (A) (A) (A) (A) (A) (A) (A) (A) (A) (A)
                 (A) (A) (A) (A) (A) (A) (A) (A) (A) (A) (A) (A)
                 (A) (A) (A) (A) (A) (A) (A) (A) (A) (A) (A) (A)
                 (A) (A) (A) (A) (A) (A) (A) (A) (A) (A) (A) (A)
                 (A) (A) (A) (A) (A) (A) (A) (A) (A) (A) (A) (A)
                 (A) (A) (A) (A) (A) (A) (A) (A) (A) (A) (A) (A)
                 (A) (A) (A) (A) (A) (A) (A) (A) (A) (A) (A) (A)
                 (A) (A) (A) (A) (A) (A) (A) (A) (A) (A) (A) (A)
                 (A) (A) (A) (A) (A) (A) (A) (A) (A) (A) (A) (A)
                 (A) (A) (A) (A) (A) (A) (A) (A) (A) (A) (A) (A)
                 (A) (A) (A) (A) (A) (A) (A) (A) (A) (A) (A) (A)
                 (A) (A) (A) (A) (A) (A) (A) (A) (A) (A) (A) (A)
                 (A) (A) (A) (A)
 The electronic state is 1-A.
 Alpha  occ. eigenvalues --  -24.87805 -24.87787 -24.87764 -24.87746 -10.49323
 Alpha  occ. eigenvalues --  -10.49249 -10.28990 -10.28914  -1.41456  -1.39896
 Alpha  occ. eigenvalues --   -1.37024  -1.35885  -0.91454  -0.86596  -0.76872
 Alpha  occ. eigenvalues --   -0.71639  -0.71432  -0.68344  -0.67121  -0.65438
 Alpha  occ. eigenvalues --   -0.61168  -0.58469  -0.57245  -0.57069  -0.56776
 Alpha  occ. eigenvalues --   -0.56384  -0.54593  -0.54413  -0.50560  -0.45421
 Alpha  occ. eigenvalues --   -0.36378  -0.35281
 Alpha virt. eigenvalues --    0.04756   0.05153   0.06180   0.06495   0.07048
 Alpha virt. eigenvalues --    0.07075   0.08499   0.09666   0.10163   0.12679
 Alpha virt. eigenvalues --    0.13586   0.14383   0.14618   0.15010   0.15715
 Alpha virt. eigenvalues --    0.16439   0.16494   0.17890   0.18908   0.19578
 Alpha virt. eigenvalues --    0.20608   0.21519   0.22322   0.24028   0.24615
 Alpha virt. eigenvalues --    0.26284   0.26486   0.30162   0.31356   0.33589
 Alpha virt. eigenvalues --    0.34039   0.34579   0.37863   0.39327   0.40067
 Alpha virt. eigenvalues --    0.40663   0.41253   0.42615   0.43402   0.43797
 Alpha virt. eigenvalues --    0.44775   0.45792   0.46317   0.46628   0.48645
 Alpha virt. eigenvalues --    0.49603   0.51385   0.52017   0.53590   0.57340
 Alpha virt. eigenvalues --    0.59116   0.64904   0.65516   0.66147   0.68105
 Alpha virt. eigenvalues --    0.72286   0.72891   0.76225   0.80721   0.82328
 Alpha virt. eigenvalues --    0.84572   0.85051   0.85141   0.87319   0.91058
 Alpha virt. eigenvalues --    0.95996   0.97362   1.00462   1.07786   1.15598
 Alpha virt. eigenvalues --    1.17084   1.18401   1.19145   1.29758   1.34619
 Alpha virt. eigenvalues --    1.41184   1.43520   1.45662   1.45719   1.45905
 Alpha virt. eigenvalues --    1.47275   1.48586   1.48919   1.49053   1.49933
 Alpha virt. eigenvalues --    1.52670   1.53108   1.53386   1.62392   1.62827
 Alpha virt. eigenvalues --    1.67452   1.67767   1.69945   1.70127   1.70554
 Alpha virt. eigenvalues --    1.73120   1.86272   1.90418   1.90946   1.94445
 Alpha virt. eigenvalues --    1.94863   2.03555   2.04542   2.09268   2.10608
 Alpha virt. eigenvalues --    2.15815   2.19949   2.21039   2.23283   2.25467
 Alpha virt. eigenvalues --    2.26317   2.33381   2.52860   2.54667   2.64568
 Alpha virt. eigenvalues --    2.66256   2.67791   2.80236   2.80582   2.87294
 Alpha virt. eigenvalues --    2.90249   2.96424   3.01832   3.04260   3.10120
 Alpha virt. eigenvalues --    3.14064   3.24267   3.47907   3.50902   3.78849
 Alpha virt. eigenvalues --    3.80750   3.81008   3.81399   3.81563   3.84217
 Alpha virt. eigenvalues --    3.84304   3.86198   3.86987   3.89982   3.94853
 Alpha virt. eigenvalues --    3.99555   4.00269   4.01121   4.09706   4.14929
 Alpha virt. eigenvalues --    4.18763   4.23974   4.27028   4.51410   4.88901
 Alpha virt. eigenvalues --    4.90937   5.00169   6.32397   6.34813   6.38779
 Alpha virt. eigenvalues --    6.39813   6.40385   6.41529   6.43144   6.45870
 Alpha virt. eigenvalues --    6.47296   6.82553   6.84507   6.93262  23.49128
 Alpha virt. eigenvalues --   23.92694  24.08044  24.32679  66.83797  66.86652
 Alpha virt. eigenvalues --   66.87714  66.90060
          Condensed to atoms (all electrons):
               1          2          3          4          5          6
     1  C    5.210438   0.423658   0.424255   0.326099  -0.045941  -0.046861
     2  H    0.423658   0.504124  -0.026305  -0.045049  -0.003776   0.002608
     3  H    0.424255  -0.026305   0.504944  -0.045934   0.002610  -0.004018
     4  C    0.326099  -0.045049  -0.045934   5.231114   0.424671   0.425306
     5  H   -0.045941  -0.003776   0.002610   0.424671   0.504287  -0.027334
     6  H   -0.046861   0.002608  -0.004018   0.425306  -0.027334   0.505068
     7  C   -0.070580   0.000133   0.000109   0.070386  -0.000838  -0.000896
     8  C    0.057147  -0.000301  -0.000249  -0.082668   0.001104   0.001176
     9  F    0.001614   0.000804  -0.001672  -0.003558  -0.000164   0.000463
    10  F    0.001714  -0.001673   0.000786  -0.003604   0.000459  -0.000165
    11  F    0.003125  -0.000361   0.000665  -0.006330   0.001128  -0.001682
    12  F    0.003229   0.000669  -0.000362  -0.006485  -0.001716   0.001159
               7          8          9         10         11         12
     1  C   -0.070580   0.057147   0.001614   0.001714   0.003125   0.003229
     2  H    0.000133  -0.000301   0.000804  -0.001673  -0.000361   0.000669
     3  H    0.000109  -0.000249  -0.001672   0.000786   0.000665  -0.000362
     4  C    0.070386  -0.082668  -0.003558  -0.003604  -0.006330  -0.006485
     5  H   -0.000838   0.001104  -0.000164   0.000459   0.001128  -0.001716
     6  H   -0.000896   0.001176   0.000463  -0.000165  -0.001682   0.001159
     7  C    6.015849  -0.476676   0.350132   0.351130  -0.193574  -0.194022
     8  C   -0.476676   6.054555  -0.196487  -0.195973   0.348513   0.347525
     9  F    0.350132  -0.196487   8.973545  -0.066037   0.008283   0.008001
    10  F    0.351130  -0.195973  -0.066037   8.972580   0.007873   0.008272
    11  F   -0.193574   0.348513   0.008283   0.007873   8.973703  -0.065905
    12  F   -0.194022   0.347525   0.008001   0.008272  -0.065905   8.974571
 Mulliken charges:
               1
     1  C   -0.287897
     2  H    0.145467
     3  H    0.145172
     4  C   -0.283947
     5  H    0.145509
     6  H    0.145178
     7  C    0.148846
     8  C    0.142333
     9  F   -0.074924
    10  F   -0.075363
    11  F   -0.075438
    12  F   -0.074936
 Sum of Mulliken charges =   0.00000
 Mulliken charges with hydrogens summed into heavy atoms:
               1
     1  C    0.002742
     4  C    0.006740
     7  C    0.148846
     8  C    0.142333
     9  F   -0.074924
    10  F   -0.075363
    11  F   -0.075438
    12  F   -0.074936
 Electronic spatial extent (au):  <R**2>=           1270.0909
 Charge=              0.0000 electrons
 Dipole moment (field-independent basis, Debye):
    X=             -0.1390    Y=              0.0061    Z=              0.0007  Tot=              0.1391
 Quadrupole moment (field-independent basis, Debye-Ang):
   XX=            -45.1877   YY=            -44.7528   ZZ=            -45.4822
   XY=             -0.0689   XZ=             -0.0015   YZ=             -0.0081
 Traceless Quadrupole moment (field-independent basis, Debye-Ang):
   XX=             -0.0468   YY=              0.3881   ZZ=             -0.3413
   XY=             -0.0689   XZ=             -0.0015   YZ=             -0.0081
 Octapole moment (field-independent basis, Debye-Ang**2):
  XXX=             50.8612  YYY=              0.5822  ZZZ=              0.0131  XYY=              4.4817
  XXY=              3.2507  XXZ=              0.0173  XZZ=              2.7310  YZZ=              0.1256
  YYZ=             -0.0245  XYZ=             -0.0035
 Hexadecapole moment (field-independent basis, Debye-Ang**3):
 XXXX=          -1067.7360 YYYY=           -339.4125 ZZZZ=           -208.7603 XXXY=            -15.5132
 XXXZ=             -0.0567 YYYX=             -3.2759 YYYZ=             -0.0163 ZZZX=             -0.0389
 ZZZY=             -0.0889 XXYY=           -206.5418 XXZZ=           -184.7330 YYZZ=            -93.1452
 XXYZ=             -0.0382 YYXZ=              0.0690 ZZXY=             -1.0145
 N-N= 3.659484956170D+02 E-N=-2.043479900342D+03  KE= 5.521238222670D+02
 Calling FoFJK, ICntrl=      2127 FMM=F ISym2X=0 I1Cent= 0 IOpClX= 0 NMat=1 NMatS=1 NMatT=0.
 ***** Axes restored to original set *****
 -------------------------------------------------------------------
 Center     Atomic                   Forces (Hartrees/Bohr)
 Number     Number              X              Y              Z
 -------------------------------------------------------------------
      1        6          -0.038625782    0.000727952   -0.022595160
      2        1           0.003150443   -0.000103119    0.010172430
      3        1           0.010599661   -0.000108399   -0.002075528
      4        6           0.038685674    0.000756357    0.022464026
      5        1          -0.010424652   -0.000053997    0.002288315
      6        1          -0.003415145   -0.000053248   -0.010271244
      7        6          -0.026656531   -0.000061407   -0.016389826
      8        6           0.026948430   -0.000052345    0.016561070
      9        9          -0.022898173   -0.000290144    0.031256845
     10        9           0.015214039   -0.000293228   -0.036011696
     11        9          -0.015252960   -0.000232996    0.035775463
     12        9           0.022674995   -0.000235427   -0.031174695
 -------------------------------------------------------------------
 Cartesian Forces:  Max     0.038685674 RMS     0.018614601

 GradGradGradGradGradGradGradGradGradGradGradGradGradGradGradGradGradGrad
 Berny optimization.
 FormGI is forming the generalized inverse of G from B-inverse, IUseBI=4.
 Internal  Forces:  Max     0.038463816 RMS     0.010931948
 Search for a local minimum.
 Step number   1 out of a maximum of   86
 All quantities printed in internal units (Hartrees-Bohrs-Radians)
 Mixed Optimization -- RFO/linear search
 Second derivative matrix not updated -- first step.
 ITU=  0
     Eigenvalues ---    0.00562   0.00768   0.02973   0.02998   0.04068
     Eigenvalues ---    0.04918   0.05347   0.05919   0.06779   0.06928
     Eigenvalues ---    0.08170   0.08490   0.08989   0.10090   0.11201
     Eigenvalues ---    0.12859   0.14277   0.15786   0.18808   0.19401
     Eigenvalues ---    0.34593   0.35927   0.37230   0.37230   0.52048
     Eigenvalues ---    0.53247   0.55021   0.55021   0.55021   0.55021
 RFO step:  Lambda=-2.16674821D-02 EMin= 5.61849243D-03
 Linear search not attempted -- first point.
 Iteration  1 RMS(Cart)=  0.02761125 RMS(Int)=  0.00082955
 Iteration  2 RMS(Cart)=  0.00087597 RMS(Int)=  0.00009794
 Iteration  3 RMS(Cart)=  0.00000058 RMS(Int)=  0.00009794
 Variable       Old X    -DE/DX   Delta X   Delta X   Delta X     New X
                                 (Linear)    (Quad)   (Total)
    R1        2.02201   0.01018   0.00000   0.02583   0.02583   2.04784
    R2        2.02201   0.01023   0.00000   0.02596   0.02596   2.04796
    R3        2.56096  -0.02853   0.00000  -0.05176  -0.05176   2.50920
    R4        7.55890   0.00090   0.00000  -0.01158  -0.01160   7.54730
    R5        2.02201   0.00905   0.00000   0.02576   0.02581   2.04782
    R6        2.02201   0.00905   0.00000   0.02586   0.02592   2.04792
    R7        7.84679  -0.00552   0.00000  -0.02665  -0.02653   7.82026
    R8        7.55890  -0.00078   0.00000  -0.00702  -0.00716   7.55175
    R9        7.77055   0.00207   0.00000   0.00160   0.00161   7.77216
   R10        7.77111   0.00217   0.00000   0.00213   0.00214   7.77324
   R11        2.56096  -0.03846   0.00000  -0.07123  -0.07120   2.48976
   R12        2.55113  -0.03543   0.00000  -0.06196  -0.06196   2.48917
   R13        2.55113  -0.03601   0.00000  -0.06297  -0.06297   2.48816
   R14        2.55113  -0.03577   0.00000  -0.06255  -0.06255   2.48858
   R15        2.55113  -0.03519   0.00000  -0.06154  -0.06154   2.48959
    A1        2.09241  -0.00223   0.00000  -0.02175  -0.02175   2.07066
    A2        2.09836   0.00108   0.00000   0.00956   0.00956   2.10792
    A3        1.59841  -0.00008   0.00000   0.00117   0.00117   1.59958
    A4        2.09241   0.00115   0.00000   0.01220   0.01219   2.10461
    A5        1.59813  -0.00016   0.00000   0.00098   0.00100   1.59913
    A6        2.09836   0.00106   0.00000   0.00928   0.00927   2.10762
    A7        2.09241   0.00127   0.00000   0.01186   0.01184   2.10425
    A8        1.62567  -0.00188   0.00000  -0.00199  -0.00198   1.62370
    A9        2.09241  -0.00233   0.00000  -0.02115  -0.02111   2.07131
   A10        1.70894  -0.00166   0.00000   0.00011   0.00003   1.70897
   A11        1.70752  -0.00168   0.00000   0.00033   0.00025   1.70777
   A12        1.62567  -0.00103   0.00000   0.00283   0.00285   1.62852
   A13        1.54346   0.00046   0.00000  -0.00465  -0.00464   1.53882
   A14        1.54318   0.00035   0.00000  -0.00477  -0.00475   1.53843
   A15        1.70752   0.00033   0.00000   0.00509   0.00471   1.71223
   A16        1.70894   0.00017   0.00000   0.00456   0.00421   1.71315
   A17        2.09241   0.00593   0.00000   0.04489   0.04489   2.13731
   A18        2.09836   0.00528   0.00000   0.04087   0.04086   2.13921
   A19        2.09241  -0.01121   0.00000  -0.08576  -0.08575   2.00666
   A20        1.59841  -0.00003   0.00000   0.00291   0.00293   1.60134
   A21        1.59813   0.00006   0.00000   0.00331   0.00331   1.60144
   A22        0.45433   0.00163   0.00000   0.00296   0.00292   0.45724
   A23        1.64852   0.00315   0.00000   0.00392   0.00392   1.65244
   A24        1.72660  -0.00195   0.00000  -0.00820  -0.00853   1.71807
   A25        1.33499  -0.00109   0.00000  -0.00013   0.00005   1.33505
   A26        1.64717   0.00306   0.00000   0.00385   0.00384   1.65101
   A27        1.33529  -0.00115   0.00000  -0.00041  -0.00025   1.33504
   A28        1.72903  -0.00195   0.00000  -0.00863  -0.00901   1.72002
   A29        2.09836   0.00936   0.00000   0.04458   0.04456   2.14291
   A30        2.09241   0.01025   0.00000   0.04892   0.04890   2.14131
   A31        2.09241  -0.01961   0.00000  -0.09350  -0.09346   1.99895
    D1        0.00000   0.00071   0.00000  -0.00077  -0.00079  -0.00079
    D2        3.14159  -0.00044   0.00000   0.00117   0.00119  -3.14041
    D3        1.57080   0.00009   0.00000  -0.00002  -0.00002   1.57078
    D4        3.14159   0.00044   0.00000  -0.00134  -0.00135   3.14024
    D5        0.00000  -0.00072   0.00000   0.00060   0.00062   0.00062
    D6       -1.57080  -0.00018   0.00000  -0.00059  -0.00059  -1.57138
    D7       -2.09770  -0.00080   0.00000  -0.00809  -0.00808  -2.10578
    D8        2.09372  -0.00676   0.00000  -0.05283  -0.05282   2.04090
    D9        0.00000   0.00450   0.00000   0.03262   0.03261   0.03261
   D10        2.09176   0.00144   0.00000   0.01360   0.01360   2.10537
   D11        0.00000  -0.00451   0.00000  -0.03114  -0.03114  -0.03114
   D12       -2.09372   0.00675   0.00000   0.05430   0.05430  -2.03942
   D13       -3.13577  -0.00427   0.00000  -0.03430  -0.03436   3.11306
   D14        1.02162   0.00726   0.00000   0.05247   0.05251   1.07413
   D15       -1.00997  -0.00752   0.00000  -0.05618  -0.05622  -1.06619
   D16       -3.13577   0.00400   0.00000   0.03059   0.03065  -3.10512
   D17        2.09770   0.00966   0.00000   0.04594   0.04592   2.14363
   D18       -2.09176  -0.00999   0.00000  -0.04741  -0.04738  -2.13915
   D19        0.22747   0.00075   0.00000   0.00104   0.00103   0.22850
   D20       -0.22823  -0.00099   0.00000  -0.00207  -0.00204  -0.23027
   D21       -1.57080  -0.00090   0.00000  -0.00129  -0.00133  -1.57212
   D22        1.57080   0.00075   0.00000   0.00053   0.00058   1.57138
   D23        1.79827   0.00103   0.00000  -0.00023  -0.00017   1.79810
   D24        1.34257  -0.00072   0.00000  -0.00334  -0.00324   1.33933
   D25        0.00000  -0.00063   0.00000  -0.00256  -0.00252  -0.00252
   D26        3.14159   0.00102   0.00000  -0.00074  -0.00061   3.14098
   D27       -1.34332   0.00065   0.00000   0.00268   0.00258  -1.34074
   D28       -1.79903  -0.00109   0.00000  -0.00043  -0.00049  -1.79951
   D29        3.14159  -0.00101   0.00000   0.00035   0.00023  -3.14137
   D30        0.00000   0.00065   0.00000   0.00217   0.00214   0.00214
         Item               Value     Threshold  Converged?
 Maximum Force            0.038464     0.000450     NO 
 RMS     Force            0.010932     0.000300     NO 
 Maximum Displacement     0.114246     0.001800     NO 
 RMS     Displacement     0.027716     0.001200     NO 
 Predicted change in Energy=-1.162768D-02
 GradGradGradGradGradGradGradGradGradGradGradGradGradGradGradGradGradGrad

                          Input orientation:                          
 ---------------------------------------------------------------------
 Center     Atomic      Atomic             Coordinates (Angstroms)
 Number     Number       Type             X           Y           Z
 ---------------------------------------------------------------------
      1          6           0       -0.011313    0.003139   -0.007017
      2          1           0       -0.001012    0.003166    1.076603
      3          1           0        0.934844    0.003238   -0.535477
      4          6           0       -1.158555    0.002353   -0.675533
      5          1           0       -2.106232    0.000991   -0.149965
      6          1           0       -1.164888    0.001221   -1.759229
      7          6           0       -0.204544    3.990714   -0.120219
      8          6           0       -1.343846    3.992849   -0.781922
      9          9           0        0.964965    3.988005   -0.726267
     10          9           0       -0.148948    3.988074    1.195279
     11          9           0       -1.404320    3.995242   -2.097430
     12          9           0       -2.515973    3.994883   -0.180462
 ---------------------------------------------------------------------
                    Distance matrix (angstroms):
                    1          2          3          4          5
     1  C    0.000000
     2  H    1.083669   0.000000
     3  H    1.083736   1.864035   0.000000
     4  C    1.327810   2.099973   2.098079   0.000000
     5  H    2.099791   2.436478   3.065415   1.083658   0.000000
     6  H    2.097852   3.065380   2.430318   1.083715   1.864366
     7  C    3.993859   4.168255   4.167806   4.138301   4.419864
     8  C    4.277139   4.601618   4.601105   3.996212   4.112850
     9  F    4.165285   4.479106   3.989446   4.516340   5.065635
    10  F    4.164633   3.989418   4.477615   4.517213   4.640848
    11  F    4.716692   5.289653   4.883388   4.245627   4.498815
    12  F    4.715657   4.882524   5.288421   4.245935   4.014970
                    6          7          8          9         10
     6  H    0.000000
     7  C    4.418673   0.000000
     8  C    4.113424   1.317522   0.000000
     9  F    4.636565   1.317214   2.309487   0.000000
    10  F    5.065200   1.316676   2.310222   2.221069   0.000000
    11  F    4.015459   2.312757   1.316900   2.737453   3.523910
    12  F    4.501919   2.312218   1.317436   3.523476   2.737794
                   11         12
    11  F    0.000000
    12  F    2.215973   0.000000
 Stoichiometry    C4H4F4
 Framework group  C1[X(C4H4F4)]
 Deg. of freedom    30
 Full point group                 C1      NOp   1
 Largest Abelian subgroup         C1      NOp   1
 Largest concise Abelian subgroup C1      NOp   1
                         Standard orientation:                         
 ---------------------------------------------------------------------
 Center     Atomic      Atomic             Coordinates (Angstroms)
 Number     Number       Type             X           Y           Z
 ---------------------------------------------------------------------
      1          6           0       -3.058744    0.528289   -0.001163
      2          1           0       -3.113537    1.078768   -0.932994
      3          1           0       -3.113576    1.078264    0.931041
      4          6           0       -2.927754   -0.793042    0.000655
      5          1           0       -2.873904   -1.345895   -0.929812
      6          1           0       -2.874398   -1.340254    0.934545
      7          6           0        0.931371    0.701177    0.000009
      8          6           0        1.064247   -0.609627   -0.000077
      9          9           0        0.858430    1.404271    1.111491
     10          9           0        0.858494    1.406260   -1.109577
     11          9           0        1.137297   -1.318937    1.107067
     12          9           0        1.136968   -1.317335   -1.108906
 ---------------------------------------------------------------------
 Rotational constants (GHZ):      1.9050739      1.1292964      0.9741719
 Standard basis: 6-311++G(d,p) (5D, 7F)
 There are   212 symmetry adapted cartesian basis functions of A   symmetry.
 There are   204 symmetry adapted basis functions of A   symmetry.
   204 basis functions,   324 primitive gaussians,   212 cartesian basis functions
    32 alpha electrons       32 beta electrons
       nuclear repulsion energy       371.5730506382 Hartrees.
 NAtoms=   12 NActive=   12 NUniq=   12 SFac= 1.00D+00 NAtFMM=   60 NAOKFM=F Big=F
 Integral buffers will be    131072 words long.
 Raffenetti 2 integral format.
 Two-electron integral symmetry is turned on.
 Nuclear repulsion after empirical dispersion term =      371.5697218120 Hartrees.
 One-electron integrals computed using PRISM.
 NBasis=   204 RedAO= T EigKep=  2.99D-05  NBF=   204
 NBsUse=   204 1.00D-06 EigRej= -1.00D+00 NBFU=   204
 Initial guess from the checkpoint file:  "c2h4-c2f4-wb97xd-pople.chk"
 B after Tr=     0.000000    0.000000    0.000000
         Rot=    0.999997    0.001462    0.000029   -0.001798 Ang=   0.27 deg.
 ExpMin= 3.60D-02 ExpMax= 1.14D+04 ExpMxC= 1.72D+03 IAcc=3 IRadAn=         5 AccDes= 0.00D+00
 Harris functional with IExCor= 4639 and IRadAn=       5 diagonalized for initial guess.
 HarFok:  IExCor= 4639 AccDes= 0.00D+00 IRadAn=         5 IDoV= 1 UseB2=F ITyADJ=14
 ICtDFT=  3500011 ScaDFX=  1.000000  1.000000  1.000000  1.000000
 FoFCou: FMM=F IPFlag=           0 FMFlag=      100000 FMFlg1=           0
         NFxFlg=           0 DoJE=T BraDBF=F KetDBF=T FulRan=T
         wScrn=  0.000000 ICntrl=     500 IOpCl=  0 I1Cent=   200000004 NGrid=           0
         NMat0=    1 NMatS0=      1 NMatT0=    0 NMatD0=    1 NMtDS0=    0 NMtDT0=    0
 Petite list used in FoFCou.
 Keep R1 ints in memory in canonical form, NReq=442237348.
 Requested convergence on RMS density matrix=1.00D-08 within 128 cycles.
 Requested convergence on MAX density matrix=1.00D-06.
 Requested convergence on             energy=1.00D-06.
 No special actions if energy rises.
 SCF Done:  E(RwB97XD) =  -554.108638002     A.U. after   11 cycles
            NFock= 11  Conv=0.49D-08     -V/T= 2.0028
 Calling FoFJK, ICntrl=      2127 FMM=F ISym2X=0 I1Cent= 0 IOpClX= 0 NMat=1 NMatS=1 NMatT=0.
 ***** Axes restored to original set *****
 -------------------------------------------------------------------
 Center     Atomic                   Forces (Hartrees/Bohr)
 Number     Number              X              Y              Z
 -------------------------------------------------------------------
      1        6          -0.004135049    0.000691808   -0.002512732
      2        1           0.002455918   -0.000071356    0.000813085
      3        1           0.001999035   -0.000064260    0.001894495
      4        6           0.004299650    0.000679654    0.002388233
      5        1          -0.001966330   -0.000018133   -0.001759637
      6        1          -0.002685720   -0.000020892   -0.000842108
      7        6          -0.000381631   -0.000280988   -0.000763563
      8        6          -0.000949585    0.000052143   -0.000003679
      9        9          -0.001893585   -0.000233956    0.006539480
     10        9           0.004631920   -0.000247085   -0.004653267
     11        9          -0.003616515   -0.000250504    0.004442593
     12        9           0.002241892   -0.000236432   -0.005542900
 -------------------------------------------------------------------
 Cartesian Forces:  Max     0.006539480 RMS     0.002569515

 GradGradGradGradGradGradGradGradGradGradGradGradGradGradGradGradGradGrad
 Berny optimization.
 Using GEDIIS/GDIIS optimizer.
 FormGI is forming the generalized inverse of G from B-inverse, IUseBI=4.
 Internal  Forces:  Max     0.004755332 RMS     0.001619013
 Search for a local minimum.
 Step number   2 out of a maximum of   86
 All quantities printed in internal units (Hartrees-Bohrs-Radians)
 Mixed Optimization -- RFO/linear search
 Update second derivatives using D2CorX and points    1    2
 DE= -1.28D-02 DEPred=-1.16D-02 R= 1.10D+00
 TightC=F SS=  1.41D+00  RLast= 2.70D-01 DXNew= 5.0454D-01 8.1127D-01
 Trust test= 1.10D+00 RLast= 2.70D-01 DXMaxT set to 5.05D-01
 ITU=  1  0
 Use linear search instead of GDIIS.
     Eigenvalues ---    0.00562   0.00763   0.02986   0.03015   0.04055
     Eigenvalues ---    0.04908   0.05262   0.05900   0.06675   0.06811
     Eigenvalues ---    0.08085   0.08392   0.08755   0.09836   0.10933
     Eigenvalues ---    0.12634   0.14616   0.15743   0.18118   0.19412
     Eigenvalues ---    0.34637   0.35909   0.37230   0.37242   0.51851
     Eigenvalues ---    0.52782   0.55014   0.55021   0.55021   0.56561
 RFO step:  Lambda=-5.79523398D-04 EMin= 5.62021424D-03
 Quartic linear search produced a step of  0.14960.
 Iteration  1 RMS(Cart)=  0.01307123 RMS(Int)=  0.00007987
 Iteration  2 RMS(Cart)=  0.00007537 RMS(Int)=  0.00002239
 Iteration  3 RMS(Cart)=  0.00000000 RMS(Int)=  0.00002239
 Variable       Old X    -DE/DX   Delta X   Delta X   Delta X     New X
                                 (Linear)    (Quad)   (Total)
    R1        2.04784   0.00084   0.00386  -0.00135   0.00252   2.05036
    R2        2.04796   0.00082   0.00388  -0.00141   0.00247   2.05043
    R3        2.50920   0.00045  -0.00774   0.00805   0.00031   2.50951
    R4        7.54730  -0.00064  -0.00174  -0.03992  -0.04165   7.50565
    R5        2.04782   0.00095   0.00386  -0.00111   0.00277   2.05059
    R6        2.04792   0.00093   0.00388  -0.00117   0.00272   2.05065
    R7        7.82026  -0.00018  -0.00397  -0.03021  -0.03417   7.78608
    R8        7.55175  -0.00025  -0.00107  -0.02996  -0.03107   7.52068
    R9        7.77216  -0.00011   0.00024  -0.03202  -0.03178   7.74038
   R10        7.77324  -0.00009   0.00032  -0.03234  -0.03201   7.74123
   R11        2.48976   0.00263  -0.01065   0.01616   0.00551   2.49526
   R12        2.48917  -0.00469  -0.00927  -0.00083  -0.01010   2.47908
   R13        2.48816  -0.00446  -0.00942  -0.00019  -0.00961   2.47855
   R14        2.48858  -0.00427  -0.00936   0.00014  -0.00921   2.47937
   R15        2.48959  -0.00452  -0.00921  -0.00053  -0.00974   2.47985
    A1        2.07066  -0.00174  -0.00325  -0.01927  -0.02252   2.04814
    A2        2.10792   0.00083   0.00143   0.00883   0.01026   2.11818
    A3        1.59958   0.00004   0.00017   0.00025   0.00041   1.59999
    A4        2.10461   0.00091   0.00182   0.01044   0.01226   2.11687
    A5        1.59913   0.00003   0.00015   0.00011   0.00025   1.59937
    A6        2.10762   0.00097   0.00139   0.00862   0.01000   2.11762
    A7        2.10425   0.00110   0.00177   0.01031   0.01207   2.11632
    A8        1.62370   0.00016  -0.00030  -0.00127  -0.00154   1.62215
    A9        2.07131  -0.00207  -0.00316  -0.01892  -0.02207   2.04924
   A10        1.70897   0.00042   0.00000   0.00278   0.00279   1.71176
   A11        1.70777   0.00043   0.00004   0.00291   0.00296   1.71072
   A12        1.62852  -0.00002   0.00043   0.00155   0.00197   1.63049
   A13        1.53882  -0.00010  -0.00069  -0.00239  -0.00309   1.53573
   A14        1.53843  -0.00013  -0.00071  -0.00251  -0.00322   1.53520
   A15        1.71223   0.00041   0.00070   0.00140   0.00204   1.71427
   A16        1.71315   0.00038   0.00063   0.00133   0.00191   1.71505
   A17        2.13731   0.00180   0.00672   0.00930   0.01602   2.15333
   A18        2.13921   0.00167   0.00611   0.00885   0.01496   2.15417
   A19        2.00666  -0.00347  -0.01283  -0.01816  -0.03099   1.97567
   A20        1.60134   0.00019   0.00044   0.00030   0.00077   1.60211
   A21        1.60144   0.00021   0.00050   0.00045   0.00097   1.60242
   A22        0.45724  -0.00007   0.00044  -0.00094  -0.00055   0.45670
   A23        1.65244   0.00004   0.00059   0.00004   0.00063   1.65307
   A24        1.71807  -0.00055  -0.00128  -0.00287  -0.00423   1.71384
   A25        1.33505   0.00009   0.00001  -0.00054  -0.00048   1.33457
   A26        1.65101   0.00004   0.00057   0.00028   0.00086   1.65187
   A27        1.33504   0.00007  -0.00004  -0.00071  -0.00070   1.33434
   A28        1.72002  -0.00057  -0.00135  -0.00302  -0.00446   1.71556
   A29        2.14291   0.00229   0.00667   0.00614   0.01280   2.15572
   A30        2.14131   0.00246   0.00732   0.00641   0.01372   2.15504
   A31        1.99895  -0.00476  -0.01398  -0.01255  -0.02652   1.97243
    D1       -0.00079  -0.00004  -0.00012   0.00300   0.00289   0.00211
    D2       -3.14041   0.00017   0.00018  -0.00101  -0.00084  -3.14124
    D3        1.57078   0.00006   0.00000   0.00103   0.00103   1.57181
    D4        3.14024  -0.00017  -0.00020   0.00097   0.00077   3.14101
    D5        0.00062   0.00004   0.00009  -0.00304  -0.00296  -0.00234
    D6       -1.57138  -0.00007  -0.00009  -0.00100  -0.00109  -1.57247
    D7       -2.10578  -0.00077  -0.00121  -0.00852  -0.00973  -2.11551
    D8        2.04090  -0.00257  -0.00790  -0.01772  -0.02562   2.01528
    D9        0.03261   0.00089   0.00488   0.00022   0.00510   0.03771
   D10        2.10537   0.00096   0.00203   0.01077   0.01280   2.11817
   D11       -0.03114  -0.00084  -0.00466   0.00156  -0.00309  -0.03423
   D12       -2.03942   0.00263   0.00812   0.01951   0.02763  -2.01180
   D13        3.11306  -0.00080  -0.00514  -0.00071  -0.00587   3.10719
   D14        1.07413   0.00261   0.00786   0.01747   0.02533   1.09946
   D15       -1.06619  -0.00275  -0.00841  -0.01898  -0.02739  -1.09359
   D16       -3.10512   0.00067   0.00459  -0.00080   0.00380  -3.10131
   D17        2.14363   0.00234   0.00687   0.00645   0.01332   2.15694
   D18       -2.13915  -0.00240  -0.00709  -0.00608  -0.01316  -2.15231
   D19        0.22850  -0.00005   0.00015  -0.00052  -0.00038   0.22812
   D20       -0.23027   0.00002  -0.00031   0.00042   0.00014  -0.23013
   D21       -1.57212   0.00005  -0.00020   0.00150   0.00130  -1.57083
   D22        1.57138  -0.00008   0.00009  -0.00155  -0.00146   1.56991
   D23        1.79810  -0.00008  -0.00003  -0.00184  -0.00187   1.79623
   D24        1.33933  -0.00002  -0.00048  -0.00090  -0.00135   1.33798
   D25       -0.00252   0.00002  -0.00038   0.00017  -0.00019  -0.00271
   D26        3.14098  -0.00011  -0.00009  -0.00288  -0.00295   3.13803
   D27       -1.34074   0.00002   0.00039   0.00097   0.00133  -1.33941
   D28       -1.79951   0.00009  -0.00007   0.00191   0.00185  -1.79766
   D29       -3.14137   0.00013   0.00003   0.00299   0.00301  -3.13835
   D30        0.00214   0.00000   0.00032  -0.00006   0.00025   0.00239
         Item               Value     Threshold  Converged?
 Maximum Force            0.004755     0.000450     NO 
 RMS     Force            0.001619     0.000300     NO 
 Maximum Displacement     0.039422     0.001800     NO 
 RMS     Displacement     0.013062     0.001200     NO 
 Predicted change in Energy=-6.169907D-04
 GradGradGradGradGradGradGradGradGradGradGradGradGradGradGradGradGradGrad

                          Input orientation:                          
 ---------------------------------------------------------------------
 Center     Atomic      Atomic             Coordinates (Angstroms)
 Number     Number       Type             X           Y           Z
 ---------------------------------------------------------------------
      1          6           0       -0.011337    0.014650   -0.007344
      2          1           0        0.009998    0.014804    1.077449
      3          1           0        0.942431    0.015139   -0.524687
      4          6           0       -1.158646    0.010961   -0.676062
      5          1           0       -2.112875    0.009929   -0.159401
      6          1           0       -1.177968    0.010490   -1.761045
      7          6           0       -0.203614    3.980213   -0.120063
      8          6           0       -1.345716    3.984901   -0.782737
      9          9           0        0.970406    3.974433   -0.705424
     10          9           0       -0.128088    3.974347    1.189338
     11          9           0       -1.423298    3.987228   -2.092462
     12          9           0       -2.521118    3.986781   -0.199202
 ---------------------------------------------------------------------
                    Distance matrix (angstroms):
                    1          2          3          4          5
     1  C    0.000000
     2  H    1.085002   0.000000
     3  H    1.085043   1.853718   0.000000
     4  C    1.327975   2.107260   2.106528   0.000000
     5  H    2.107038   2.456911   3.077070   1.085123   0.000000
     6  H    2.106304   3.077065   2.454526   1.085156   1.854540
     7  C    3.971821   4.147787   4.147162   4.120217   4.405676
     8  C    4.259659   4.589109   4.589250   3.979771   4.096033
     9  F    4.138963   4.447435   3.963516   4.499204   5.051936
    10  F    4.138222   3.963530   4.445135   4.500023   4.634123
    11  F    4.703481   5.280419   4.881812   4.229295   4.475618
    12  F    4.702514   4.879855   5.279778   4.229760   3.997949
                    6          7          8          9         10
     6  H    0.000000
     7  C    4.404644   0.000000
     8  C    4.096483   1.320437   0.000000
     9  F    4.630626   1.311871   2.317436   0.000000
    10  F    5.051651   1.311591   2.317717   2.190163   0.000000
    11  F    3.998058   2.319060   1.312023   2.766561   3.528165
    12  F    4.478202   2.318864   1.312282   3.528052   2.766730
                   11         12
    11  F    0.000000
    12  F    2.188525   0.000000
 Stoichiometry    C4H4F4
 Framework group  C1[X(C4H4F4)]
 Deg. of freedom    30
 Full point group                 C1      NOp   1
 Largest Abelian subgroup         C1      NOp   1
 Largest concise Abelian subgroup C1      NOp   1
                         Standard orientation:                         
 ---------------------------------------------------------------------
 Center     Atomic      Atomic             Coordinates (Angstroms)
 Number     Number       Type             X           Y           Z
 ---------------------------------------------------------------------
      1          6           0       -3.043973    0.518041   -0.001222
      2          1           0       -3.101735    1.078171   -0.928663
      3          1           0       -3.101798    1.080169    0.925054
      4          6           0       -2.910837   -0.803241    0.001062
      5          1           0       -2.853477   -1.366162   -0.924855
      6          1           0       -2.853561   -1.361768    0.929680
      7          6           0        0.923451    0.704876    0.000133
      8          6           0        1.064143   -0.608044   -0.000194
      9          9           0        0.843268    1.421854    1.095815
     10          9           0        0.843274    1.423176   -1.094347
     11          9           0        1.141001   -1.328639    1.093534
     12          9           0        1.140664   -1.327524   -1.094990
 ---------------------------------------------------------------------
 Rotational constants (GHZ):      1.9008387      1.1445135      0.9749172
 Standard basis: 6-311++G(d,p) (5D, 7F)
 There are   212 symmetry adapted cartesian basis functions of A   symmetry.
 There are   204 symmetry adapted basis functions of A   symmetry.
   204 basis functions,   324 primitive gaussians,   212 cartesian basis functions
    32 alpha electrons       32 beta electrons
       nuclear repulsion energy       372.2347289079 Hartrees.
 NAtoms=   12 NActive=   12 NUniq=   12 SFac= 1.00D+00 NAtFMM=   60 NAOKFM=F Big=F
 Integral buffers will be    131072 words long.
 Raffenetti 2 integral format.
 Two-electron integral symmetry is turned on.
 Nuclear repulsion after empirical dispersion term =      372.2313680035 Hartrees.
 One-electron integrals computed using PRISM.
 NBasis=   204 RedAO= T EigKep=  2.99D-05  NBF=   204
 NBsUse=   204 1.00D-06 EigRej= -1.00D+00 NBFU=   204
 Initial guess from the checkpoint file:  "c2h4-c2f4-wb97xd-pople.chk"
 B after Tr=     0.000000    0.000000    0.000000
         Rot=    0.999998    0.000099   -0.000003   -0.002082 Ang=   0.24 deg.
 ExpMin= 3.60D-02 ExpMax= 1.14D+04 ExpMxC= 1.72D+03 IAcc=3 IRadAn=         5 AccDes= 0.00D+00
 Harris functional with IExCor= 4639 and IRadAn=       5 diagonalized for initial guess.
 HarFok:  IExCor= 4639 AccDes= 0.00D+00 IRadAn=         5 IDoV= 1 UseB2=F ITyADJ=14
 ICtDFT=  3500011 ScaDFX=  1.000000  1.000000  1.000000  1.000000
 FoFCou: FMM=F IPFlag=           0 FMFlag=      100000 FMFlg1=           0
         NFxFlg=           0 DoJE=T BraDBF=F KetDBF=T FulRan=T
         wScrn=  0.000000 ICntrl=     500 IOpCl=  0 I1Cent=   200000004 NGrid=           0
         NMat0=    1 NMatS0=      1 NMatT0=    0 NMatD0=    1 NMtDS0=    0 NMtDT0=    0
 Petite list used in FoFCou.
 Keep R1 ints in memory in canonical form, NReq=442237348.
 Requested convergence on RMS density matrix=1.00D-08 within 128 cycles.
 Requested convergence on MAX density matrix=1.00D-06.
 Requested convergence on             energy=1.00D-06.
 No special actions if energy rises.
 SCF Done:  E(RwB97XD) =  -554.109205273     A.U. after   10 cycles
            NFock= 10  Conv=0.56D-08     -V/T= 2.0028
 Calling FoFJK, ICntrl=      2127 FMM=F ISym2X=0 I1Cent= 0 IOpClX= 0 NMat=1 NMatS=1 NMatT=0.
 ***** Axes restored to original set *****
 -------------------------------------------------------------------
 Center     Atomic                   Forces (Hartrees/Bohr)
 Number     Number              X              Y              Z
 -------------------------------------------------------------------
      1        6          -0.002280244    0.000478143   -0.001379757
      2        1           0.000662490   -0.000020509    0.000080476
      3        1           0.000417649   -0.000009153    0.000604378
      4        6           0.002366782    0.000959309    0.001323263
      5        1          -0.000382388   -0.000100359   -0.000641876
      6        1          -0.000816748   -0.000106351   -0.000005073
      7        6          -0.002952555   -0.000462108   -0.001984241
      8        6           0.002342489   -0.000125672    0.001617610
      9        9           0.001012441   -0.000146048   -0.000587898
     10        9          -0.000043807   -0.000156958    0.001320184
     11        9           0.000457877   -0.000160118   -0.001291163
     12        9          -0.000783986   -0.000150175    0.000944097
 -------------------------------------------------------------------
 Cartesian Forces:  Max     0.002952555 RMS     0.001123208

 GradGradGradGradGradGradGradGradGradGradGradGradGradGradGradGradGradGrad
 Berny optimization.
 Using GEDIIS/GDIIS optimizer.
 FormGI is forming the generalized inverse of G from B-inverse, IUseBI=4.
 Internal  Forces:  Max     0.002219357 RMS     0.000458834
 Search for a local minimum.
 Step number   3 out of a maximum of   86
 All quantities printed in internal units (Hartrees-Bohrs-Radians)
 Mixed Optimization -- En-DIIS/RFO-DIIS
 Update second derivatives using D2CorX and points    1    2    3
 DE= -5.67D-04 DEPred=-6.17D-04 R= 9.19D-01
 TightC=F SS=  1.41D+00  RLast= 1.18D-01 DXNew= 8.4853D-01 3.5467D-01
 Trust test= 9.19D-01 RLast= 1.18D-01 DXMaxT set to 5.05D-01
 ITU=  1  1  0
 Use linear search instead of GDIIS.
     Eigenvalues ---    0.00534   0.00767   0.02979   0.02998   0.04032
     Eigenvalues ---    0.04909   0.05207   0.05887   0.06629   0.06736
     Eigenvalues ---    0.07605   0.08358   0.08712   0.09518   0.11708
     Eigenvalues ---    0.12554   0.14685   0.15732   0.19394   0.19815
     Eigenvalues ---    0.34653   0.35905   0.37230   0.37248   0.52346
     Eigenvalues ---    0.54951   0.55021   0.55021   0.55611   0.59182
 RFO step:  Lambda=-1.04176820D-04 EMin= 5.33575325D-03
 Quartic linear search produced a step of  0.01060.
 Iteration  1 RMS(Cart)=  0.00985069 RMS(Int)=  0.00000622
 Iteration  2 RMS(Cart)=  0.00000544 RMS(Int)=  0.00000236
 Iteration  3 RMS(Cart)=  0.00000000 RMS(Int)=  0.00000236
 Variable       Old X    -DE/DX   Delta X   Delta X   Delta X     New X
                                 (Linear)    (Quad)   (Total)
    R1        2.05036   0.00010   0.00003   0.00050   0.00052   2.05088
    R2        2.05043   0.00008   0.00003   0.00046   0.00048   2.05092
    R3        2.50951  -0.00134   0.00000  -0.00285  -0.00285   2.50666
    R4        7.50565  -0.00043  -0.00044  -0.05181  -0.05224   7.45341
    R5        2.05059   0.00002   0.00003   0.00027   0.00030   2.05088
    R6        2.05065   0.00001   0.00003   0.00023   0.00026   2.05090
    R7        7.78608  -0.00057  -0.00036  -0.04646  -0.04683   7.73925
    R8        7.52068  -0.00030  -0.00033  -0.04410  -0.04443   7.47625
    R9        7.74038   0.00003  -0.00034  -0.03915  -0.03948   7.70090
   R10        7.74123   0.00004  -0.00034  -0.03914  -0.03948   7.70175
   R11        2.49526  -0.00222   0.00006  -0.00419  -0.00413   2.49113
   R12        2.47908   0.00117  -0.00011   0.00133   0.00123   2.48030
   R13        2.47855   0.00131  -0.00010   0.00163   0.00153   2.48007
   R14        2.47937   0.00127  -0.00010   0.00156   0.00147   2.48083
   R15        2.47985   0.00113  -0.00010   0.00128   0.00118   2.48103
    A1        2.04814  -0.00048  -0.00024  -0.00727  -0.00751   2.04063
    A2        2.11818   0.00023   0.00011   0.00315   0.00325   2.12143
    A3        1.59999  -0.00001   0.00000  -0.00004  -0.00003   1.59995
    A4        2.11687   0.00025   0.00013   0.00412   0.00425   2.12112
    A5        1.59937  -0.00002   0.00000  -0.00017  -0.00017   1.59920
    A6        2.11762   0.00028   0.00011   0.00327   0.00337   2.12100
    A7        2.11632   0.00032   0.00013   0.00423   0.00436   2.12068
    A8        1.62215  -0.00020  -0.00002  -0.00164  -0.00165   1.62050
    A9        2.04924  -0.00060  -0.00023  -0.00749  -0.00773   2.04151
   A10        1.71176   0.00010   0.00003   0.00333   0.00337   1.71513
   A11        1.71072   0.00010   0.00003   0.00342   0.00345   1.71417
   A12        1.63049  -0.00001   0.00002   0.00173   0.00176   1.63225
   A13        1.53573  -0.00002  -0.00003  -0.00120  -0.00124   1.53449
   A14        1.53520  -0.00003  -0.00003  -0.00129  -0.00133   1.53387
   A15        1.71427  -0.00012   0.00002  -0.00011  -0.00008   1.71418
   A16        1.71505  -0.00013   0.00002  -0.00015  -0.00013   1.71493
   A17        2.15333  -0.00001   0.00017   0.00098   0.00115   2.15447
   A18        2.15417  -0.00007   0.00016   0.00044   0.00060   2.15478
   A19        1.97567   0.00008  -0.00033  -0.00143  -0.00175   1.97392
   A20        1.60211  -0.00011   0.00001  -0.00018  -0.00017   1.60194
   A21        1.60242  -0.00010   0.00001  -0.00008  -0.00006   1.60235
   A22        0.45670  -0.00008  -0.00001   0.00135   0.00134   0.45804
   A23        1.65307   0.00020   0.00001   0.00013   0.00014   1.65321
   A24        1.71384  -0.00010  -0.00004  -0.00025  -0.00030   1.71355
   A25        1.33457  -0.00011  -0.00001  -0.00155  -0.00156   1.33301
   A26        1.65187   0.00019   0.00001   0.00019   0.00020   1.65208
   A27        1.33434  -0.00012  -0.00001  -0.00166  -0.00167   1.33267
   A28        1.71556  -0.00011  -0.00005  -0.00032  -0.00037   1.71520
   A29        2.15572  -0.00035   0.00014  -0.00095  -0.00082   2.15490
   A30        2.15504  -0.00029   0.00015  -0.00053  -0.00039   2.15465
   A31        1.97243   0.00064  -0.00028   0.00148   0.00120   1.97364
    D1        0.00211  -0.00006   0.00003  -0.00059  -0.00056   0.00155
    D2       -3.14124   0.00010  -0.00001   0.00170   0.00169  -3.13956
    D3        1.57181   0.00002   0.00001   0.00052   0.00054   1.57235
    D4        3.14101  -0.00010   0.00001  -0.00166  -0.00165   3.13936
    D5       -0.00234   0.00006  -0.00003   0.00063   0.00060  -0.00174
    D6       -1.57247  -0.00002  -0.00001  -0.00054  -0.00056  -1.57303
    D7       -2.11551  -0.00020  -0.00010  -0.00281  -0.00291  -2.11842
    D8        2.01528  -0.00019  -0.00027  -0.00373  -0.00400   2.01128
    D9        0.03771  -0.00027   0.00005  -0.00243  -0.00238   0.03533
   D10        2.11817   0.00028   0.00014   0.00448   0.00462   2.12279
   D11       -0.03423   0.00029  -0.00003   0.00357   0.00354  -0.03070
   D12       -2.01180   0.00021   0.00029   0.00486   0.00515  -2.00665
   D13        3.10719   0.00028  -0.00006   0.00190   0.00183   3.10902
   D14        1.09946   0.00025   0.00027   0.00343   0.00370   1.10316
   D15       -1.09359  -0.00030  -0.00029  -0.00425  -0.00454  -1.09813
   D16       -3.10131  -0.00033   0.00004  -0.00272  -0.00267  -3.10398
   D17        2.15694  -0.00033   0.00014  -0.00061  -0.00046   2.15648
   D18       -2.15231   0.00030  -0.00014   0.00087   0.00073  -2.15158
   D19        0.22812  -0.00005   0.00000   0.00058   0.00058   0.22869
   D20       -0.23013   0.00003   0.00000  -0.00078  -0.00078  -0.23091
   D21       -1.57083   0.00002   0.00001   0.00102   0.00104  -1.56979
   D22        1.56991  -0.00003  -0.00002  -0.00116  -0.00118   1.56874
   D23        1.79623  -0.00008  -0.00002   0.00034   0.00032   1.79655
   D24        1.33798   0.00000  -0.00001  -0.00102  -0.00104   1.33694
   D25       -0.00271  -0.00001   0.00000   0.00078   0.00078  -0.00193
   D26        3.13803  -0.00006  -0.00003  -0.00140  -0.00143   3.13659
   D27       -1.33941   0.00001   0.00001   0.00096   0.00098  -1.33843
   D28       -1.79766   0.00008   0.00002  -0.00040  -0.00038  -1.79804
   D29       -3.13835   0.00007   0.00003   0.00141   0.00144  -3.13692
   D30        0.00239   0.00002   0.00000  -0.00078  -0.00078   0.00161
         Item               Value     Threshold  Converged?
 Maximum Force            0.002219     0.000450     NO 
 RMS     Force            0.000459     0.000300     NO 
 Maximum Displacement     0.028150     0.001800     NO 
 RMS     Displacement     0.009852     0.001200     NO 
 Predicted change in Energy=-5.291706D-05
 GradGradGradGradGradGradGradGradGradGradGradGradGradGradGradGradGradGrad

                          Input orientation:                          
 ---------------------------------------------------------------------
 Center     Atomic      Atomic             Coordinates (Angstroms)
 Number     Number       Type             X           Y           Z
 ---------------------------------------------------------------------
      1          6           0       -0.012605    0.029029   -0.008208
      2          1           0        0.012164    0.029530    1.076788
      3          1           0        0.943630    0.030036   -0.521518
      4          6           0       -1.158543    0.023184   -0.676274
      5          1           0       -2.114689    0.020112   -0.162848
      6          1           0       -1.182489    0.020803   -1.761298
      7          6           0       -0.204251    3.966940   -0.120662
      8          6           0       -1.344621    3.973652   -0.781948
      9          9           0        0.970865    3.959717   -0.705265
     10          9           0       -0.127567    3.959558    1.189473
     11          9           0       -1.421507    3.975914   -2.092492
     12          9           0       -2.520210    3.975400   -0.197388
 ---------------------------------------------------------------------
                    Distance matrix (angstroms):
                    1          2          3          4          5
     1  C    0.000000
     2  H    1.085279   0.000000
     3  H    1.085298   1.849922   0.000000
     4  C    1.326469   2.108038   2.107872   0.000000
     5  H    2.107784   2.461766   3.079295   1.085280   0.000000
     6  H    2.107610   3.079287   2.461203   1.085291   1.850416
     7  C    3.944176   4.121156   4.120380   4.095436   4.385090
     8  C    4.234736   4.566384   4.566839   3.956259   4.075140
     9  F    4.111376   4.420543   3.934070   4.475658   5.033424
    10  F    4.110562   3.934126   4.417703   4.476491   4.614831
    11  F    4.680507   5.260580   4.861254   4.207006   4.455603
    12  F    4.679499   4.858635   5.260147   4.207550   3.976171
                    6          7          8          9         10
     6  H    0.000000
     7  C    4.384135   0.000000
     8  C    4.075589   1.318252   0.000000
     9  F    4.611636   1.312520   2.316797   0.000000
    10  F    5.033260   1.312398   2.316877   2.190110   0.000000
    11  F    3.976144   2.317306   1.312799   2.765521   3.527866
    12  F    4.458043   2.317245   1.312906   3.527859   2.765570
                   11         12
    11  F    0.000000
    12  F    2.190563   0.000000
 Stoichiometry    C4H4F4
 Framework group  C1[X(C4H4F4)]
 Deg. of freedom    30
 Full point group                 C1      NOp   1
 Largest Abelian subgroup         C1      NOp   1
 Largest concise Abelian subgroup C1      NOp   1
                         Standard orientation:                         
 ---------------------------------------------------------------------
 Center     Atomic      Atomic             Coordinates (Angstroms)
 Number     Number       Type             X           Y           Z
 ---------------------------------------------------------------------
      1          6           0       -3.024013    0.513086   -0.001260
      2          1           0       -3.082682    1.076119   -0.927209
      3          1           0       -3.082730    1.079394    0.922709
      4          6           0       -2.890939   -0.806689    0.001280
      5          1           0       -2.834290   -1.373079   -0.922747
      6          1           0       -2.834214   -1.369226    0.927665
      7          6           0        0.915518    0.704428    0.000244
      8          6           0        1.060219   -0.605858   -0.000285
      9          9           0        0.832523    1.422544    1.095748
     10          9           0        0.832495    1.423687   -1.094362
     11          9           0        1.138191   -1.326033    1.094572
     12          9           0        1.137814   -1.324977   -1.095991
 ---------------------------------------------------------------------
 Rotational constants (GHZ):      1.9017661      1.1560535      0.9837859
 Standard basis: 6-311++G(d,p) (5D, 7F)
 There are   212 symmetry adapted cartesian basis functions of A   symmetry.
 There are   204 symmetry adapted basis functions of A   symmetry.
   204 basis functions,   324 primitive gaussians,   212 cartesian basis functions
    32 alpha electrons       32 beta electrons
       nuclear repulsion energy       372.7673499552 Hartrees.
 NAtoms=   12 NActive=   12 NUniq=   12 SFac= 1.00D+00 NAtFMM=   60 NAOKFM=F Big=F
 Integral buffers will be    131072 words long.
 Raffenetti 2 integral format.
 Two-electron integral symmetry is turned on.
 Nuclear repulsion after empirical dispersion term =      372.7639444542 Hartrees.
 One-electron integrals computed using PRISM.
 NBasis=   204 RedAO= T EigKep=  2.93D-05  NBF=   204
 NBsUse=   204 1.00D-06 EigRej= -1.00D+00 NBFU=   204
 Initial guess from the checkpoint file:  "c2h4-c2f4-wb97xd-pople.chk"
 B after Tr=     0.000000    0.000000    0.000000
         Rot=    1.000000    0.000023   -0.000003   -0.000998 Ang=   0.11 deg.
 ExpMin= 3.60D-02 ExpMax= 1.14D+04 ExpMxC= 1.72D+03 IAcc=3 IRadAn=         5 AccDes= 0.00D+00
 Harris functional with IExCor= 4639 and IRadAn=       5 diagonalized for initial guess.
 HarFok:  IExCor= 4639 AccDes= 0.00D+00 IRadAn=         5 IDoV= 1 UseB2=F ITyADJ=14
 ICtDFT=  3500011 ScaDFX=  1.000000  1.000000  1.000000  1.000000
 FoFCou: FMM=F IPFlag=           0 FMFlag=      100000 FMFlg1=           0
         NFxFlg=           0 DoJE=T BraDBF=F KetDBF=T FulRan=T
         wScrn=  0.000000 ICntrl=     500 IOpCl=  0 I1Cent=   200000004 NGrid=           0
         NMat0=    1 NMatS0=      1 NMatT0=    0 NMatD0=    1 NMtDS0=    0 NMtDT0=    0
 Petite list used in FoFCou.
 Keep R1 ints in memory in canonical form, NReq=442237348.
 Requested convergence on RMS density matrix=1.00D-08 within 128 cycles.
 Requested convergence on MAX density matrix=1.00D-06.
 Requested convergence on             energy=1.00D-06.
 No special actions if energy rises.
 SCF Done:  E(RwB97XD) =  -554.109291510     A.U. after    8 cycles
            NFock=  8  Conv=0.94D-08     -V/T= 2.0028
 Calling FoFJK, ICntrl=      2127 FMM=F ISym2X=0 I1Cent= 0 IOpClX= 0 NMat=1 NMatS=1 NMatT=0.
 ***** Axes restored to original set *****
 -------------------------------------------------------------------
 Center     Atomic                   Forces (Hartrees/Bohr)
 Number     Number              X              Y              Z
 -------------------------------------------------------------------
      1        6          -0.000213904    0.000453564   -0.000136688
      2        1           0.000115706    0.000019924   -0.000020202
      3        1           0.000039852    0.000030535    0.000128833
      4        6           0.000317293    0.000804423    0.000163655
      5        1          -0.000092955   -0.000042789   -0.000158995
      6        1          -0.000200571   -0.000047292    0.000003497
      7        6           0.000147778   -0.000514824   -0.000026778
      8        6          -0.000182915   -0.000257788   -0.000003701
      9        9           0.000391096   -0.000113686   -0.000495095
     10        9          -0.000244661   -0.000123977    0.000656436
     11        9           0.000234971   -0.000108999   -0.000551616
     12        9          -0.000311690   -0.000099092    0.000440655
 -------------------------------------------------------------------
 Cartesian Forces:  Max     0.000804423 RMS     0.000295025

 GradGradGradGradGradGradGradGradGradGradGradGradGradGradGradGradGradGrad
 Berny optimization.
 Using GEDIIS/GDIIS optimizer.
 FormGI is forming the generalized inverse of G from B-inverse, IUseBI=4.
 Internal  Forces:  Max     0.000638816 RMS     0.000175133
 Search for a local minimum.
 Step number   4 out of a maximum of   86
 All quantities printed in internal units (Hartrees-Bohrs-Radians)
 Mixed Optimization -- En-DIIS/RFO-DIIS
 Swapping is turned off.
 Update second derivatives using D2CorX and points    1    2    3    4
 DE= -8.62D-05 DEPred=-5.29D-05 R= 1.63D+00
 TightC=F SS=  1.41D+00  RLast= 1.02D-01 DXNew= 8.4853D-01 3.0628D-01
 Trust test= 1.63D+00 RLast= 1.02D-01 DXMaxT set to 5.05D-01
 ITU=  1  1  1  0
     Eigenvalues ---    0.00147   0.00772   0.02846   0.02978   0.04012
     Eigenvalues ---    0.04915   0.05209   0.05890   0.06621   0.06686
     Eigenvalues ---    0.08353   0.08426   0.08726   0.10164   0.12147
     Eigenvalues ---    0.12553   0.14707   0.15729   0.19384   0.19474
     Eigenvalues ---    0.34646   0.35884   0.37230   0.37280   0.52382
     Eigenvalues ---    0.55001   0.55006   0.55021   0.55708   0.72788
 En-DIIS/RFO-DIIS IScMMF=        0 using points:     4    3
 RFO step:  Lambda=-1.35237787D-05.
 DidBck=F Rises=F RFO-DIIS coefs:    2.75488   -1.75488
 Iteration  1 RMS(Cart)=  0.03876705 RMS(Int)=  0.00176210
 Iteration  2 RMS(Cart)=  0.00260244 RMS(Int)=  0.00004797
 Iteration  3 RMS(Cart)=  0.00000282 RMS(Int)=  0.00004792
 Iteration  4 RMS(Cart)=  0.00000000 RMS(Int)=  0.00004792
 Variable       Old X    -DE/DX   Delta X   Delta X   Delta X     New X
                                 (Linear)    (Quad)   (Total)
    R1        2.05088  -0.00001   0.00092   0.00036   0.00128   2.05216
    R2        2.05092  -0.00002   0.00084   0.00031   0.00116   2.05207
    R3        2.50666  -0.00001  -0.00499   0.00000  -0.00502   2.50164
    R4        7.45341  -0.00055  -0.09168  -0.12553  -0.21718   7.23623
    R5        2.05088   0.00002   0.00052   0.00036   0.00083   2.05172
    R6        2.05090   0.00002   0.00045   0.00032   0.00071   2.05161
    R7        7.73925  -0.00024  -0.08218  -0.10676  -0.18894   7.55031
    R8        7.47625  -0.00028  -0.07797  -0.10595  -0.18394   7.29231
    R9        7.70090  -0.00009  -0.06929  -0.09513  -0.16441   7.53649
   R10        7.70175  -0.00008  -0.06929  -0.09486  -0.16412   7.53762
   R11        2.49113   0.00032  -0.00725   0.00319  -0.00406   2.48707
   R12        2.48030   0.00057   0.00215   0.00027   0.00242   2.48272
   R13        2.48007   0.00064   0.00268   0.00056   0.00324   2.48331
   R14        2.48083   0.00054   0.00257   0.00015   0.00272   2.48355
   R15        2.48103   0.00048   0.00207  -0.00011   0.00196   2.48299
    A1        2.04063  -0.00009  -0.01318  -0.00367  -0.01686   2.02377
    A2        2.12143   0.00004   0.00571   0.00158   0.00729   2.12872
    A3        1.59995  -0.00005  -0.00006  -0.00147  -0.00153   1.59842
    A4        2.12112   0.00004   0.00747   0.00208   0.00955   2.13067
    A5        1.59920  -0.00006  -0.00030  -0.00171  -0.00204   1.59716
    A6        2.12100   0.00007   0.00592   0.00196   0.00793   2.12892
    A7        2.12068   0.00009   0.00765   0.00253   0.01023   2.13091
    A8        1.62050  -0.00007  -0.00290  -0.00474  -0.00754   1.61296
    A9        2.04151  -0.00016  -0.01357  -0.00450  -0.01817   2.02333
   A10        1.71513   0.00014   0.00591   0.00660   0.01262   1.72775
   A11        1.71417   0.00014   0.00606   0.00666   0.01284   1.72701
   A12        1.63225  -0.00002   0.00309   0.00278   0.00597   1.63823
   A13        1.53449  -0.00002  -0.00218  -0.00233  -0.00457   1.52992
   A14        1.53387  -0.00003  -0.00234  -0.00253  -0.00493   1.52894
   A15        1.71418  -0.00004  -0.00015   0.00021   0.00012   1.71430
   A16        1.71493  -0.00005  -0.00023   0.00015  -0.00001   1.71492
   A17        2.15447  -0.00009   0.00201   0.00009   0.00211   2.15658
   A18        2.15478  -0.00011   0.00106  -0.00030   0.00077   2.15555
   A19        1.97392   0.00020  -0.00308   0.00020  -0.00290   1.97102
   A20        1.60194  -0.00004  -0.00030  -0.00010  -0.00035   1.60159
   A21        1.60235  -0.00003  -0.00011   0.00003  -0.00003   1.60233
   A22        0.45804  -0.00001   0.00236   0.00519   0.00767   0.46571
   A23        1.65321   0.00000   0.00025  -0.00056  -0.00029   1.65292
   A24        1.71355  -0.00002  -0.00052   0.00063   0.00014   1.71369
   A25        1.33301  -0.00004  -0.00274  -0.00347  -0.00628   1.32673
   A26        1.65208   0.00000   0.00036  -0.00063  -0.00025   1.65183
   A27        1.33267  -0.00005  -0.00294  -0.00358  -0.00660   1.32607
[...]
 ! R11   R(7,8)                  1.3183         -DE/DX =   -0.0002              !
 ! R12   R(7,9)                  1.3125         -DE/DX =   -0.0013              !
 ! R13   R(7,10)                 1.3125         -DE/DX =   -0.0019              !
 ! R14   R(8,11)                 1.3143         -DE/DX =    0.0                 !
 ! R15   R(8,12)                 1.3141         -DE/DX =   -0.0017              !
 ! A1    A(2,1,3)              116.9184         -DE/DX =   -0.0001              !
 ! A2    A(2,1,4)              121.4915         -DE/DX =    0.0004              !
 ! A3    A(2,1,7)              104.522          -DE/DX =    0.0002              !
 ! A4    A(3,1,4)              121.5899         -DE/DX =   -0.0004              !
 ! A5    A(3,1,7)               91.93           -DE/DX =   -0.0004              !
 ! A6    A(1,4,5)              121.5655         -DE/DX =   -0.0002              !
 ! A7    A(1,4,6)              121.5906         -DE/DX =    0.0001              !
 ! A8    A(1,4,8)              105.5226         -DE/DX =   -0.0002              !
 ! A9    A(5,4,6)              116.8432         -DE/DX =    0.0002              !
 ! A10   A(5,4,7)               99.8713         -DE/DX =   -0.0001              !
 ! A11   A(6,4,7)               87.01           -DE/DX =   -0.0001              !
 ! A12   A(1,7,8)              108.4198         -DE/DX =    0.0002              !
 ! A13   A(1,7,9)               75.3513         -DE/DX =   -0.0001              !
 ! A14   A(1,7,10)              84.4855         -DE/DX =   -0.0001              !
 ! A15   A(4,7,9)               86.745          -DE/DX =   -0.0001              !
 ! A16   A(4,7,10)              97.3325         -DE/DX =    0.0001              !
 ! A17   A(8,7,9)              123.3338         -DE/DX =    0.0003              !
 ! A18   A(8,7,10)             123.3473         -DE/DX =    0.0                 !
 ! A19   A(9,7,10)             113.3189         -DE/DX =   -0.0002              !
 ! A20   A(4,8,11)              94.0645         -DE/DX =   -0.0001              !
 ! A21   A(4,8,12)             105.0934         -DE/DX =   -0.0001              !
 ! A22   A(5,8,6)               29.9641         -DE/DX =    0.0001              !
 ! A23   A(5,8,7)               82.0416         -DE/DX =    0.0001              !
 ! A24   A(5,8,11)             100.3349         -DE/DX =    0.0001              !
 ! A25   A(5,8,12)              87.8904         -DE/DX =   -0.0001              !
 ! A26   A(6,8,7)               80.8267         -DE/DX =    0.0                 !
 ! A27   A(6,8,11)              76.3534         -DE/DX =   -0.0001              !
 ! A28   A(6,8,12)             113.7168         -DE/DX =   -0.0001              !
 ! A29   A(7,8,11)             123.3778         -DE/DX =   -0.0005              !
 ! A30   A(7,8,12)             123.3981         -DE/DX =    0.0005              !
 ! A31   A(11,8,12)            113.221          -DE/DX =    0.0                 !
 ! D1    D(2,1,4,5)             -0.2158         -DE/DX =    0.0003              !
 ! D2    D(2,1,4,6)           -179.9075         -DE/DX =   -0.0002              !
 ! D3    D(2,1,4,8)             96.8765         -DE/DX =   -0.0001              !
 ! D4    D(3,1,4,5)            179.9805         -DE/DX =    0.0006              !
 ! D5    D(3,1,4,6)              0.2888         -DE/DX =    0.0001              !
 ! D6    D(3,1,4,8)            -82.9273         -DE/DX =    0.0002              !
 ! D7    D(2,1,7,8)           -117.3871         -DE/DX =    0.0                 !
 ! D8    D(2,1,7,9)            121.8428         -DE/DX =   -0.0003              !
 ! D9    D(2,1,7,10)             5.9756         -DE/DX =    0.0                 !
 ! D10   D(3,1,7,8)            124.1457         -DE/DX =    0.0001              !
 ! D11   D(3,1,7,9)              3.3756         -DE/DX =   -0.0001              !
 ! D12   D(3,1,7,10)          -112.4916         -DE/DX =    0.0001              !
 ! D13   D(5,4,7,9)            178.9713         -DE/DX =   -0.0002              !
 ! D14   D(5,4,7,10)            65.865          -DE/DX =    0.0001              !
 ! D15   D(6,4,7,9)            -64.2932         -DE/DX =    0.0                 !
 ! D16   D(6,4,7,10)          -177.3996         -DE/DX =    0.0002              !
 ! D17   D(1,4,8,11)           125.5802         -DE/DX =   -0.0001              !
 ! D18   D(1,4,8,12)          -119.0436         -DE/DX =   -0.0001              !
 ! D19   D(1,7,8,5)             13.6935         -DE/DX =   -0.0001              !
 ! D20   D(1,7,8,6)            -16.5923         -DE/DX =   -0.0002              !
 ! D21   D(1,7,8,11)           -83.4769         -DE/DX =   -0.0003              !
 ! D22   D(1,7,8,12)            95.8368         -DE/DX =   -0.0004              !
 ! D23   D(9,7,8,5)             97.955          -DE/DX =   -0.0001              !
 ! D24   D(9,7,8,6)             67.6692         -DE/DX =   -0.0002              !
 ! D25   D(9,7,8,11)             0.7846         -DE/DX =   -0.0003              !
 ! D26   D(9,7,8,12)          -179.9017         -DE/DX =   -0.0003              !
 ! D27   D(10,7,8,5)           -81.9252         -DE/DX =   -0.0002              !
 ! D28   D(10,7,8,6)          -112.211          -DE/DX =   -0.0003              !
 ! D29   D(10,7,8,11)         -179.0956         -DE/DX =   -0.0003              !
 ! D30   D(10,7,8,12)            0.2181         -DE/DX =   -0.0004              !
 --------------------------------------------------------------------------------
 GradGradGradGradGradGradGradGradGradGradGradGradGradGradGradGradGradGrad

                          Input orientation:                          
 ---------------------------------------------------------------------
 Center     Atomic      Atomic             Coordinates (Angstroms)
 Number     Number       Type             X           Y           Z
 ---------------------------------------------------------------------
      1          6           0        0.076834    0.147717    0.045651
      2          1           0        0.070831   -0.059065    1.111034
      3          1           0        1.043143    0.157862   -0.447085
      4          6           0       -1.048269    0.370329   -0.618101
      5          1           0       -2.014957    0.340267   -0.125945
      6          1           0       -1.050981    0.573866   -1.683893
      7          6           0       -0.309132    3.624573   -0.182954
      8          6           0       -1.432794    3.857683   -0.831806
      9          9           0        0.837897    3.406778   -0.785451
     10          9           0       -0.225866    3.579263    1.127285
     11          9           0       -1.527144    3.874986   -2.141859
     12          9           0       -2.579385    4.089615   -0.228514
 ---------------------------------------------------------------------
                    Distance matrix (angstroms):
                    1          2          3          4          5
     1  C    0.000000
     2  H    1.085281   0.000000
     3  H    1.084732   1.849373   0.000000
     4  C    1.325134   2.103965   2.109121   0.000000
     5  H    2.107632   2.457660   3.080321   1.085176   0.000000
     6  H    2.108291   3.077446   2.467410   1.085056   1.846894
     7  C    3.505675   3.922750   3.730482   3.365379   3.701318
     8  C    4.100336   4.623465   4.468439   3.514991   3.634469
     9  F    3.448395   4.024564   3.272930   3.578498   4.239955
    10  F    3.610687   3.650442   3.974293   3.744325   3.906728
    11  F    4.609824   5.348981   4.826557   3.851464   4.098306
    12  F    4.761221   5.101919   5.350623   4.040938   3.792982
                    6          7          8          9         10
     6  H    0.000000
     7  C    3.479938   0.000000
     8  C    3.413983   1.318319   0.000000
     9  F    3.521427   1.313817   2.315492   0.000000
    10  F    4.197135   1.313663   2.317807   2.195427   0.000000
    11  F    3.366579   2.320252   1.313561   2.766312   3.531017
    12  F    4.100565   2.317841   1.316216   3.529060   2.763639
                   11         12
    11  F    0.000000
    12  F    2.194121   0.000000
 Stoichiometry    C4H4F4
 Framework group  C1[X(C4H4F4)]
 Deg. of freedom    30
 Full point group                 C1      NOp   1
 Largest Abelian subgroup         C1      NOp   1
 Largest concise Abelian subgroup C1      NOp   1
                         Standard orientation:                         
 ---------------------------------------------------------------------
 Center     Atomic      Atomic             Coordinates (Angstroms)
 Number     Number       Type             X           Y           Z
 ---------------------------------------------------------------------
      1          6           0       -2.888670   -0.156268   -0.090155
      2          1           0       -3.262867    0.320467   -0.990453
      3          1           0       -3.134692    0.316807    0.854470
      4          6           0       -2.170408   -1.268330   -0.148472
      5          1           0       -1.942455   -1.749775   -1.093911
      6          1           0       -1.796042   -1.753124    0.747168
      7          6           0        0.482872    0.789707    0.075951
      8          6           0        1.207666   -0.309308    0.006616
      9          9           0       -0.017298    1.252213    1.199353
     10          9           0        0.182701    1.526018   -0.969733
     11          9           0        1.485984   -1.064820    1.044489
     12          9           0        1.720535   -0.765542   -1.116433
 ---------------------------------------------------------------------
 Rotational constants (GHZ):      2.1563588      1.2764497      1.1399944

 **********************************************************************

            Population analysis using the SCF density.

 **********************************************************************

 Orbital symmetries:
       Occupied  (A) (A) (A) (A) (A) (A) (A) (A) (A) (A) (A) (A)
                 (A) (A) (A) (A) (A) (A) (A) (A) (A) (A) (A) (A)
                 (A) (A) (A) (A) (A) (A) (A) (A)
       Virtual   (A) (A) (A) (A) (A) (A) (A) (A) (A) (A) (A) (A)
                 (A) (A) (A) (A) (A) (A) (A) (A) (A) (A) (A) (A)
                 (A) (A) (A) (A) (A) (A) (A) (A) (A) (A) (A) (A)
                 (A) (A) (A) (A) (A) (A) (A) (A) (A) (A) (A) (A)
                 (A) (A) (A) (A) (A) (A) (A) (A) (A) (A) (A) (A)
                 (A) (A) (A) (A) (A) (A) (A) (A) (A) (A) (A) (A)
                 (A) (A) (A) (A) (A) (A) (A) (A) (A) (A) (A) (A)
                 (A) (A) (A) (A) (A) (A) (A) (A) (A) (A) (A) (A)
                 (A) (A) (A) (A) (A) (A) (A) (A) (A) (A) (A) (A)
                 (A) (A) (A) (A) (A) (A) (A) (A) (A) (A) (A) (A)
                 (A) (A) (A) (A) (A) (A) (A) (A) (A) (A) (A) (A)
                 (A) (A) (A) (A) (A) (A) (A) (A) (A) (A) (A) (A)
                 (A) (A) (A) (A) (A) (A) (A) (A) (A) (A) (A) (A)
                 (A) (A) (A) (A) (A) (A) (A) (A) (A) (A) (A) (A)
                 (A) (A) (A) (A)
 The electronic state is 1-A.
 Alpha  occ. eigenvalues --  -24.87460 -24.87313 -24.87310 -24.87304 -10.48049
 Alpha  occ. eigenvalues --  -10.47895 -10.29009 -10.28909  -1.43249  -1.41791
 Alpha  occ. eigenvalues --   -1.37338  -1.36216  -0.92130  -0.87111  -0.77411
 Alpha  occ. eigenvalues --   -0.72979  -0.72108  -0.68072  -0.67401  -0.66606
 Alpha  occ. eigenvalues --   -0.62126  -0.59461  -0.57193  -0.56604  -0.56251
 Alpha  occ. eigenvalues --   -0.55870  -0.55276  -0.53913  -0.51497  -0.44457
 Alpha  occ. eigenvalues --   -0.37069  -0.34760
 Alpha virt. eigenvalues --    0.05008   0.05750   0.06254   0.06564   0.07774
 Alpha virt. eigenvalues --    0.08606   0.09397   0.10290   0.10486   0.12830
 Alpha virt. eigenvalues --    0.13651   0.15126   0.15578   0.16063   0.16409
 Alpha virt. eigenvalues --    0.16820   0.17968   0.18430   0.19474   0.19790
 Alpha virt. eigenvalues --    0.20973   0.21738   0.22448   0.23401   0.26504
 Alpha virt. eigenvalues --    0.28023   0.29141   0.30243   0.32161   0.33469
 Alpha virt. eigenvalues --    0.34166   0.34614   0.38407   0.39563   0.40156
 Alpha virt. eigenvalues --    0.40595   0.41733   0.42483   0.43578   0.44148
 Alpha virt. eigenvalues --    0.44484   0.45373   0.47034   0.47754   0.49458
 Alpha virt. eigenvalues --    0.51535   0.53906   0.54257   0.54710   0.57601
 Alpha virt. eigenvalues --    0.58486   0.62863   0.65885   0.66161   0.68732
 Alpha virt. eigenvalues --    0.72937   0.77464   0.79253   0.80216   0.83514
 Alpha virt. eigenvalues --    0.84210   0.85773   0.86912   0.87703   0.89657
 Alpha virt. eigenvalues --    0.97336   0.99030   1.00522   1.09733   1.17640
 Alpha virt. eigenvalues --    1.19003   1.19669   1.20665   1.32962   1.34964
 Alpha virt. eigenvalues --    1.41764   1.43615   1.45379   1.47169   1.47815
 Alpha virt. eigenvalues --    1.48217   1.49672   1.50642   1.51887   1.52647
 Alpha virt. eigenvalues --    1.53822   1.54541   1.54679   1.60705   1.63586
 Alpha virt. eigenvalues --    1.69275   1.69463   1.69947   1.70558   1.76098
 Alpha virt. eigenvalues --    1.77557   1.87420   1.87870   1.93337   1.93861
 Alpha virt. eigenvalues --    1.94731   2.06366   2.07158   2.09770   2.12428
 Alpha virt. eigenvalues --    2.18462   2.19225   2.22698   2.24796   2.26186
 Alpha virt. eigenvalues --    2.35649   2.40616   2.50410   2.54198   2.66841
 Alpha virt. eigenvalues --    2.67301   2.69038   2.81470   2.83144   2.88471
 Alpha virt. eigenvalues --    2.93332   2.98980   3.05007   3.11242   3.15031
 Alpha virt. eigenvalues --    3.25300   3.26249   3.52427   3.58301   3.75210
 Alpha virt. eigenvalues --    3.80566   3.80933   3.81650   3.81995   3.84639
 Alpha virt. eigenvalues --    3.84722   3.85387   3.86145   3.90978   3.92738
 Alpha virt. eigenvalues --    4.00525   4.06101   4.07803   4.12846   4.20209
 Alpha virt. eigenvalues --    4.21739   4.24293   4.37183   4.56814   4.91493
 Alpha virt. eigenvalues --    4.93993   5.06699   6.34593   6.36102   6.39383
 Alpha virt. eigenvalues --    6.42407   6.43691   6.44079   6.45057   6.45650
 Alpha virt. eigenvalues --    6.49479   6.85137   6.91769   7.04568  23.54467
 Alpha virt. eigenvalues --   23.87784  24.24859  24.41938  66.84772  66.86824
 Alpha virt. eigenvalues --   66.88393  66.92701
          Condensed to atoms (all electrons):
               1          2          3          4          5          6
     1  C    5.192733   0.404993   0.407015   0.337111  -0.048695  -0.040933
     2  H    0.404993   0.508153  -0.025059  -0.028895  -0.004419   0.002165
     3  H    0.407015  -0.025059   0.505984  -0.032152   0.002619  -0.003996
     4  C    0.337111  -0.028895  -0.032152   5.281456   0.422755   0.418291
     5  H   -0.048695  -0.004419   0.002619   0.422755   0.504518  -0.030520
     6  H   -0.040933   0.002165  -0.003996   0.418291  -0.030520   0.505422
     7  C   -0.022159  -0.004529   0.001763   0.061487  -0.005217  -0.017698
     8  C   -0.010785   0.002238  -0.002564  -0.067351   0.006266   0.011289
     9  F    0.024781  -0.000236  -0.000560  -0.031903   0.000640   0.000034
    10  F    0.018612  -0.001129  -0.001278  -0.020012  -0.000999   0.000077
    11  F    0.006380  -0.000235   0.000453  -0.013701   0.000023   0.001680
    12  F    0.000513   0.000475  -0.000211  -0.003612  -0.001014   0.000051
               7          8          9         10         11         12
     1  C   -0.022159  -0.010785   0.024781   0.018612   0.006380   0.000513
     2  H   -0.004529   0.002238  -0.000236  -0.001129  -0.000235   0.000475
     3  H    0.001763  -0.002564  -0.000560  -0.001278   0.000453  -0.000211
     4  C    0.061487  -0.067351  -0.031903  -0.020012  -0.013701  -0.003612
     5  H   -0.005217   0.006266   0.000640  -0.000999   0.000023  -0.001014
     6  H   -0.017698   0.011289   0.000034   0.000077   0.001680   0.000051
     7  C    6.184992  -0.634870   0.350454   0.357435  -0.167636  -0.162332
     8  C   -0.634870   6.259562  -0.198521  -0.200065   0.315688   0.308210
     9  F    0.350454  -0.198521   8.981698  -0.074910   0.005217   0.008872
    10  F    0.357435  -0.200065  -0.074910   8.969946   0.008836   0.005265
    11  F   -0.167636   0.315688   0.005217   0.008836   8.994053  -0.073522
    12  F   -0.162332   0.308210   0.008872   0.005265  -0.073522   8.991555
 Mulliken charges:
               1
     1  C   -0.269564
     2  H    0.146477
     3  H    0.147988
     4  C   -0.323473
     5  H    0.154045
     6  H    0.154140
     7  C    0.058312
     8  C    0.210903
     9  F   -0.065566
    10  F   -0.061778
    11  F   -0.077234
    12  F   -0.074249
 Sum of Mulliken charges =   0.00000
 Mulliken charges with hydrogens summed into heavy atoms:
               1
     1  C    0.024901
     4  C   -0.015288
     7  C    0.058312
     8  C    0.210903
     9  F   -0.065566
    10  F   -0.061778
    11  F   -0.077234
    12  F   -0.074249
 Electronic spatial extent (au):  <R**2>=           1099.7701
 Charge=              0.0000 electrons
 Dipole moment (field-independent basis, Debye):
    X=             -0.1935    Y=              0.0368    Z=              0.0081  Tot=              0.1971
 Quadrupole moment (field-independent basis, Debye-Ang):
   XX=            -44.8171   YY=            -44.9393   ZZ=            -45.0517
   XY=             -0.1139   XZ=              0.6157   YZ=              0.3984
 Traceless Quadrupole moment (field-independent basis, Debye-Ang):
   XX=              0.1190   YY=             -0.0033   ZZ=             -0.1157
   XY=             -0.1139   XZ=              0.6157   YZ=              0.3984
 Octapole moment (field-independent basis, Debye-Ang**2):
  XXX=             32.1752  YYY=              5.5402  ZZZ=              0.4536  XYY=              9.3091
  XXY=             13.6475  XXZ=              0.4741  XZZ=              3.0850  YZZ=              0.9445
  YYZ=              0.1890  XYZ=              0.0831
 Hexadecapole moment (field-independent basis, Debye-Ang**3):
 XXXX=           -821.7124 YYYY=           -306.6512 ZZZZ=           -189.1943 XXXY=            -56.9419
 XXXZ=             -0.4773 YYYX=            -23.2502 YYYZ=             -0.2004 ZZZX=             -3.0264
 ZZZY=             -1.7833 XXYY=           -191.8894 XXZZ=           -155.9649 YYZZ=            -83.0656
 XXYZ=             -0.4157 YYXZ=             -0.9895 ZZXY=             -5.2981
 N-N= 3.834972474021D+02 E-N=-2.078894921923D+03  KE= 5.525815586513D+02
 B after Tr=     0.178083    0.258628    0.015536
         Rot=    0.999935   -0.004925    0.005321   -0.008773 Ang=  -1.30 deg.
 Final structure in terms of initial Z-matrix:
 C
 H,1,B1
 H,1,B2,2,A1
 C,1,B3,3,A2,2,D1,0
 H,4,B4,1,A3,3,D2,0
 H,4,B5,1,A4,3,D3,0
 C,1,B6,4,A5,6,D4,0
 C,7,B7,1,A6,4,D5,0
 F,7,B8,1,A7,4,D6,0
 F,7,B9,1,A8,4,D7,0
 F,8,B10,7,A9,1,D8,0
 F,8,B11,7,A10,1,D9,0
      Variables:
 B1=1.08528102
 B2=1.08473238
 B3=1.32513421
 B4=1.085176
 B5=1.08505572
 B6=3.50567476
 B7=1.31831946
 B8=1.31381659
 B9=1.31366323
 B10=1.31356053
 B11=1.31621589
 A1=116.91241939
 A2=121.82014771
 A3=121.63593609
 A4=121.71108598
 A5=72.97717678
 A6=107.53605561
 A7=76.66604692
 A8=83.90217486
 A9=123.67065436
 A10=123.23439553
 D1=-179.68271524
 D2=178.78198944
 D3=-0.08508984
 D4=83.18783366
 D5=0.5517016
 D6=-120.4765949
 D7=123.74111513
 D8=-84.13856404
 D9=95.44259034


 READER, WHETHER YOU BE DILETTANTE OR PROFESSOR ... SHOW YOURSELF TO BE
 MORE HUMAN THAN CRITICAL, AND THEN YOUR PLEASURE WILL INCREASE.
                                           -- DOMENICO SCARLATTI (1738)
 Error termination request processed by link 9999.
 Error termination via Lnk1e in /cluster/software/gaussian/gaussian-09-D.01/g09/l9999.exe at Wed Nov 16 17:16:06 2016.
 Job cpu time:       0 days  2 hours 48 minutes 44.8 seconds.
 File lengths (MBytes):  RWF=     21 Int=      0 D2E=      0 Chk=      5 Scr=      1
