 Entering Gaussian System, Link 0=g09
 Initial command:
 /cluster/software/gaussian/gaussian-09-D.01/g09/l1.exe "/local/scratch/maxb2/Gau-12467.inp" -scrdir="/local/scratch/maxb2/"
 Entering Link 1 = /cluster/software/gaussian/gaussian-09-D.01/g09/l1.exe PID=     12468.
  
 Copyright (c) 1988,1990,1992,1993,1995,1998,2003,2009,2013,
            Gaussian, Inc.  All Rights Reserved.
  
 This is part of the Gaussian(R) 09 program.  It is based on
 the Gaussian(R) 03 system (copyright 2003, Gaussian, Inc.),
 the Gaussian(R) 98 system (copyright 1998, Gaussian, Inc.),
 the Gaussian(R) 94 system (copyright 1995, Gaussian, Inc.),
 the Gaussian 92(TM) system (copyright 1992, Gaussian, Inc.),
 the Gaussian 90(TM) system (copyright 1990, Gaussian, Inc.),
 the Gaussian 88(TM) system (copyright 1988, Gaussian, Inc.),
 the Gaussian 86(TM) system (copyright 1986, Carnegie Mellon
 University), and the Gaussian 82(TM) system (copyright 1983,
 Carnegie Mellon University). Gaussian is a federally registered
 trademark of Gaussian, Inc.
  
 This software contains proprietary and confidential information,
 including trade secrets, belonging to Gaussian, Inc.
  
 This software is provided under written license and may be
 used, copied, transmitted, or stored only in accord with that
 written license.
  
 The following legend is applicable only to US Government
 contracts under FAR:
  
                    RESTRICTED RIGHTS LEGEND
  
 Use, reproduction and disclosure by the US Government is
 subject to restrictions as set forth in subparagraphs (a)
 and (c) of the Commercial Computer Software - Restricted
 Rights clause in FAR 52.227-19.
  
 Gaussian, Inc.
 340 Quinnipiac St., Bldg. 40, Wallingford CT 06492
  
  
 ---------------------------------------------------------------
 Warning -- This program may not be used in any manner that
 competes with the business of Gaussian, Inc. or will provide
 assistance to any competitor of Gaussian, Inc.  The licensee
 of this program is prohibited from giving any competitor of
 Gaussian, Inc. access to this program.  By using this program,
 the user acknowledges that Gaussian, Inc. is engaged in the
 business of creating and licensing software in the field of
 computational chemistry and represents and warrants to the
 licensee that it is not a competitor of Gaussian, Inc. and that
 it will not use this program in any manner prohibited above.
 ---------------------------------------------------------------
  

 Cite this work as:
 Gaussian 09, Revision D.01,
 M. J. Frisch, G. W. Trucks, H. B. Schlegel, G. E. Scuseria, 
 M. A. Robb, J. R. Cheeseman, G. Scalmani, V. Barone, B. Mennucci, 
 G. A. Petersson, H. Nakatsuji, M. Caricato, X. Li, H. P. Hratchian, 
 A. F. Izmaylov, J. Bloino, G. Zheng, J. L. Sonnenberg, M. Hada, 
 M. Ehara, K. Toyota, R. Fukuda, J. Hasegawa, M. Ishida, T. Nakajima, 
 Y. Honda, O. Kitao, H. Nakai, T. Vreven, J. A. Montgomery, Jr., 
 J. E. Peralta, F. Ogliaro, M. Bearpark, J. J. Heyd, E. Brothers, 
 K. N. Kudin, V. N. Staroverov, T. Keith, R. Kobayashi, J. Normand, 
 K. Raghavachari, A. Rendell, J. C. Burant, S. S. Iyengar, J. Tomasi, 
 M. Cossi, N. Rega, J. M. Millam, M. Klene, J. E. Knox, J. B. Cross, 
 V. Bakken, C. Adamo, J. Jaramillo, R. Gomperts, R. E. Stratmann, 
 O. Yazyev, A. J. Austin, R. Cammi, C. Pomelli, J. W. Ochterski, 
 R. L. Martin, K. Morokuma, V. G. Zakrzewski, G. A. Voth, 
 P. Salvador, J. J. Dannenberg, S. Dapprich, A. D. Daniels, 
 O. Farkas, J. B. Foresman, J. V. Ortiz, J. Cioslowski, 
 and D. J. Fox, Gaussian, Inc., Wallingford CT, 2013.
 
 ******************************************
 Gaussian 09:  ES64L-G09RevD.01 24-Apr-2013
                10-Nov-2016 
 ******************************************
 %nprocshared=8
 Will use up to    8 processors via shared memory.
 %mem=6GB
 %chk=c2h4-c2f4-diffg
 --------------------------------------------------
 # opt freq=raman b97d/6-311++g** geom=connectivity
 --------------------------------------------------
 1/14=-1,18=20,19=15,26=3,38=1,57=2/1,3;
 2/9=110,12=2,17=6,18=5,40=1/2;
 3/5=4,6=6,7=1111,11=2,16=1,25=1,30=1,71=1,74=-42/1,2,3;
 4//1;
 5/5=2,38=5/2;
 6/7=2,8=2,9=2,10=2,28=1/1;
 7//1,2,3,16;
 1/14=-1,18=20,19=15,26=3/3(2);
 2/9=110/2;
 99//99;
 2/9=110/2;
 3/5=4,6=6,7=1111,11=2,16=1,25=1,30=1,71=1,74=-42/1,2,3;
 4/5=5,16=3,69=1/1;
 5/5=2,38=5/2;
 7//1,2,3,16;
 1/14=-1,18=20,19=15,26=3/3(-5);
 2/9=110/2;
 6/7=2,8=2,9=2,10=2,19=2,28=1/1;
 99/9=1/99;
 -----
 Title
 -----
 Symbolic Z-matrix:
 Charge =  0 Multiplicity = 1
 C
 H                    1    B1
 H                    1    B2       2    A1
 C                    1    B3       3    A2       2    D1       0
 H                    4    B4       1    A3       3    D2       0
 H                    4    B5       1    A4       3    D3       0
 C                    1    B6       4    A5       6    D4       0
 C                    7    B7       1    A6       4    D5       0
 F                    7    B8       1    A7       4    D6       0
 F                    7    B9       1    A8       4    D7       0
 F                    8    B10      7    A9       1    D8       0
 F                    8    B11      7    A10      1    D9       0
       Variables:
  B1                    1.07                     
  B2                    1.07                     
  B3                    1.3552                   
  B4                    1.07                     
  B5                    1.07                     
  B6                    4.                       
  B7                    1.3552                   
  B8                    1.35                     
  B9                    1.35                     
  B10                   1.35                     
  B11                   1.35                     
  A1                  119.88653                  
  A2                  119.88653                  
  A3                  120.22695                  
  A4                  119.88653                  
  A5                   86.85591                  
  A6                   93.14409                  
  A7                   88.43394                  
  A8                   88.41777                  
  A9                  120.22695                  
  A10                 119.88653                  
  D1                 -180.                       
  D2                  180.                       
  D3                    0.                       
  D4                   90.                       
  D5                    0.                       
  D6                 -119.84925                  
  D7                  120.18942                  
  D8                  -90.                       
  D9                   90.                       
 
 Add virtual bond connecting atoms C7         and C1         Dist= 7.56D+00.
 Add virtual bond connecting atoms C7         and C4         Dist= 7.85D+00.
 Add virtual bond connecting atoms C8         and C4         Dist= 7.56D+00.
 Add virtual bond connecting atoms C8         and H5         Dist= 7.77D+00.
 Add virtual bond connecting atoms C8         and H6         Dist= 7.77D+00.

 GradGradGradGradGradGradGradGradGradGradGradGradGradGradGradGradGradGrad
 Berny optimization.
 Initialization pass.
                           ----------------------------
                           !    Initial Parameters    !
                           ! (Angstroms and Degrees)  !
 --------------------------                            --------------------------
 ! Name  Definition              Value          Derivative Info.                !
 --------------------------------------------------------------------------------
 ! R1    R(1,2)                  1.07           estimate D2E/DX2                !
 ! R2    R(1,3)                  1.07           estimate D2E/DX2                !
 ! R3    R(1,4)                  1.3552         estimate D2E/DX2                !
 ! R4    R(1,7)                  4.0            estimate D2E/DX2                !
 ! R5    R(4,5)                  1.07           estimate D2E/DX2                !
 ! R6    R(4,6)                  1.07           estimate D2E/DX2                !
 ! R7    R(4,7)                  4.1523         estimate D2E/DX2                !
 ! R8    R(4,8)                  4.0            estimate D2E/DX2                !
 ! R9    R(5,8)                  4.112          estimate D2E/DX2                !
 ! R10   R(6,8)                  4.1123         estimate D2E/DX2                !
 ! R11   R(7,8)                  1.3552         estimate D2E/DX2                !
 ! R12   R(7,9)                  1.35           estimate D2E/DX2                !
 ! R13   R(7,10)                 1.35           estimate D2E/DX2                !
 ! R14   R(8,11)                 1.35           estimate D2E/DX2                !
 ! R15   R(8,12)                 1.35           estimate D2E/DX2                !
 ! A1    A(2,1,3)              119.8865         estimate D2E/DX2                !
 ! A2    A(2,1,4)              120.2269         estimate D2E/DX2                !
 ! A3    A(2,1,7)               91.5822         estimate D2E/DX2                !
 ! A4    A(3,1,4)              119.8865         estimate D2E/DX2                !
 ! A5    A(3,1,7)               91.5661         estimate D2E/DX2                !
 ! A6    A(1,4,5)              120.2269         estimate D2E/DX2                !
 ! A7    A(1,4,6)              119.8865         estimate D2E/DX2                !
 ! A8    A(1,4,8)               93.1441         estimate D2E/DX2                !
 ! A9    A(5,4,6)              119.8865         estimate D2E/DX2                !
 ! A10   A(5,4,7)               97.9151         estimate D2E/DX2                !
 ! A11   A(6,4,7)               97.8337         estimate D2E/DX2                !
 ! A12   A(1,7,8)               93.1441         estimate D2E/DX2                !
 ! A13   A(1,7,9)               88.4339         estimate D2E/DX2                !
 ! A14   A(1,7,10)              88.4178         estimate D2E/DX2                !
 ! A15   A(4,7,9)               97.8337         estimate D2E/DX2                !
 ! A16   A(4,7,10)              97.9151         estimate D2E/DX2                !
 ! A17   A(8,7,9)              119.8865         estimate D2E/DX2                !
 ! A18   A(8,7,10)             120.2269         estimate D2E/DX2                !
 ! A19   A(9,7,10)             119.8865         estimate D2E/DX2                !
 ! A20   A(4,8,11)              91.5822         estimate D2E/DX2                !
 ! A21   A(4,8,12)              91.5661         estimate D2E/DX2                !
 ! A22   A(5,8,6)               26.031          estimate D2E/DX2                !
 ! A23   A(5,8,7)               94.4532         estimate D2E/DX2                !
 ! A24   A(5,8,11)              98.9271         estimate D2E/DX2                !
 ! A25   A(5,8,12)              76.4895         estimate D2E/DX2                !
 ! A26   A(6,8,7)               94.376          estimate D2E/DX2                !
 ! A27   A(6,8,11)              76.5066         estimate D2E/DX2                !
 ! A28   A(6,8,12)              99.066          estimate D2E/DX2                !
 ! A29   A(7,8,11)             120.2269         estimate D2E/DX2                !
 ! A30   A(7,8,12)             119.8865         estimate D2E/DX2                !
 ! A31   A(11,8,12)            119.8865         estimate D2E/DX2                !
 ! D1    D(2,1,4,5)              0.0            estimate D2E/DX2                !
 ! D2    D(2,1,4,6)            180.0            estimate D2E/DX2                !
 ! D3    D(2,1,4,8)             90.0            estimate D2E/DX2                !
 ! D4    D(3,1,4,5)            180.0            estimate D2E/DX2                !
 ! D5    D(3,1,4,6)              0.0            estimate D2E/DX2                !
 ! D6    D(3,1,4,8)            -90.0            estimate D2E/DX2                !
 ! D7    D(2,1,7,8)           -120.1894         estimate D2E/DX2                !
 ! D8    D(2,1,7,9)            119.9613         estimate D2E/DX2                !
 ! D9    D(2,1,7,10)             0.0            estimate D2E/DX2                !
 ! D10   D(3,1,7,8)            119.8493         estimate D2E/DX2                !
 ! D11   D(3,1,7,9)              0.0            estimate D2E/DX2                !
 ! D12   D(3,1,7,10)          -119.9613         estimate D2E/DX2                !
 ! D13   D(5,4,7,9)           -179.6663         estimate D2E/DX2                !
 ! D14   D(5,4,7,10)            58.5345         estimate D2E/DX2                !
 ! D15   D(6,4,7,9)            -57.8671         estimate D2E/DX2                !
 ! D16   D(6,4,7,10)          -179.6663         estimate D2E/DX2                !
 ! D17   D(1,4,8,11)           120.1894         estimate D2E/DX2                !
 ! D18   D(1,4,8,12)          -119.8493         estimate D2E/DX2                !
 ! D19   D(1,7,8,5)             13.0332         estimate D2E/DX2                !
 ! D20   D(1,7,8,6)            -13.0765         estimate D2E/DX2                !
 ! D21   D(1,7,8,11)           -90.0            estimate D2E/DX2                !
 ! D22   D(1,7,8,12)            90.0            estimate D2E/DX2                !
 ! D23   D(9,7,8,5)            103.0332         estimate D2E/DX2                !
 ! D24   D(9,7,8,6)             76.9235         estimate D2E/DX2                !
 ! D25   D(9,7,8,11)             0.0            estimate D2E/DX2                !
 ! D26   D(9,7,8,12)           180.0            estimate D2E/DX2                !
 ! D27   D(10,7,8,5)           -76.9668         estimate D2E/DX2                !
 ! D28   D(10,7,8,6)          -103.0765         estimate D2E/DX2                !
 ! D29   D(10,7,8,11)          180.0            estimate D2E/DX2                !
 ! D30   D(10,7,8,12)            0.0            estimate D2E/DX2                !
 --------------------------------------------------------------------------------
 Trust Radius=3.00D-01 FncErr=1.00D-07 GrdErr=1.00D-06
 Number of steps in this run=     86 maximum allowed number of steps=    100.
 GradGradGradGradGradGradGradGradGradGradGradGradGradGradGradGradGradGrad

                          Input orientation:                          
 ---------------------------------------------------------------------
 Center     Atomic      Atomic             Coordinates (Angstroms)
 Number     Number       Type             X           Y           Z
 ---------------------------------------------------------------------
      1          6           0        0.000000    0.000000    0.000000
      2          1           0        0.000000    0.000000    1.070000
      3          1           0        0.927705    0.000000   -0.533164
      4          6           0       -1.170944    0.000000   -0.682243
      5          1           0       -2.101801    0.000000   -0.154601
      6          1           0       -1.164587    0.000000   -1.752225
      7          6           0       -0.189560    3.993979   -0.110446
      8          6           0       -1.360505    3.993979   -0.792690
      9          9           0        0.980908    3.993979   -0.783129
     10          9           0       -0.189560    3.993979    1.239554
     11          9           0       -1.360505    3.993979   -2.142690
     12          9           0       -2.530974    3.993979   -0.120006
 ---------------------------------------------------------------------
                    Distance matrix (angstroms):
                    1          2          3          4          5
     1  C    0.000000
     2  H    1.070000   0.000000
     3  H    1.070000   1.852234   0.000000
     4  C    1.355200   2.107479   2.103938   0.000000
     5  H    2.107479   2.432532   3.053066   1.070000   0.000000
     6  H    2.103938   3.053066   2.421527   1.070000   1.852234
     7  C    4.000000   4.169083   4.168794   4.152341   4.428372
     8  C    4.293157   4.612207   4.610328   4.000000   4.112000
     9  F    4.186567   4.510891   4.002147   4.537898   5.084291
    10  F    4.186203   4.002068   4.510286   4.539635   4.642435
    11  F    4.732226   5.303227   4.876305   4.256842   4.522597
    12  F    4.729915   4.875840   5.299531   4.256484   4.017120
                    6          7          8          9         10
     6  H    0.000000
     7  C    4.426961   0.000000
     8  C    4.112294   1.355200   0.000000
     9  F    4.636180   1.350000   2.341433   0.000000
    10  F    5.084612   1.350000   2.345448   2.336931   0.000000
    11  F    4.017800   2.345448   1.350000   2.707512   3.579201
    12  F    4.525817   2.341433   1.350000   3.573940   2.707512
                   11         12
    11  F    0.000000
    12  F    2.336931   0.000000
 Stoichiometry    C4H4F4
 Framework group  C1[X(C4H4F4)]
 Deg. of freedom    30
 Full point group                 C1      NOp   1
 Largest Abelian subgroup         C1      NOp   1
 Largest concise Abelian subgroup C1      NOp   1
                         Standard orientation:                         
 ---------------------------------------------------------------------
 Center     Atomic      Atomic             Coordinates (Angstroms)
 Number     Number       Type             X           Y           Z
 ---------------------------------------------------------------------
      1          6           0       -3.062519    0.550552    0.000481
      2          1           0       -3.114158    1.088234   -0.923170
      3          1           0       -3.113822    1.079738    0.929045
      4          6           0       -2.932361   -0.798381   -0.001704
      5          1           0       -2.880530   -1.333050   -0.927093
      6          1           0       -2.881250   -1.330592    0.925140
      7          6           0        0.934068    0.715772    0.001164
      8          6           0        1.064226   -0.633162   -0.001022
      9          9           0        0.869340    1.383436    1.172716
     10          9           0        0.868915    1.394156   -1.164190
     11          9           0        1.129379   -1.311546    1.164332
     12          9           0        1.128953   -1.300826   -1.172574
 ---------------------------------------------------------------------
 Rotational constants (GHZ):      1.8478192      1.1023159      0.9764892
 Standard basis: 6-311++G(d,p) (5D, 7F)
 There are   212 symmetry adapted cartesian basis functions of A   symmetry.
 There are   204 symmetry adapted basis functions of A   symmetry.
   204 basis functions,   324 primitive gaussians,   212 cartesian basis functions
    32 alpha electrons       32 beta electrons
       nuclear repulsion energy       365.9518417123 Hartrees.
 NAtoms=   12 NActive=   12 NUniq=   12 SFac= 1.00D+00 NAtFMM=   60 NAOKFM=F Big=F
 Integral buffers will be    131072 words long.
 Raffenetti 2 integral format.
 Two-electron integral symmetry is turned on.
 Nuclear repulsion after empirical dispersion term =      365.9449098663 Hartrees.
 One-electron integrals computed using PRISM.
 NBasis=   204 RedAO= T EigKep=  3.42D-05  NBF=   204
 NBsUse=   204 1.00D-06 EigRej= -1.00D+00 NBFU=   204
 ExpMin= 3.60D-02 ExpMax= 1.14D+04 ExpMxC= 1.72D+03 IAcc=3 IRadAn=         5 AccDes= 0.00D+00
 Harris functional with IExCor= 3630 and IRadAn=       5 diagonalized for initial guess.
 HarFok:  IExCor= 3630 AccDes= 0.00D+00 IRadAn=         5 IDoV= 1 UseB2=F ITyADJ=14
 ICtDFT=  3500011 ScaDFX=  1.000000  1.000000  1.000000  1.000000
 FoFCou: FMM=F IPFlag=           0 FMFlag=      100000 FMFlg1=           0
         NFxFlg=           0 DoJE=T BraDBF=F KetDBF=T FulRan=T
         wScrn=  0.000000 ICntrl=     500 IOpCl=  0 I1Cent=   200000004 NGrid=           0
         NMat0=    1 NMatS0=      1 NMatT0=    0 NMatD0=    1 NMtDS0=    0 NMtDT0=    0
 Petite list used in FoFCou.
 Keep J ints in memory in canonical form, NReq=223612843.
 Requested convergence on RMS density matrix=1.00D-08 within 128 cycles.
 Requested convergence on MAX density matrix=1.00D-06.
 Requested convergence on             energy=1.00D-06.
 No special actions if energy rises.
 SCF Done:  E(RB97D) =  -553.969757324     A.U. after   12 cycles
            NFock= 12  Conv=0.54D-08     -V/T= 2.0032

 **********************************************************************

            Population analysis using the SCF density.

 **********************************************************************

 Orbital symmetries:
       Occupied  (A) (A) (A) (A) (A) (A) (A) (A) (A) (A) (A) (A)
                 (A) (A) (A) (A) (A) (A) (A) (A) (A) (A) (A) (A)
                 (A) (A) (A) (A) (A) (A) (A) (A)
       Virtual   (A) (A) (A) (A) (A) (A) (A) (A) (A) (A) (A) (A)
                 (A) (A) (A) (A) (A) (A) (A) (A) (A) (A) (A) (A)
                 (A) (A) (A) (A) (A) (A) (A) (A) (A) (A) (A) (A)
                 (A) (A) (A) (A) (A) (A) (A) (A) (A) (A) (A) (A)
                 (A) (A) (A) (A) (A) (A) (A) (A) (A) (A) (A) (A)
                 (A) (A) (A) (A) (A) (A) (A) (A) (A) (A) (A) (A)
                 (A) (A) (A) (A) (A) (A) (A) (A) (A) (A) (A) (A)
                 (A) (A) (A) (A) (A) (A) (A) (A) (A) (A) (A) (A)
                 (A) (A) (A) (A) (A) (A) (A) (A) (A) (A) (A) (A)
                 (A) (A) (A) (A) (A) (A) (A) (A) (A) (A) (A) (A)
                 (A) (A) (A) (A) (A) (A) (A) (A) (A) (A) (A) (A)
                 (A) (A) (A) (A) (A) (A) (A) (A) (A) (A) (A) (A)
                 (A) (A) (A) (A) (A) (A) (A) (A) (A) (A) (A) (A)
                 (A) (A) (A) (A) (A) (A) (A) (A) (A) (A) (A) (A)
                 (A) (A) (A) (A)
 The electronic state is 1-A.
 Alpha  occ. eigenvalues --  -24.31306 -24.31288 -24.31265 -24.31248 -10.09536
 Alpha  occ. eigenvalues --  -10.09486  -9.90474  -9.90423  -1.20955  -1.19504
 Alpha  occ. eigenvalues --   -1.16778  -1.15699  -0.74068  -0.69676  -0.61019
 Alpha  occ. eigenvalues --   -0.56427  -0.55918  -0.53305  -0.52574  -0.49604
 Alpha  occ. eigenvalues --   -0.45579  -0.43265  -0.42910  -0.41650  -0.41596
 Alpha  occ. eigenvalues --   -0.41018  -0.40004  -0.39259  -0.37350  -0.32830
 Alpha  occ. eigenvalues --   -0.24698  -0.23212
 Alpha virt. eigenvalues --   -0.04595  -0.03260  -0.02433  -0.00573  -0.00118
 Alpha virt. eigenvalues --    0.00315   0.02027   0.02192   0.04887   0.06155
 Alpha virt. eigenvalues --    0.06330   0.06527   0.07085   0.07603   0.09208
 Alpha virt. eigenvalues --    0.09359   0.10405   0.11700   0.12182   0.13447
 Alpha virt. eigenvalues --    0.13491   0.13656   0.15448   0.15487   0.16414
 Alpha virt. eigenvalues --    0.17831   0.18030   0.20861   0.22472   0.24656
 Alpha virt. eigenvalues --    0.25074   0.25769   0.28032   0.30106   0.30255
 Alpha virt. eigenvalues --    0.31411   0.31758   0.33613   0.34057   0.34247
 Alpha virt. eigenvalues --    0.35000   0.35770   0.36667   0.37325   0.38405
 Alpha virt. eigenvalues --    0.38424   0.41636   0.41817   0.43717   0.47252
 Alpha virt. eigenvalues --    0.49462   0.54362   0.54953   0.55272   0.57415
 Alpha virt. eigenvalues --    0.60922   0.61439   0.64929   0.69665   0.69793
 Alpha virt. eigenvalues --    0.72464   0.72620   0.73821   0.76414   0.79719
 Alpha virt. eigenvalues --    0.83990   0.85252   0.90131   0.94008   1.01689
 Alpha virt. eigenvalues --    1.03536   1.03981   1.04851   1.15749   1.21344
 Alpha virt. eigenvalues --    1.27998   1.30494   1.31984   1.32019   1.32177
 Alpha virt. eigenvalues --    1.33825   1.33933   1.35098   1.35555   1.36381
 Alpha virt. eigenvalues --    1.38911   1.39580   1.39722   1.48415   1.49090
 Alpha virt. eigenvalues --    1.51972   1.53500   1.54930   1.55310   1.56125
 Alpha virt. eigenvalues --    1.58259   1.70944   1.75167   1.75891   1.78524
 Alpha virt. eigenvalues --    1.79151   1.88400   1.88788   1.93800   1.94625
 Alpha virt. eigenvalues --    1.99943   2.04213   2.05932   2.07591   2.08762
 Alpha virt. eigenvalues --    2.10610   2.17395   2.36819   2.38332   2.48352
 Alpha virt. eigenvalues --    2.50346   2.52128   2.64127   2.64253   2.70820
 Alpha virt. eigenvalues --    2.73494   2.79923   2.84776   2.87260   2.92861
 Alpha virt. eigenvalues --    2.96986   3.07439   3.29867   3.33004   3.60511
 Alpha virt. eigenvalues --    3.60770   3.61105   3.61154   3.61378   3.63975
 Alpha virt. eigenvalues --    3.64036   3.65966   3.66630   3.69851   3.77057
 Alpha virt. eigenvalues --    3.79076   3.79849   3.80667   3.89189   3.94369
 Alpha virt. eigenvalues --    3.98639   4.03513   4.08687   4.30732   4.68156
 Alpha virt. eigenvalues --    4.70306   4.79437   6.08025   6.10446   6.14455
 Alpha virt. eigenvalues --    6.15635   6.16095   6.17207   6.18853   6.21551
 Alpha virt. eigenvalues --    6.22968   6.58521   6.60441   6.69197  23.23035
 Alpha virt. eigenvalues --   23.65336  23.81629  24.05036  66.44885  66.47735
 Alpha virt. eigenvalues --   66.48796  66.51135
          Condensed to atoms (all electrons):
               1          2          3          4          5          6
     1  C    5.258356   0.414397   0.414680   0.296676  -0.047331  -0.047960
     2  H    0.414397   0.534318  -0.036893  -0.045057  -0.011786   0.009246
     3  H    0.414680  -0.036893   0.534948  -0.045615   0.009245  -0.012036
     4  C    0.296676  -0.045057  -0.045615   5.257360   0.417533   0.417888
     5  H   -0.047331  -0.011786   0.009245   0.417533   0.534348  -0.038129
     6  H   -0.047960   0.009246  -0.012036   0.417888  -0.038129   0.534939
     7  C   -0.098197   0.000365   0.000336   0.069749  -0.000698  -0.000753
     8  C    0.078619  -0.000744  -0.000690  -0.082862   0.000558   0.000637
     9  F    0.002611   0.000938  -0.001853  -0.004250  -0.000112   0.000556
    10  F    0.002744  -0.001855   0.000918  -0.004301   0.000551  -0.000113
    11  F    0.002996  -0.000353   0.000794  -0.006490   0.001307  -0.001882
    12  F    0.003110   0.000798  -0.000354  -0.006671  -0.001915   0.001338
               7          8          9         10         11         12
     1  C   -0.098197   0.078619   0.002611   0.002744   0.002996   0.003110
     2  H    0.000365  -0.000744   0.000938  -0.001855  -0.000353   0.000798
     3  H    0.000336  -0.000690  -0.001853   0.000918   0.000794  -0.000354
     4  C    0.069749  -0.082862  -0.004250  -0.004301  -0.006490  -0.006671
     5  H   -0.000698   0.000558  -0.000112   0.000551   0.001307  -0.001915
     6  H   -0.000753   0.000637   0.000556  -0.000113  -0.001882   0.001338
     7  C    6.197415  -0.662643   0.361746   0.362338  -0.195970  -0.196283
     8  C   -0.662643   6.242429  -0.200797  -0.200373   0.357474   0.356847
     9  F    0.361746  -0.200797   8.965789  -0.070411   0.006339   0.008295
    10  F    0.362338  -0.200373  -0.070411   8.965169   0.008201   0.006326
    11  F   -0.195970   0.357474   0.006339   0.008201   8.966631  -0.070205
    12  F   -0.196283   0.356847   0.008295   0.006326  -0.070205   8.967153
 Mulliken charges:
               1
     1  C   -0.280701
     2  H    0.136626
     3  H    0.136520
     4  C   -0.263959
     5  H    0.136430
     6  H    0.136270
     7  C    0.162595
     8  C    0.111545
     9  F   -0.068850
    10  F   -0.069194
    11  F   -0.068842
    12  F   -0.068440
 Sum of Mulliken charges =   0.00000
 Mulliken charges with hydrogens summed into heavy atoms:
               1
     1  C   -0.007555
     4  C    0.008741
     7  C    0.162595
     8  C    0.111545
     9  F   -0.068850
    10  F   -0.069194
    11  F   -0.068842
    12  F   -0.068440
 Electronic spatial extent (au):  <R**2>=           1270.0843
 Charge=              0.0000 electrons
 Dipole moment (field-independent basis, Debye):
    X=             -0.1373    Y=              0.0048    Z=              0.0007  Tot=              0.1374
 Quadrupole moment (field-independent basis, Debye-Ang):
   XX=            -45.2926   YY=            -44.8106   ZZ=            -45.3106
   XY=             -0.0671   XZ=             -0.0014   YZ=             -0.0089
 Traceless Quadrupole moment (field-independent basis, Debye-Ang):
   XX=             -0.1547   YY=              0.3274   ZZ=             -0.1726
   XY=             -0.0671   XZ=             -0.0014   YZ=             -0.0089
 Octapole moment (field-independent basis, Debye-Ang**2):
  XXX=             50.6767  YYY=              0.6630  ZZZ=              0.0124  XYY=              5.1759
  XXY=              3.0726  XXZ=              0.0169  XZZ=              3.4087  YZZ=              0.1517
  YYZ=             -0.0231  XYZ=             -0.0041
 Hexadecapole moment (field-independent basis, Debye-Ang**3):
 XXXX=          -1068.7110 YYYY=           -341.1271 ZZZZ=           -209.4624 XXXY=            -14.8953
 XXXZ=             -0.0554 YYYX=             -3.4406 YYYZ=             -0.0234 ZZZX=             -0.0368
 ZZZY=             -0.0878 XXYY=           -208.6534 XXZZ=           -185.8798 YYZZ=            -93.3755
 XXYZ=             -0.0396 YYXZ=              0.0651 ZZXY=             -1.0507
 N-N= 3.659449098663D+02 E-N=-2.043914457503D+03  KE= 5.522278629075D+02
 Calling FoFJK, ICntrl=      2527 FMM=F ISym2X=0 I1Cent= 0 IOpClX= 0 NMat=1 NMatS=1 NMatT=0.
 ***** Axes restored to original set *****
 -------------------------------------------------------------------
 Center     Atomic                   Forces (Hartrees/Bohr)
 Number     Number              X              Y              Z
 -------------------------------------------------------------------
      1        6          -0.029721313    0.000502534   -0.017384061
      2        1           0.003152503   -0.000048980    0.013665807
      3        1           0.013607401   -0.000048685   -0.003833944
      4        6           0.029762812    0.000621445    0.017275735
      5        1          -0.013456807   -0.000043498    0.004008244
      6        1          -0.003368850   -0.000044332   -0.013745642
      7        6          -0.021730511    0.000282415   -0.013439323
      8        6           0.021997881    0.000298625    0.013595838
      9        9          -0.008744790   -0.000395274    0.022599547
     10        9           0.014772292   -0.000398678   -0.019396154
     11        9          -0.014806275   -0.000361228    0.019173579
     12        9           0.008535657   -0.000364343   -0.022519626
 -------------------------------------------------------------------
 Cartesian Forces:  Max     0.029762812 RMS     0.013779311

 GradGradGradGradGradGradGradGradGradGradGradGradGradGradGradGradGradGrad
 Berny optimization.
 FormGI is forming the generalized inverse of G from B-inverse, IUseBI=4.
 Internal  Forces:  Max     0.019397597 RMS     0.007159829
 Search for a local minimum.
 Step number   1 out of a maximum of   86
 All quantities printed in internal units (Hartrees-Bohrs-Radians)
 Mixed Optimization -- RFO/linear search
 Second derivative matrix not updated -- first step.
 ITU=  0
     Eigenvalues ---    0.00562   0.00768   0.02973   0.02998   0.04068
     Eigenvalues ---    0.04918   0.05347   0.05919   0.06779   0.06928
     Eigenvalues ---    0.08170   0.08490   0.08989   0.10090   0.11201
     Eigenvalues ---    0.12859   0.14277   0.15786   0.18808   0.19401
     Eigenvalues ---    0.34593   0.35927   0.37230   0.37230   0.52048
     Eigenvalues ---    0.53247   0.55021   0.55021   0.55021   0.55021
 RFO step:  Lambda=-1.29323745D-02 EMin= 5.61849243D-03
 Linear search not attempted -- first point.
 Iteration  1 RMS(Cart)=  0.02684602 RMS(Int)=  0.00071293
 Iteration  2 RMS(Cart)=  0.00071651 RMS(Int)=  0.00008932
 Iteration  3 RMS(Cart)=  0.00000028 RMS(Int)=  0.00008932
 Variable       Old X    -DE/DX   Delta X   Delta X   Delta X     New X
                                 (Linear)    (Quad)   (Total)
    R1        2.02201   0.01367   0.00000   0.03548   0.03548   2.05749
    R2        2.02201   0.01371   0.00000   0.03559   0.03559   2.05759
    R3        2.56096  -0.01483   0.00000  -0.02770  -0.02769   2.53326
    R4        7.55890   0.00029   0.00000  -0.01542  -0.01542   7.54349
    R5        2.02201   0.01247   0.00000   0.03525   0.03532   2.05732
    R6        2.02201   0.01245   0.00000   0.03534   0.03540   2.05740
    R7        7.84679  -0.00337   0.00000  -0.02210  -0.02206   7.82473
    R8        7.55890  -0.00090   0.00000  -0.00789  -0.00800   7.55091
    R9        7.77055   0.00159   0.00000  -0.00007  -0.00007   7.77049
   R10        7.77111   0.00169   0.00000   0.00038   0.00039   7.77150
   R11        2.56096  -0.01753   0.00000  -0.03343  -0.03340   2.52755
   R12        2.55113  -0.01884   0.00000  -0.03346  -0.03346   2.51767
   R13        2.55113  -0.01940   0.00000  -0.03445  -0.03445   2.51669
   R14        2.55113  -0.01917   0.00000  -0.03404  -0.03404   2.51709
   R15        2.55113  -0.01862   0.00000  -0.03307  -0.03307   2.51806
    A1        2.09241  -0.00223   0.00000  -0.02368  -0.02368   2.06874
    A2        2.09836   0.00108   0.00000   0.01043   0.01043   2.10879
    A3        1.59841   0.00007   0.00000   0.00073   0.00072   1.59913
    A4        2.09241   0.00114   0.00000   0.01325   0.01324   2.10566
    A5        1.59813  -0.00002   0.00000   0.00052   0.00052   1.59865
    A6        2.09836   0.00122   0.00000   0.01016   0.01014   2.10850
    A7        2.09241   0.00141   0.00000   0.01291   0.01288   2.10530
    A8        1.62567  -0.00052   0.00000  -0.00084  -0.00084   1.62483
    A9        2.09241  -0.00263   0.00000  -0.02308  -0.02303   2.06939
   A10        1.70894  -0.00087   0.00000   0.00122   0.00117   1.71011
   A11        1.70752  -0.00091   0.00000   0.00143   0.00138   1.70890
   A12        1.62567  -0.00058   0.00000   0.00304   0.00304   1.62871
   A13        1.54346   0.00014   0.00000  -0.00607  -0.00605   1.53741
   A14        1.54318   0.00003   0.00000  -0.00614  -0.00612   1.53707
   A15        1.70752   0.00082   0.00000   0.00568   0.00541   1.71293
   A16        1.70894   0.00067   0.00000   0.00519   0.00494   1.71388
   A17        2.09241   0.00577   0.00000   0.04664   0.04664   2.13905
   A18        2.09836   0.00515   0.00000   0.04251   0.04250   2.14086
   A19        2.09241  -0.01092   0.00000  -0.08915  -0.08915   2.00327
   A20        1.59841   0.00035   0.00000   0.00290   0.00297   1.60138
   A21        1.59813   0.00044   0.00000   0.00328   0.00336   1.60148
   A22        0.45433   0.00240   0.00000   0.00497   0.00491   0.45924
   A23        1.64852   0.00204   0.00000   0.00279   0.00283   1.65135
   A24        1.72660  -0.00132   0.00000  -0.00792  -0.00827   1.71834
   A25        1.33499  -0.00118   0.00000  -0.00147  -0.00122   1.33377
   A26        1.64717   0.00195   0.00000   0.00275   0.00279   1.64996
   A27        1.33529  -0.00123   0.00000  -0.00174  -0.00152   1.33377
   A28        1.72903  -0.00132   0.00000  -0.00839  -0.00878   1.72025
   A29        2.09836   0.00911   0.00000   0.04519   0.04517   2.14353
   A30        2.09241   0.00998   0.00000   0.04957   0.04954   2.14196
   A31        2.09241  -0.01909   0.00000  -0.09476  -0.09471   1.99770
    D1        0.00000   0.00053   0.00000   0.00013   0.00014   0.00014
    D2        3.14159  -0.00040   0.00000  -0.00012  -0.00012   3.14147
    D3        1.57080   0.00002   0.00000  -0.00020  -0.00020   1.57060
    D4        3.14159   0.00040   0.00000  -0.00004  -0.00004   3.14155
    D5        0.00000  -0.00053   0.00000  -0.00029  -0.00030  -0.00030
    D6       -1.57080  -0.00011   0.00000  -0.00037  -0.00037  -1.57117
    D7       -2.09770  -0.00081   0.00000  -0.00899  -0.00898  -2.10668
    D8        2.09372  -0.00660   0.00000  -0.05541  -0.05540   2.03832
    D9        0.00000   0.00435   0.00000   0.03329   0.03329   0.03329
   D10        2.09176   0.00142   0.00000   0.01467   0.01467   2.10643
   D11        0.00000  -0.00437   0.00000  -0.03175  -0.03175  -0.03175
   D12       -2.09372   0.00658   0.00000   0.05695   0.05694  -2.03678
   D13       -3.13577  -0.00403   0.00000  -0.03533  -0.03538   3.11204
   D14        1.02162   0.00696   0.00000   0.05465   0.05468   1.07630
   D15       -1.00997  -0.00721   0.00000  -0.05866  -0.05868  -1.06865
   D16       -3.13577   0.00378   0.00000   0.03132   0.03138  -3.10439
   D17        2.09770   0.00938   0.00000   0.04655   0.04653   2.14423
   D18       -2.09176  -0.00970   0.00000  -0.04806  -0.04803  -2.13979
   D19        0.22747   0.00112   0.00000   0.00204   0.00201   0.22949
   D20       -0.22823  -0.00135   0.00000  -0.00305  -0.00302  -0.23124
   D21       -1.57080  -0.00054   0.00000  -0.00006  -0.00007  -1.57087
   D22        1.57080   0.00040   0.00000  -0.00070  -0.00068   1.57012
   D23        1.79827   0.00127   0.00000  -0.00066  -0.00063   1.79763
   D24        1.34257  -0.00121   0.00000  -0.00575  -0.00566   1.33690
   D25        0.00000  -0.00039   0.00000  -0.00276  -0.00272  -0.00272
   D26        3.14159   0.00055   0.00000  -0.00340  -0.00333   3.13826
   D27       -1.34332   0.00114   0.00000   0.00505   0.00497  -1.33835
   D28       -1.79903  -0.00134   0.00000  -0.00004  -0.00006  -1.79908
   D29        3.14159  -0.00053   0.00000   0.00295   0.00289  -3.13870
   D30        0.00000   0.00041   0.00000   0.00231   0.00228   0.00228
         Item               Value     Threshold  Converged?
 Maximum Force            0.019398     0.000450     NO 
 RMS     Force            0.007160     0.000300     NO 
 Maximum Displacement     0.112826     0.001800     NO 
 RMS     Displacement     0.026851     0.001200     NO 
 Predicted change in Energy=-6.865013D-03
 GradGradGradGradGradGradGradGradGradGradGradGradGradGradGradGradGradGrad

                          Input orientation:                          
 ---------------------------------------------------------------------
 Center     Atomic      Atomic             Coordinates (Angstroms)
 Number     Number       Type             X           Y           Z
 ---------------------------------------------------------------------
      1          6           0       -0.005524    0.004106   -0.003691
      2          1           0        0.005796    0.004311    1.085026
      3          1           0        0.945630    0.004431   -0.533653
      4          6           0       -1.163781    0.003269   -0.678599
      5          1           0       -2.116312    0.002906   -0.151411
      6          1           0       -1.171299    0.003182   -1.767305
      7          6           0       -0.196497    3.989807   -0.115567
      8          6           0       -1.353102    3.993070   -0.787300
      9          9           0        0.987451    3.984849   -0.726503
     10          9           0       -0.138068    3.984971    1.214915
     11          9           0       -1.415099    3.994674   -2.117840
     12          9           0       -2.539018    3.994298   -0.179711
 ---------------------------------------------------------------------
                    Distance matrix (angstroms):
                    1          2          3          4          5
     1  C    0.000000
     2  H    1.088775   0.000000
     3  H    1.088832   1.871740   0.000000
     4  C    1.340545   2.116195   2.114385   0.000000
     5  H    2.115951   2.456037   3.085709   1.088688   0.000000
     6  H    2.114088   3.085667   2.450160   1.088732   1.871941
     7  C    3.991842   4.167316   4.166831   4.140668   4.425196
     8  C    4.282738   4.611117   4.610613   3.995769   4.111965
     9  F    4.165906   4.482183   3.985307   4.525823   5.081334
    10  F    4.165315   3.985376   4.480691   4.526746   4.651573
    11  F    4.730874   5.310395   4.899463   4.250399   4.504749
    12  F    4.729821   4.898533   5.309151   4.250703   4.013813
                    6          7          8          9         10
     6  H    0.000000
     7  C    4.423986   0.000000
     8  C    4.112501   1.337524   0.000000
     9  F    4.647273   1.332292   2.341357   0.000000
    10  F    5.080929   1.331772   2.342058   2.244080   0.000000
    11  F    4.014265   2.343953   1.331985   2.776358   3.569055
    12  F    4.507784   2.343403   1.332503   3.568621   2.776622
                   11         12
    11  F    0.000000
    12  F    2.240433   0.000000
 Stoichiometry    C4H4F4
 Framework group  C1[X(C4H4F4)]
 Deg. of freedom    30
 Full point group                 C1      NOp   1
 Largest Abelian subgroup         C1      NOp   1
 Largest concise Abelian subgroup C1      NOp   1
                         Standard orientation:                         
 ---------------------------------------------------------------------
 Center     Atomic      Atomic             Coordinates (Angstroms)
 Number     Number       Type             X           Y           Z
 ---------------------------------------------------------------------
      1          6           0       -3.059338    0.525379   -0.001164
      2          1           0       -3.116073    1.079114   -0.936893
      3          1           0       -3.116091    1.078749    0.934847
      4          6           0       -2.922835   -0.808197    0.000656
      5          1           0       -2.865856   -1.364141   -0.933646
      6          1           0       -2.866320   -1.358644    0.938287
      7          6           0        0.928067    0.713541    0.000026
      8          6           0        1.068338   -0.616607   -0.000069
      9          9           0        0.849586    1.426150    1.122983
     10          9           0        0.849720    1.428078   -1.121097
     11          9           0        1.143789   -1.334574    1.119312
     12          9           0        1.143455   -1.332963   -1.121120
 ---------------------------------------------------------------------
 Rotational constants (GHZ):      1.8586080      1.1250097      0.9662434
 Standard basis: 6-311++G(d,p) (5D, 7F)
 There are   212 symmetry adapted cartesian basis functions of A   symmetry.
 There are   204 symmetry adapted basis functions of A   symmetry.
   204 basis functions,   324 primitive gaussians,   212 cartesian basis functions
    32 alpha electrons       32 beta electrons
       nuclear repulsion energy       368.1937685976 Hartrees.
 NAtoms=   12 NActive=   12 NUniq=   12 SFac= 1.00D+00 NAtFMM=   60 NAOKFM=F Big=F
 Integral buffers will be    131072 words long.
 Raffenetti 2 integral format.
 Two-electron integral symmetry is turned on.
 Nuclear repulsion after empirical dispersion term =      368.1870238137 Hartrees.
 One-electron integrals computed using PRISM.
 NBasis=   204 RedAO= T EigKep=  3.19D-05  NBF=   204
 NBsUse=   204 1.00D-06 EigRej= -1.00D+00 NBFU=   204
 Initial guess from the checkpoint file:  "c2h4-c2f4-diffg.chk"
 B after Tr=     0.000000    0.000000    0.000000
         Rot=    0.999993    0.001469    0.000035   -0.003470 Ang=   0.43 deg.
 ExpMin= 3.60D-02 ExpMax= 1.14D+04 ExpMxC= 1.72D+03 IAcc=3 IRadAn=         5 AccDes= 0.00D+00
 Harris functional with IExCor= 3630 and IRadAn=       5 diagonalized for initial guess.
 HarFok:  IExCor= 3630 AccDes= 0.00D+00 IRadAn=         5 IDoV= 1 UseB2=F ITyADJ=14
 ICtDFT=  3500011 ScaDFX=  1.000000  1.000000  1.000000  1.000000
 FoFCou: FMM=F IPFlag=           0 FMFlag=      100000 FMFlg1=           0
         NFxFlg=           0 DoJE=T BraDBF=F KetDBF=T FulRan=T
         wScrn=  0.000000 ICntrl=     500 IOpCl=  0 I1Cent=   200000004 NGrid=           0
         NMat0=    1 NMatS0=      1 NMatT0=    0 NMatD0=    1 NMtDS0=    0 NMtDT0=    0
 Petite list used in FoFCou.
 Keep J ints in memory in canonical form, NReq=223612843.
 Requested convergence on RMS density matrix=1.00D-08 within 128 cycles.
 Requested convergence on MAX density matrix=1.00D-06.
 Requested convergence on             energy=1.00D-06.
 No special actions if energy rises.
 SCF Done:  E(RB97D) =  -553.977602903     A.U. after   11 cycles
            NFock= 11  Conv=0.25D-08     -V/T= 2.0029
 Calling FoFJK, ICntrl=      2527 FMM=F ISym2X=0 I1Cent= 0 IOpClX= 0 NMat=1 NMatS=1 NMatT=0.
 ***** Axes restored to original set *****
 -------------------------------------------------------------------
 Center     Atomic                   Forces (Hartrees/Bohr)
 Number     Number              X              Y              Z
 -------------------------------------------------------------------
      1        6          -0.005534258    0.000479168   -0.003317536
      2        1           0.002052947   -0.000036031    0.001083392
      3        1           0.002021628   -0.000029329    0.001388009
      4        6           0.005722559    0.000663761    0.003241461
      5        1          -0.002038687   -0.000054811   -0.001253896
      6        1          -0.002252312   -0.000060685   -0.001157631
      7        6          -0.005186214   -0.000006141   -0.003475631
      8        6           0.004353554    0.000150181    0.002995244
      9        9          -0.001648916   -0.000281236    0.004885032
     10        9           0.003329290   -0.000295570   -0.003662258
     11        9          -0.002660751   -0.000271547    0.003478828
     12        9           0.001841159   -0.000257760   -0.004205013
 -------------------------------------------------------------------
 Cartesian Forces:  Max     0.005722559 RMS     0.002726795

 GradGradGradGradGradGradGradGradGradGradGradGradGradGradGradGradGradGrad
 Berny optimization.
 Using GEDIIS/GDIIS optimizer.
 FormGI is forming the generalized inverse of G from B-inverse, IUseBI=4.
 Internal  Forces:  Max     0.003866284 RMS     0.001339016
 Search for a local minimum.
 Step number   2 out of a maximum of   86
 All quantities printed in internal units (Hartrees-Bohrs-Radians)
 Mixed Optimization -- RFO/linear search
 Update second derivatives using D2CorX and points    1    2
 DE= -7.85D-03 DEPred=-6.87D-03 R= 1.14D+00
 TightC=F SS=  1.41D+00  RLast= 2.48D-01 DXNew= 5.0454D-01 7.4466D-01
 Trust test= 1.14D+00 RLast= 2.48D-01 DXMaxT set to 5.05D-01
 ITU=  1  0
 Use linear search instead of GDIIS.
     Eigenvalues ---    0.00562   0.00769   0.02970   0.02981   0.04041
     Eigenvalues ---    0.04912   0.05244   0.05887   0.06672   0.06784
     Eigenvalues ---    0.08011   0.08393   0.08732   0.09735   0.11044
     Eigenvalues ---    0.12625   0.14534   0.15749   0.18195   0.19396
     Eigenvalues ---    0.34676   0.35917   0.37230   0.37385   0.50958
     Eigenvalues ---    0.52740   0.53855   0.55021   0.55021   0.55027
 RFO step:  Lambda=-1.80095769D-04 EMin= 5.62048700D-03
 Quartic linear search produced a step of  0.22330.
 Iteration  1 RMS(Cart)=  0.01057409 RMS(Int)=  0.00005944
 Iteration  2 RMS(Cart)=  0.00005111 RMS(Int)=  0.00002748
 Iteration  3 RMS(Cart)=  0.00000000 RMS(Int)=  0.00002748
 Variable       Old X    -DE/DX   Delta X   Delta X   Delta X     New X
                                 (Linear)    (Quad)   (Total)
    R1        2.05749   0.00111   0.00792  -0.00446   0.00347   2.06095
    R2        2.05759   0.00109   0.00795  -0.00453   0.00342   2.06101
    R3        2.53326  -0.00166  -0.00618   0.00206  -0.00412   2.52914
    R4        7.54349  -0.00030  -0.00344  -0.03458  -0.03801   7.50547
    R5        2.05732   0.00111   0.00789  -0.00412   0.00379   2.06111
    R6        2.05740   0.00110   0.00790  -0.00417   0.00376   2.06116
    R7        7.82473  -0.00081  -0.00493  -0.03052  -0.03544   7.78928
    R8        7.55091  -0.00030  -0.00179  -0.02843  -0.03026   7.52064
    R9        7.77049   0.00018  -0.00001  -0.02832  -0.02833   7.74215
   R10        7.77150   0.00020   0.00009  -0.02859  -0.02849   7.74301
   R11        2.52755  -0.00387  -0.00746  -0.00164  -0.00909   2.51846
   R12        2.51767  -0.00371  -0.00747  -0.00078  -0.00825   2.50941
   R13        2.51669  -0.00351  -0.00769  -0.00013  -0.00782   2.50886
   R14        2.51709  -0.00335  -0.00760   0.00014  -0.00746   2.50963
   R15        2.51806  -0.00355  -0.00738  -0.00053  -0.00791   2.51015
    A1        2.06874  -0.00146  -0.00529  -0.01511  -0.02040   2.04834
    A2        2.10879   0.00070   0.00233   0.00690   0.00923   2.11802
    A3        1.59913   0.00008   0.00016   0.00028   0.00044   1.59957
    A4        2.10566   0.00076   0.00296   0.00821   0.01117   2.11683
    A5        1.59865   0.00007   0.00012   0.00018   0.00030   1.59895
    A6        2.10850   0.00079   0.00227   0.00672   0.00898   2.11748
    A7        2.10530   0.00089   0.00288   0.00806   0.01092   2.11622
    A8        1.62483  -0.00026  -0.00019  -0.00121  -0.00140   1.62343
    A9        2.06939  -0.00169  -0.00514  -0.01478  -0.01990   2.04949
   A10        1.71011   0.00009   0.00026   0.00251   0.00276   1.71288
   A11        1.70890   0.00011   0.00031   0.00266   0.00296   1.71185
   A12        1.62871   0.00008   0.00068   0.00184   0.00252   1.63123
   A13        1.53741  -0.00013  -0.00135  -0.00170  -0.00306   1.53435
   A14        1.53707  -0.00015  -0.00137  -0.00182  -0.00318   1.53388
   A15        1.71293   0.00012   0.00121  -0.00023   0.00091   1.71384
   A16        1.71388   0.00010   0.00110  -0.00026   0.00078   1.71466
   A17        2.13905   0.00133   0.01041   0.00230   0.01271   2.15177
   A18        2.14086   0.00121   0.00949   0.00218   0.01167   2.15253
   A19        2.00327  -0.00253  -0.01991  -0.00449  -0.02440   1.97886
   A20        1.60138  -0.00001   0.00066  -0.00035   0.00035   1.60173
   A21        1.60148   0.00001   0.00075  -0.00024   0.00055   1.60203
   A22        0.45924   0.00001   0.00110  -0.00128  -0.00023   0.45901
   A23        1.65135   0.00047   0.00063   0.00054   0.00119   1.65254
   A24        1.71834  -0.00056  -0.00185  -0.00182  -0.00377   1.71457
   A25        1.33377  -0.00013  -0.00027  -0.00075  -0.00095   1.33283
   A26        1.64996   0.00047   0.00062   0.00076   0.00140   1.65136
   A27        1.33377  -0.00014  -0.00034  -0.00089  -0.00116   1.33260
   A28        1.72025  -0.00058  -0.00196  -0.00191  -0.00399   1.71626
   A29        2.14353   0.00170   0.01009   0.00004   0.01012   2.15364
   A30        2.14196   0.00185   0.01106  -0.00002   0.01103   2.15299
   A31        1.99770  -0.00355  -0.02115  -0.00001  -0.02115   1.97655
    D1        0.00014   0.00001   0.00003   0.00061   0.00065   0.00079
    D2        3.14147   0.00005  -0.00003  -0.00010  -0.00013   3.14134
    D3        1.57060   0.00002  -0.00004   0.00029   0.00025   1.57085
    D4        3.14155  -0.00004  -0.00001   0.00009   0.00009  -3.14154
    D5       -0.00030  -0.00001  -0.00007  -0.00061  -0.00069  -0.00099
    D6       -1.57117  -0.00003  -0.00008  -0.00023  -0.00031  -1.57148
    D7       -2.10668  -0.00064  -0.00201  -0.00670  -0.00871  -2.11539
    D8        2.03832  -0.00197  -0.01237  -0.00892  -0.02129   2.01703
    D9        0.03329   0.00056   0.00743  -0.00460   0.00283   0.03612
   D10        2.10643   0.00081   0.00328   0.00841   0.01169   2.11812
   D11       -0.03175  -0.00051  -0.00709   0.00619  -0.00089  -0.03264
   D12       -2.03678   0.00201   0.01272   0.01051   0.02322  -2.01356
   D13        3.11204  -0.00049  -0.00790   0.00413  -0.00379   3.10825
   D14        1.07630   0.00208   0.01221   0.00890   0.02111   1.09741
   D15       -1.06865  -0.00220  -0.01310  -0.00996  -0.02307  -1.09172
   D16       -3.10439   0.00038   0.00701  -0.00519   0.00183  -3.10256
   D17        2.14423   0.00175   0.01039   0.00025   0.01063   2.15486
   D18       -2.13979  -0.00181  -0.01072   0.00020  -0.01051  -2.15031
   D19        0.22949   0.00000   0.00045  -0.00064  -0.00021   0.22928
   D20       -0.23124  -0.00003  -0.00067   0.00062  -0.00003  -0.23128
   D21       -1.57087  -0.00004  -0.00002   0.00119   0.00117  -1.56969
   D22        1.57012   0.00002  -0.00015  -0.00118  -0.00133   1.56878
   D23        1.79763  -0.00003  -0.00014  -0.00136  -0.00150   1.79613
   D24        1.33690  -0.00006  -0.00126  -0.00010  -0.00132   1.33558
   D25       -0.00272  -0.00007  -0.00061   0.00047  -0.00012  -0.00284
   D26        3.13826  -0.00001  -0.00074  -0.00190  -0.00263   3.13564
   D27       -1.33835   0.00006   0.00111   0.00022   0.00129  -1.33706
   D28       -1.79908   0.00004  -0.00001   0.00148   0.00147  -1.79761
   D29       -3.13870   0.00002   0.00065   0.00205   0.00267  -3.13603
   D30        0.00228   0.00008   0.00051  -0.00033   0.00017   0.00245
         Item               Value     Threshold  Converged?
 Maximum Force            0.003866     0.000450     NO 
 RMS     Force            0.001339     0.000300     NO 
 Maximum Displacement     0.028086     0.001800     NO 
 RMS     Displacement     0.010572     0.001200     NO 
 Predicted change in Energy=-4.079913D-04
 GradGradGradGradGradGradGradGradGradGradGradGradGradGradGradGradGradGrad

                          Input orientation:                          
 ---------------------------------------------------------------------
 Center     Atomic      Atomic             Coordinates (Angstroms)
 Number     Number       Type             X           Y           Z
 ---------------------------------------------------------------------
      1          6           0       -0.006520    0.014518   -0.004579
      2          1           0        0.014779    0.015103    1.085822
      3          1           0        0.952133    0.015466   -0.524656
      4          6           0       -1.162826    0.011896   -0.678496
      5          1           0       -2.121861    0.010990   -0.159017
      6          1           0       -1.182168    0.011552   -1.769045
      7          6           0       -0.198764    3.979987   -0.117258
      8          6           0       -1.351481    3.985719   -0.786088
      9          9           0        0.988684    3.972202   -0.711640
     10          9           0       -0.124496    3.972177    1.208271
     11          9           0       -1.427269    3.987364   -2.111962
     12          9           0       -2.540033    3.986900   -0.192992
 ---------------------------------------------------------------------
                    Distance matrix (angstroms):
                    1          2          3          4          5
     1  C    0.000000
     2  H    1.090609   0.000000
     3  H    1.090640   1.863403   0.000000
     4  C    1.338363   2.121222   2.120549   0.000000
     5  H    2.120975   2.472827   3.095666   1.090692   0.000000
     6  H    2.120259   3.095636   2.470579   1.090720   1.864193
     7  C    3.971726   4.148893   4.148248   4.121911   4.410554
     8  C    4.264988   4.597446   4.597596   3.979754   4.096972
     9  F    4.141694   4.453986   3.961320   4.507119   5.066763
    10  F    4.141013   3.961417   4.451710   4.507976   4.642192
    11  F    4.716260   5.299452   4.894596   4.234277   4.484195
    12  F    4.715295   4.892606   5.298821   4.234746   3.997984
                    6          7          8          9         10
     6  H    0.000000
     7  C    4.409531   0.000000
     8  C    4.097423   1.332712   0.000000
     9  F    4.638691   1.327925   2.341388   0.000000
    10  F    5.066521   1.327632   2.341612   2.219286   0.000000
    11  F    3.998094   2.342674   1.328039   2.792483   3.566707
    12  F    4.486773   2.342504   1.328315   3.566659   2.792593
                   11         12
    11  F    0.000000
    12  F    2.218263   0.000000
 Stoichiometry    C4H4F4
 Framework group  C1[X(C4H4F4)]
 Deg. of freedom    30
 Full point group                 C1      NOp   1
 Largest Abelian subgroup         C1      NOp   1
 Largest concise Abelian subgroup C1      NOp   1
                         Standard orientation:                         
 ---------------------------------------------------------------------
 Center     Atomic      Atomic             Coordinates (Angstroms)
 Number     Number       Type             X           Y           Z
 ---------------------------------------------------------------------
      1          6           0       -3.045651    0.515783   -0.001229
      2          1           0       -3.104738    1.078560   -0.933548
      3          1           0       -3.104801    1.080657    0.929854
      4          6           0       -2.906892   -0.815365    0.001058
      5          1           0       -2.847632   -1.380862   -0.929700
      6          1           0       -2.847736   -1.376508    0.934487
      7          6           0        0.921172    0.713057    0.000137
      8          6           0        1.067641   -0.611582   -0.000174
      9          9           0        0.836358    1.436672    1.110349
     10          9           0        0.836448    1.437892   -1.108936
     11          9           0        1.146392   -1.338546    1.108433
     12          9           0        1.146056   -1.337485   -1.109830
 ---------------------------------------------------------------------
 Rotational constants (GHZ):      1.8616905      1.1383463      0.9693425
 Standard basis: 6-311++G(d,p) (5D, 7F)
 There are   212 symmetry adapted cartesian basis functions of A   symmetry.
 There are   204 symmetry adapted basis functions of A   symmetry.
   204 basis functions,   324 primitive gaussians,   212 cartesian basis functions
    32 alpha electrons       32 beta electrons
       nuclear repulsion energy       369.1417694782 Hartrees.
 NAtoms=   12 NActive=   12 NUniq=   12 SFac= 1.00D+00 NAtFMM=   60 NAOKFM=F Big=F
 Integral buffers will be    131072 words long.
 Raffenetti 2 integral format.
 Two-electron integral symmetry is turned on.
 Nuclear repulsion after empirical dispersion term =      369.1350695627 Hartrees.
 One-electron integrals computed using PRISM.
 NBasis=   204 RedAO= T EigKep=  3.12D-05  NBF=   204
 NBsUse=   204 1.00D-06 EigRej= -1.00D+00 NBFU=   204
 Initial guess from the checkpoint file:  "c2h4-c2f4-diffg.chk"
 B after Tr=     0.000000    0.000000    0.000000
         Rot=    0.999998    0.000104   -0.000002   -0.001777 Ang=   0.20 deg.
 ExpMin= 3.60D-02 ExpMax= 1.14D+04 ExpMxC= 1.72D+03 IAcc=3 IRadAn=         5 AccDes= 0.00D+00
 Harris functional with IExCor= 3630 and IRadAn=       5 diagonalized for initial guess.
 HarFok:  IExCor= 3630 AccDes= 0.00D+00 IRadAn=         5 IDoV= 1 UseB2=F ITyADJ=14
 ICtDFT=  3500011 ScaDFX=  1.000000  1.000000  1.000000  1.000000
 FoFCou: FMM=F IPFlag=           0 FMFlag=      100000 FMFlg1=           0
         NFxFlg=           0 DoJE=T BraDBF=F KetDBF=T FulRan=T
         wScrn=  0.000000 ICntrl=     500 IOpCl=  0 I1Cent=   200000004 NGrid=           0
         NMat0=    1 NMatS0=      1 NMatT0=    0 NMatD0=    1 NMtDS0=    0 NMtDT0=    0
 Petite list used in FoFCou.
 Keep J ints in memory in canonical form, NReq=223612843.
 Requested convergence on RMS density matrix=1.00D-08 within 128 cycles.
 Requested convergence on MAX density matrix=1.00D-06.
 Requested convergence on             energy=1.00D-06.
 No special actions if energy rises.
 SCF Done:  E(RB97D) =  -553.978013312     A.U. after    9 cycles
            NFock=  9  Conv=0.84D-08     -V/T= 2.0028
 Calling FoFJK, ICntrl=      2527 FMM=F ISym2X=0 I1Cent= 0 IOpClX= 0 NMat=1 NMatS=1 NMatT=0.
 ***** Axes restored to original set *****
 -------------------------------------------------------------------
 Center     Atomic                   Forces (Hartrees/Bohr)
 Number     Number              X              Y              Z
 -------------------------------------------------------------------
      1        6          -0.001522530    0.000435041   -0.000928345
      2        1           0.000599334   -0.000020985    0.000093010
      3        1           0.000393874   -0.000013001    0.000530915
      4        6           0.001625083    0.000712046    0.000899325
      5        1          -0.000381904   -0.000068220   -0.000568801
      6        1          -0.000744753   -0.000075584   -0.000043947
      7        6          -0.000380543   -0.000165641   -0.000456415
      8        6           0.000004936    0.000015299    0.000229650
      9        9           0.000640836   -0.000211241   -0.000279998
     10        9           0.000046990   -0.000223451    0.000834776
     11        9           0.000214547   -0.000197461   -0.000815101
     12        9          -0.000495871   -0.000186801    0.000504932
 -------------------------------------------------------------------
 Cartesian Forces:  Max     0.001625083 RMS     0.000581403

 GradGradGradGradGradGradGradGradGradGradGradGradGradGradGradGradGradGrad
 Berny optimization.
 Using GEDIIS/GDIIS optimizer.
 FormGI is forming the generalized inverse of G from B-inverse, IUseBI=4.
 Internal  Forces:  Max     0.000834687 RMS     0.000251858
 Search for a local minimum.
 Step number   3 out of a maximum of   86
 All quantities printed in internal units (Hartrees-Bohrs-Radians)
 Mixed Optimization -- En-DIIS/RFO-DIIS
 Update second derivatives using D2CorX and points    1    2    3
 DE= -4.10D-04 DEPred=-4.08D-04 R= 1.01D+00
 TightC=F SS=  1.41D+00  RLast= 1.05D-01 DXNew= 8.4853D-01 3.1406D-01
 Trust test= 1.01D+00 RLast= 1.05D-01 DXMaxT set to 5.05D-01
 ITU=  1  1  0
 Use linear search instead of GDIIS.
     Eigenvalues ---    0.00527   0.00772   0.02965   0.02970   0.04019
     Eigenvalues ---    0.04905   0.05203   0.05878   0.06631   0.06682
     Eigenvalues ---    0.07455   0.08366   0.08664   0.09471   0.11724
     Eigenvalues ---    0.12562   0.14614   0.15736   0.19379   0.19596
     Eigenvalues ---    0.34735   0.35907   0.37230   0.37405   0.52014
     Eigenvalues ---    0.52675   0.55009   0.55021   0.55022   0.57047
 RFO step:  Lambda=-5.98414975D-05 EMin= 5.27126854D-03
 Quartic linear search produced a step of  0.07901.
 Iteration  1 RMS(Cart)=  0.00852812 RMS(Int)=  0.00000541
 Iteration  2 RMS(Cart)=  0.00000482 RMS(Int)=  0.00000231
 Iteration  3 RMS(Cart)=  0.00000000 RMS(Int)=  0.00000231
 Variable       Old X    -DE/DX   Delta X   Delta X   Delta X     New X
                                 (Linear)    (Quad)   (Total)
    R1        2.06095   0.00011   0.00027   0.00048   0.00075   2.06170
    R2        2.06101   0.00010   0.00027   0.00044   0.00071   2.06173
    R3        2.52914  -0.00056  -0.00033  -0.00140  -0.00173   2.52741
    R4        7.50547  -0.00044  -0.00300  -0.04165  -0.04465   7.46082
    R5        2.06111   0.00009   0.00030   0.00030   0.00060   2.06171
    R6        2.06116   0.00007   0.00030   0.00027   0.00057   2.06173
    R7        7.78928  -0.00024  -0.00280  -0.03579  -0.03859   7.75069
    R8        7.52064  -0.00021  -0.00239  -0.03460  -0.03700   7.48365
    R9        7.74215  -0.00005  -0.00224  -0.03098  -0.03322   7.70894
   R10        7.74301  -0.00004  -0.00225  -0.03098  -0.03323   7.70978
   R11        2.51846   0.00033  -0.00072   0.00070  -0.00002   2.51844
   R12        2.50941   0.00070  -0.00065   0.00128   0.00063   2.51004
   R13        2.50886   0.00083  -0.00062   0.00153   0.00091   2.50977
   R14        2.50963   0.00080  -0.00059   0.00147   0.00088   2.51051
   R15        2.51015   0.00067  -0.00063   0.00123   0.00060   2.51075
    A1        2.04834  -0.00043  -0.00161  -0.00536  -0.00697   2.04137
    A2        2.11802   0.00020   0.00073   0.00232   0.00305   2.12107
    A3        1.59957  -0.00003   0.00003  -0.00014  -0.00011   1.59947
    A4        2.11683   0.00023   0.00088   0.00304   0.00392   2.12075
    A5        1.59895  -0.00004   0.00002  -0.00022  -0.00020   1.59874
    A6        2.11748   0.00027   0.00071   0.00248   0.00319   2.12067
    A7        2.11622   0.00031   0.00086   0.00321   0.00407   2.12029
    A8        1.62343  -0.00002  -0.00011  -0.00142  -0.00153   1.62191
    A9        2.04949  -0.00058  -0.00157  -0.00568  -0.00726   2.04223
   A10        1.71288   0.00017   0.00022   0.00269   0.00292   1.71579
   A11        1.71185   0.00018   0.00023   0.00279   0.00303   1.71488
   A12        1.63123  -0.00006   0.00020   0.00111   0.00131   1.63254
   A13        1.53435  -0.00003  -0.00024  -0.00125  -0.00150   1.53285
   A14        1.53388  -0.00004  -0.00025  -0.00132  -0.00157   1.53231
   A15        1.71384  -0.00006   0.00007  -0.00045  -0.00038   1.71346
   A16        1.71466  -0.00007   0.00006  -0.00050  -0.00044   1.71422
   A17        2.15177   0.00002   0.00100   0.00026   0.00127   2.15303
   A18        2.15253  -0.00002   0.00092  -0.00013   0.00080   2.15333
   A19        1.97886  -0.00001  -0.00193  -0.00015  -0.00208   1.97679
   A20        1.60173  -0.00005   0.00003  -0.00039  -0.00036   1.60138
   A21        1.60203  -0.00004   0.00004  -0.00030  -0.00025   1.60178
   A22        0.45901  -0.00006  -0.00002   0.00113   0.00111   0.46012
   A23        1.65254   0.00002   0.00009  -0.00007   0.00002   1.65256
   A24        1.71457  -0.00007  -0.00030  -0.00035  -0.00065   1.71392
   A25        1.33283  -0.00006  -0.00007  -0.00148  -0.00156   1.33127
   A26        1.65136   0.00002   0.00011   0.00000   0.00011   1.65147
   A27        1.33260  -0.00007  -0.00009  -0.00158  -0.00167   1.33093
   A28        1.71626  -0.00008  -0.00032  -0.00042  -0.00073   1.71553
   A29        2.15364  -0.00018   0.00080  -0.00092  -0.00013   2.15352
   A30        2.15299  -0.00013   0.00087  -0.00060   0.00027   2.15326
   A31        1.97655   0.00031  -0.00167   0.00152  -0.00015   1.97640
    D1        0.00079  -0.00005   0.00005   0.00003   0.00009   0.00087
    D2        3.14134   0.00011  -0.00001   0.00130   0.00129  -3.14056
    D3        1.57085   0.00003   0.00002   0.00064   0.00066   1.57151
    D4       -3.14154  -0.00011   0.00001  -0.00125  -0.00124   3.14040
    D5       -0.00099   0.00006  -0.00005   0.00002  -0.00004  -0.00104
    D6       -1.57148  -0.00003  -0.00002  -0.00064  -0.00067  -1.57215
    D7       -2.11539  -0.00019  -0.00069  -0.00213  -0.00282  -2.11821
    D8        2.01703  -0.00021  -0.00168  -0.00233  -0.00401   2.01302
    D9        0.03612  -0.00021   0.00022  -0.00232  -0.00210   0.03401
   D10        2.11812   0.00025   0.00092   0.00325   0.00417   2.12230
   D11       -0.03264   0.00023  -0.00007   0.00305   0.00298  -0.02966
   D12       -2.01356   0.00023   0.00183   0.00306   0.00489  -2.00867
   D13        3.10825   0.00022  -0.00030   0.00175   0.00145   3.10969
   D14        1.09741   0.00026   0.00167   0.00212   0.00378   1.10119
   D15       -1.09172  -0.00030  -0.00182  -0.00282  -0.00464  -1.09637
   D16       -3.10256  -0.00026   0.00014  -0.00246  -0.00231  -3.10487
   D17        2.15486  -0.00016   0.00084  -0.00071   0.00013   2.15500
   D18       -2.15031   0.00014  -0.00083   0.00079  -0.00005  -2.15035
   D19        0.22928  -0.00004  -0.00002   0.00052   0.00050   0.22978
   D20       -0.23128   0.00002   0.00000  -0.00061  -0.00062  -0.23189
   D21       -1.56969   0.00008   0.00009   0.00121   0.00131  -1.56838
   D22        1.56878  -0.00009  -0.00011  -0.00127  -0.00137   1.56741
   D23        1.79613  -0.00011  -0.00012  -0.00024  -0.00036   1.79577
   D24        1.33558  -0.00005  -0.00010  -0.00137  -0.00148   1.33410
   D25       -0.00284   0.00000  -0.00001   0.00046   0.00045  -0.00239
   D26        3.13564  -0.00017  -0.00021  -0.00202  -0.00223   3.13340
   D27       -1.33706   0.00006   0.00010   0.00137   0.00147  -1.33559
   D28       -1.79761   0.00012   0.00012   0.00024   0.00036  -1.79725
   D29       -3.13603   0.00018   0.00021   0.00207   0.00228  -3.13375
   D30        0.00245   0.00000   0.00001  -0.00041  -0.00040   0.00205
         Item               Value     Threshold  Converged?
 Maximum Force            0.000835     0.000450     NO 
 RMS     Force            0.000252     0.000300     YES
 Maximum Displacement     0.024757     0.001800     NO 
 RMS     Displacement     0.008529     0.001200     NO 
 Predicted change in Energy=-3.343631D-05
 GradGradGradGradGradGradGradGradGradGradGradGradGradGradGradGradGradGrad

                          Input orientation:                          
 ---------------------------------------------------------------------
 Center     Atomic      Atomic             Coordinates (Angstroms)
 Number     Number       Type             X           Y           Z
 ---------------------------------------------------------------------
      1          6           0       -0.007407    0.027038   -0.005236
      2          1           0        0.017173    0.027892    1.085493
      3          1           0        0.953633    0.028398   -0.521687
      4          6           0       -1.162885    0.022186   -0.678745
      5          1           0       -2.123872    0.019713   -0.162222
      6          1           0       -1.186617    0.020374   -1.769507
      7          6           0       -0.198421    3.968921   -0.117236
      8          6           0       -1.351251    3.976430   -0.785836
      9          9           0        0.989945    3.959183   -0.710494
     10          9           0       -0.122827    3.959076    1.208688
     11          9           0       -1.427159    3.977577   -2.112167
     12          9           0       -2.540135    3.977086   -0.192692
 ---------------------------------------------------------------------
                    Distance matrix (angstroms):
                    1          2          3          4          5
     1  C    0.000000
     2  H    1.091006   0.000000
     3  H    1.091018   1.860103   0.000000
     4  C    1.337448   2.122523   2.122346   0.000000
     5  H    2.122292   2.478090   3.098440   1.091009   0.000000
     6  H    2.122082   3.098417   2.477456   1.091021   1.860595
     7  C    3.948098   4.126106   4.125353   4.101488   4.393817
     8  C    4.244167   4.578800   4.579216   3.960177   4.079393
     9  F    4.117507   4.430226   3.935484   4.487274   5.051325
    10  F    4.116778   3.935605   4.427549   4.488121   4.626246
    11  F    4.696979   5.283099   4.877891   4.215408   4.466809
    12  F    4.696034   4.875419   5.282688   4.215958   3.979322
                    6          7          8          9         10
     6  H    0.000000
     7  C    4.392899   0.000000
     8  C    4.079840   1.332703   0.000000
     9  F    4.623110   1.328256   2.342471   0.000000
    10  F    5.051205   1.328114   2.342531   2.218450   0.000000
    11  F    3.979289   2.342994   1.328502   2.794175   3.567871
    12  F    4.469220   2.342944   1.328633   3.567899   2.794203
                   11         12
    11  F    0.000000
    12  F    2.218806   0.000000
 Stoichiometry    C4H4F4
 Framework group  C1[X(C4H4F4)]
 Deg. of freedom    30
 Full point group                 C1      NOp   1
 Largest Abelian subgroup         C1      NOp   1
 Largest concise Abelian subgroup C1      NOp   1
                         Standard orientation:                         
 ---------------------------------------------------------------------
 Center     Atomic      Atomic             Coordinates (Angstroms)
 Number     Number       Type             X           Y           Z
 ---------------------------------------------------------------------
      1          6           0       -3.028470    0.510824   -0.001229
      2          1           0       -3.088598    1.076450   -0.932221
      3          1           0       -3.088655    1.079555    0.927879
      4          6           0       -2.889652   -0.819398    0.001205
      5          1           0       -2.830581   -1.388168   -0.927940
      6          1           0       -2.830553   -1.384415    0.932651
      7          6           0        0.914395    0.714042    0.000230
      8          6           0        1.064992   -0.610125   -0.000251
      9          9           0        0.826179    1.438713    1.109884
     10          9           0        0.826231    1.439773   -1.108565
     11          9           0        1.144558   -1.337264    1.108738
     12          9           0        1.144232   -1.336275   -1.110068
 ---------------------------------------------------------------------
 Rotational constants (GHZ):      1.8609422      1.1483586      0.9762918
 Standard basis: 6-311++G(d,p) (5D, 7F)
 There are   212 symmetry adapted cartesian basis functions of A   symmetry.
 There are   204 symmetry adapted basis functions of A   symmetry.
   204 basis functions,   324 primitive gaussians,   212 cartesian basis functions
    32 alpha electrons       32 beta electrons
       nuclear repulsion energy       369.5218951910 Hartrees.
 NAtoms=   12 NActive=   12 NUniq=   12 SFac= 1.00D+00 NAtFMM=   60 NAOKFM=F Big=F
 Integral buffers will be    131072 words long.
 Raffenetti 2 integral format.
 Two-electron integral symmetry is turned on.
 Nuclear repulsion after empirical dispersion term =      369.5151509479 Hartrees.
 One-electron integrals computed using PRISM.
 NBasis=   204 RedAO= T EigKep=  3.09D-05  NBF=   204
 NBsUse=   204 1.00D-06 EigRej= -1.00D+00 NBFU=   204
 Initial guess from the checkpoint file:  "c2h4-c2f4-diffg.chk"
 B after Tr=     0.000000    0.000000    0.000000
         Rot=    0.999999    0.000020   -0.000001   -0.001029 Ang=   0.12 deg.
 ExpMin= 3.60D-02 ExpMax= 1.14D+04 ExpMxC= 1.72D+03 IAcc=3 IRadAn=         5 AccDes= 0.00D+00
 Harris functional with IExCor= 3630 and IRadAn=       5 diagonalized for initial guess.
 HarFok:  IExCor= 3630 AccDes= 0.00D+00 IRadAn=         5 IDoV= 1 UseB2=F ITyADJ=14
 ICtDFT=  3500011 ScaDFX=  1.000000  1.000000  1.000000  1.000000
 FoFCou: FMM=F IPFlag=           0 FMFlag=      100000 FMFlg1=           0
         NFxFlg=           0 DoJE=T BraDBF=F KetDBF=T FulRan=T
         wScrn=  0.000000 ICntrl=     500 IOpCl=  0 I1Cent=   200000004 NGrid=           0
         NMat0=    1 NMatS0=      1 NMatT0=    0 NMatD0=    1 NMtDS0=    0 NMtDT0=    0
 Petite list used in FoFCou.
 Keep J ints in memory in canonical form, NReq=223612843.
 Requested convergence on RMS density matrix=1.00D-08 within 128 cycles.
 Requested convergence on MAX density matrix=1.00D-06.
 Requested convergence on             energy=1.00D-06.
 No special actions if energy rises.
 SCF Done:  E(RB97D) =  -553.978069197     A.U. after    8 cycles
            NFock=  8  Conv=0.78D-08     -V/T= 2.0028
 Calling FoFJK, ICntrl=      2527 FMM=F ISym2X=0 I1Cent= 0 IOpClX= 0 NMat=1 NMatS=1 NMatT=0.
 ***** Axes restored to original set *****
 -------------------------------------------------------------------
 Center     Atomic                   Forces (Hartrees/Bohr)
 Number     Number              X              Y              Z
 -------------------------------------------------------------------
      1        6          -0.000129931    0.000366780   -0.000086812
      2        1           0.000104813    0.000016320   -0.000087053
      3        1          -0.000022330    0.000022513    0.000149688
      4        6           0.000224425    0.000640379    0.000111767
      5        1          -0.000021379   -0.000035255   -0.000182461
      6        1          -0.000187889   -0.000040741    0.000076178
      7        6           0.000158202   -0.000269488   -0.000013678
      8        6          -0.000185973   -0.000116371   -0.000009092
      9        9           0.000239707   -0.000155802   -0.000410045
     10        9          -0.000243754   -0.000166220    0.000485863
     11        9           0.000251635   -0.000135682   -0.000424725
     12        9          -0.000187524   -0.000126435    0.000390369
 -------------------------------------------------------------------
 Cartesian Forces:  Max     0.000640379 RMS     0.000231935

 GradGradGradGradGradGradGradGradGradGradGradGradGradGradGradGradGradGrad
 Berny optimization.
 Using GEDIIS/GDIIS optimizer.
 FormGI is forming the generalized inverse of G from B-inverse, IUseBI=4.
 Internal  Forces:  Max     0.000469673 RMS     0.000142598
 Search for a local minimum.
 Step number   4 out of a maximum of   86
 All quantities printed in internal units (Hartrees-Bohrs-Radians)
 Mixed Optimization -- En-DIIS/RFO-DIIS
 Swapping is turned off.
 Update second derivatives using D2CorX and points    1    2    3    4
 DE= -5.59D-05 DEPred=-3.34D-05 R= 1.67D+00
 TightC=F SS=  1.41D+00  RLast= 8.61D-02 DXNew= 8.4853D-01 2.5817D-01
 Trust test= 1.67D+00 RLast= 8.61D-02 DXMaxT set to 5.05D-01
 ITU=  1  1  1  0
     Eigenvalues ---    0.00135   0.00776   0.02810   0.02964   0.04008
     Eigenvalues ---    0.04914   0.05203   0.05879   0.06623   0.06651
     Eigenvalues ---    0.08361   0.08575   0.08701   0.10439   0.12558
     Eigenvalues ---    0.12897   0.14748   0.15736   0.19370   0.19496
     Eigenvalues ---    0.34855   0.35891   0.37230   0.37824   0.51943
     Eigenvalues ---    0.53457   0.55004   0.55012   0.55021   0.55731
 En-DIIS/RFO-DIIS IScMMF=        0 using points:     4    3
 RFO step:  Lambda=-9.48431480D-06.
 DidBck=F Rises=F RFO-DIIS coefs:    3.26763   -2.26763
 Iteration  1 RMS(Cart)=  0.03636626 RMS(Int)=  0.00006732
 Iteration  2 RMS(Cart)=  0.00006431 RMS(Int)=  0.00003915
 Iteration  3 RMS(Cart)=  0.00000000 RMS(Int)=  0.00003915
 Variable       Old X    -DE/DX   Delta X   Delta X   Delta X     New X
                                 (Linear)    (Quad)   (Total)
    R1        2.06170  -0.00008   0.00170  -0.00035   0.00136   2.06306
    R2        2.06173  -0.00009   0.00162  -0.00037   0.00125   2.06298
    R3        2.52741  -0.00001  -0.00392   0.00012  -0.00382   2.52359
    R4        7.46082  -0.00044  -0.10125  -0.09150  -0.19272   7.26810
    R5        2.06171  -0.00005   0.00136  -0.00030   0.00103   2.06273
    R6        2.06173  -0.00006   0.00129  -0.00032   0.00093   2.06266
    R7        7.75069  -0.00020  -0.08752  -0.07813  -0.16565   7.58504
    R8        7.48365  -0.00022  -0.08389  -0.07760  -0.16151   7.32214
    R9        7.70894  -0.00007  -0.07533  -0.06897  -0.14429   7.56465
   R10        7.70978  -0.00006  -0.07535  -0.06883  -0.14416   7.56562
   R11        2.51844   0.00017  -0.00004  -0.00059  -0.00063   2.51781
   R12        2.51004   0.00040   0.00142  -0.00001   0.00141   2.51145
   R13        2.50977   0.00047   0.00206   0.00020   0.00226   2.51203
   R14        2.51051   0.00041   0.00199  -0.00004   0.00195   2.51246
   R15        2.51075   0.00034   0.00136  -0.00022   0.00114   2.51189
    A1        2.04137  -0.00008  -0.01580  -0.00025  -0.01605   2.02532
    A2        2.12107   0.00004   0.00691   0.00006   0.00696   2.12803
    A3        1.59947  -0.00004  -0.00024  -0.00131  -0.00156   1.59791
    A4        2.12075   0.00004   0.00888   0.00019   0.00907   2.12982
    A5        1.59874  -0.00005  -0.00046  -0.00140  -0.00190   1.59684
    A6        2.12067   0.00007   0.00723   0.00035   0.00763   2.12830
    A7        2.12029   0.00008   0.00923   0.00055   0.00981   2.13011
    A8        1.62191  -0.00007  -0.00346  -0.00365  -0.00702   1.61489
    A9        2.04223  -0.00015  -0.01646  -0.00091  -0.01745   2.02477
   A10        1.71579   0.00011   0.00662   0.00467   0.01138   1.72717
   A11        1.71488   0.00011   0.00686   0.00475   0.01171   1.72659
   A12        1.63254  -0.00001   0.00298   0.00209   0.00515   1.63769
   A13        1.53285  -0.00004  -0.00340  -0.00207  -0.00552   1.52733
   A14        1.53231  -0.00005  -0.00356  -0.00216  -0.00577   1.52654
   A15        1.71346  -0.00006  -0.00086  -0.00043  -0.00124   1.71222
   A16        1.71422  -0.00007  -0.00100  -0.00051  -0.00145   1.71276
   A17        2.15303  -0.00009   0.00287  -0.00106   0.00182   2.15485
   A18        2.15333  -0.00011   0.00181  -0.00120   0.00061   2.15393
   A19        1.97679   0.00020  -0.00471   0.00224  -0.00249   1.97430
   A20        1.60138  -0.00005  -0.00081  -0.00049  -0.00126   1.60012
   A21        1.60178  -0.00005  -0.00057  -0.00040  -0.00092   1.60087
   A22        0.46012  -0.00003   0.00251   0.00399   0.00659   0.46671
   A23        1.65256   0.00000   0.00005  -0.00042  -0.00036   1.65221
   A24        1.71392  -0.00003  -0.00147   0.00052  -0.00093   1.71299
   A25        1.33127  -0.00005  -0.00353  -0.00287  -0.00645   1.32482
   A26        1.65147   0.00000   0.00025  -0.00042  -0.00015   1.65133
   A27        1.33093  -0.00005  -0.00379  -0.00295  -0.00680   1.32414
   A28        1.71553  -0.00003  -0.00166   0.00055  -0.00109   1.71443
[...]
     Eigenvalues ---    0.30169   0.31999   0.33955   0.34082   0.37216
     Eigenvalues ---    0.38169   0.42666   0.47590   0.55328   0.60628
 Eigenvalue     1 is  -1.05D-04 should be greater than     0.000000 Eigenvector:
                          D7        D10       D9        D8        D12
   1                   -0.26746  -0.26667  -0.26660  -0.26634  -0.26581
                          D11       D18       D17       D14       D13
   1                   -0.26556  -0.25399  -0.25392  -0.21167  -0.21157
 Angle between quadratic step and forces=  78.83 degrees.
 Linear search not attempted -- first point.
 Iteration  1 RMS(Cart)=  0.00363293 RMS(Int)=  0.00000634
 Iteration  2 RMS(Cart)=  0.00000646 RMS(Int)=  0.00000292
 Iteration  3 RMS(Cart)=  0.00000000 RMS(Int)=  0.00000292
 Variable       Old X    -DE/DX   Delta X   Delta X   Delta X     New X
                                 (Linear)    (Quad)   (Total)
    R1        2.06103   0.00000   0.00000   0.00001   0.00001   2.06104
    R2        2.06104   0.00000   0.00000   0.00000   0.00000   2.06104
    R3        2.52661   0.00000   0.00000   0.00001   0.00001   2.52662
    R4        6.58918   0.00000   0.00000  -0.00009  -0.00009   6.58909
    R5        2.06161   0.00000   0.00000   0.00001   0.00002   2.06163
    R6        2.06160   0.00000   0.00000   0.00001   0.00002   2.06162
    R7        6.29941   0.00000   0.00000  -0.00036  -0.00036   6.29905
    R8        6.49225   0.00000   0.00000   0.00062   0.00062   6.49288
    R9        6.49107   0.00000   0.00000   0.00914   0.00914   6.50021
   R10        6.49436   0.00000   0.00000  -0.00803  -0.00803   6.48633
   R11        2.51797  -0.00001   0.00000  -0.00001  -0.00001   2.51796
   R12        2.50865  -0.00001   0.00000  -0.00002  -0.00002   2.50863
   R13        2.50855   0.00000   0.00000   0.00000   0.00000   2.50856
   R14        2.51272   0.00000   0.00000   0.00001   0.00001   2.51274
   R15        2.51272  -0.00001   0.00000  -0.00003  -0.00003   2.51269
    A1        2.04064   0.00000   0.00000   0.00002   0.00002   2.04067
    A2        2.12129   0.00000   0.00000  -0.00003  -0.00003   2.12126
    A3        1.73056   0.00000   0.00000   0.00211   0.00211   1.73267
    A4        2.12123   0.00000   0.00000   0.00001   0.00001   2.12124
    A5        1.72426   0.00000   0.00000  -0.00206  -0.00206   1.72220
    A6        2.12175   0.00000   0.00000   0.00001   0.00001   2.12176
    A7        2.12176   0.00000   0.00000  -0.00001  -0.00001   2.12175
    A8        1.88260   0.00000   0.00000   0.00010   0.00010   1.88270
    A9        2.03966   0.00000   0.00000   0.00001   0.00001   2.03967
   A10        1.61973   0.00000   0.00000   0.00215   0.00214   1.62188
   A11        1.61331   0.00000   0.00000  -0.00218  -0.00219   1.61112
   A12        1.84045   0.00000   0.00000   0.00043   0.00043   1.84088
   A13        1.42218   0.00000   0.00000  -0.00322  -0.00322   1.41896
   A14        1.41655   0.00000   0.00000   0.00282   0.00283   1.41938
   A15        1.63205   0.00000   0.00000  -0.00116  -0.00116   1.63088
   A16        1.63409   0.00000   0.00000   0.00080   0.00080   1.63489
   A17        2.15175   0.00000   0.00000  -0.00002  -0.00002   2.15173
   A18        2.15179   0.00000   0.00000   0.00004   0.00003   2.15182
   A19        1.97959   0.00000   0.00000  -0.00001  -0.00001   1.97958
   A20        1.71020   0.00000   0.00000  -0.00089  -0.00089   1.70931
   A21        1.71208   0.00000   0.00000   0.00122   0.00122   1.71330
   A22        0.54790   0.00000   0.00000  -0.00004  -0.00005   0.54786
   A23        1.47057   0.00000   0.00000  -0.00193  -0.00193   1.46864
   A24        1.84453   0.00000   0.00000   0.00061   0.00060   1.84513
   A25        1.39325   0.00000   0.00000   0.00150   0.00150   1.39475
   A26        1.46418   0.00000   0.00000   0.00120   0.00119   1.46538
   A27        1.39174   0.00000   0.00000  -0.00116  -0.00115   1.39059
   A28        1.85340   0.00000   0.00000  -0.00027  -0.00028   1.85312
   A29        2.15279   0.00000   0.00000  -0.00006  -0.00006   2.15272
   A30        2.15274   0.00000   0.00000   0.00008   0.00008   2.15281
   A31        1.97750   0.00000   0.00000  -0.00002  -0.00001   1.97749
    D1       -0.00616   0.00000   0.00000  -0.00008  -0.00008  -0.00623
    D2        3.14049   0.00000   0.00000   0.00000   0.00000   3.14048
    D3        1.56618   0.00000   0.00000   0.00510   0.00510   1.57127
    D4       -3.14039   0.00000   0.00000  -0.00001  -0.00001  -3.14040
    D5        0.00625   0.00000   0.00000   0.00007   0.00007   0.00632
    D6       -1.56806   0.00000   0.00000   0.00517   0.00517  -1.56289
    D7       -2.08776   0.00000   0.00000  -0.00599  -0.00599  -2.09375
    D8        2.06087   0.00000   0.00000  -0.00522  -0.00522   2.05566
    D9        0.04554   0.00000   0.00000  -0.00531  -0.00531   0.04023
   D10        2.11372   0.00000   0.00000  -0.00602  -0.00602   2.10771
   D11       -0.02083   0.00000   0.00000  -0.00524  -0.00525  -0.02607
   D12       -2.03617   0.00000   0.00000  -0.00534  -0.00533  -2.04150
   D13        3.12429   0.00000   0.00000  -0.00665  -0.00665   3.11764
   D14        1.13877   0.00000   0.00000  -0.00660  -0.00660   1.13217
   D15       -1.11583   0.00000   0.00000  -0.00665  -0.00665  -1.12248
   D16       -3.10135   0.00000   0.00000  -0.00660  -0.00660  -3.10795
   D17        2.15017   0.00000   0.00000  -0.00655  -0.00655   2.14362
   D18       -2.12498   0.00000   0.00000  -0.00650  -0.00650  -2.13148
   D19        0.26871   0.00000   0.00000   0.00333   0.00332   0.27203
   D20       -0.28218   0.00000   0.00000   0.00331   0.00332  -0.27886
   D21       -1.56414   0.00000   0.00000   0.00386   0.00387  -1.56027
   D22        1.55712   0.00000   0.00000   0.00377   0.00377   1.56089
   D23        1.83719   0.00000   0.00000  -0.00035  -0.00036   1.83683
   D24        1.28630   0.00000   0.00000  -0.00037  -0.00036   1.28594
   D25        0.00434   0.00000   0.00000   0.00019   0.00019   0.00453
   D26        3.12560   0.00000   0.00000   0.00009   0.00009   3.12569
   D27       -1.29288   0.00000   0.00000  -0.00043  -0.00044  -1.29332
   D28       -1.84377   0.00000   0.00000  -0.00045  -0.00044  -1.84421
   D29       -3.12573   0.00000   0.00000   0.00011   0.00011  -3.12562
   D30       -0.00447   0.00000   0.00000   0.00001   0.00001  -0.00445
         Item               Value     Threshold  Converged?
 Maximum Force            0.000009     0.000450     YES
 RMS     Force            0.000002     0.000300     YES
 Maximum Displacement     0.010335     0.001800     NO 
 RMS     Displacement     0.003633     0.001200     NO 
 Predicted change in Energy=-6.788597D-08
 GradGradGradGradGradGradGradGradGradGradGradGradGradGradGradGradGradGrad

 1\1\GINC-TC-NODE160\Freq\RB97D\6-311++G(d,p)\C4H4F4\MAXB2\10-Nov-2016\
 0\\#N Geom=AllCheck Guess=TCheck SCRF=Check GenChk RB97D/6-311++G(d,p)
  Freq\\Title\\0,1\C,0.0722868443,0.158869072,0.0453007838\H,0.08293168
 42,0.054565346,1.1309008772\H,1.0284605094,0.0590020159,-0.4697629923\
 C,-1.0593388969,0.4059925044,-0.6225184383\H,-2.0158588644,0.507074738
 5,-0.1076989957\H,-1.0703306274,0.5114179157,-1.708309104\C,-0.2933947
 231,3.6194232235,-0.1759174711\C,-1.4364624118,3.8143334956,-0.8323027
 961\F,0.883491107,3.5071230563,-0.7797665255\F,-0.2218168964,3.5059210
 154,1.1447521784\F,-1.511722661,3.9107499988,-2.1563414783\F,-2.618068
 0348,3.9094018281,-0.2299756153\\Version=ES64L-G09RevD.01\State=1-A\HF
 =-553.9788964\RMSD=6.747e-09\RMSF=4.647e-06\ZeroPoint=0.0706593\Therma
 l=0.0813221\Dipole=0.0374532,-0.0501948,0.0220859\DipoleDeriv=0.044878
 4,-0.0433034,-0.0545899,-0.0363115,-0.3213903,-0.0226293,-0.0546624,-0
 .0268191,0.1049458,0.0488294,0.0164644,0.014433,0.0131074,0.152407,0.0
 11544,-0.0175951,0.0297354,-0.098512,-0.06559,0.0331612,0.0454782,0.01
 55182,0.1526309,0.006666,0.0776186,0.0008789,0.0157315,0.0193318,-0.04
 37291,-0.0588272,-0.0434009,-0.2773409,-0.0267029,-0.0587168,-0.026981
 7,0.0837244,-0.0696371,0.0366342,0.042958,0.0347046,0.1510555,0.003406
 2,0.0722603,-0.0046187,0.0137155,0.0428072,0.0133744,0.0103423,0.01948
 86,0.1510409,0.0295978,-0.0191122,0.0353532,-0.0987193,1.1701149,-0.09
 84614,-0.1238405,-0.1490723,0.2144609,-0.0861308,-0.1238074,-0.0575255
 ,1.3127115,1.2481053,-0.2175586,-0.0954924,-0.0902722,0.0917239,-0.052
 6288,-0.0956834,-0.1258151,1.3593368,-0.9451955,0.0826634,0.1870372,0.
 0869428,-0.0951516,0.0007685,0.3338854,-0.0050663,-0.3203006,-0.252403
 4,0.0372206,-0.0702263,0.0446578,-0.0955328,0.0751898,-0.2169585,0.074
 6206,-1.0121206,-0.2680268,0.0426946,-0.0779313,0.030831,-0.0620137,0.
 0684182,-0.2307199,0.1389503,-1.032643,-0.9732142,0.1408397,0.1806589,
 0.0738065,-0.0618898,-0.0074988,0.3334915,-0.0327119,-0.3278698\Polar=
 62.4649163,-5.5280063,44.6445704,7.6806995,-3.2341508,53.7592519\Polar
 Deriv=1.6165835,0.212682,10.3695776,4.7186068,-0.2815567,0.8672628,-0.
 2689156,4.2046397,-6.2378411,-0.3229401,2.4699281,0.1402154,4.8531586,
 -0.289961,6.0961267,0.6370058,0.5874909,-3.3818948,1.432376,-0.4979154
 ,-0.1754992,0.9901385,-0.0717263,0.0232278,-0.3094753,0.0221734,0.2349
 946,-0.2756765,0.7799753,-0.7291809,1.0556236,-0.257297,0.7964239,1.37
 56627,-1.3754153,8.9061855,7.7949584,-1.2859846,0.6035923,-1.7232599,0
 .1813514,1.6376272,-0.8365936,0.6844997,0.2365135,0.0176765,-0.3560623
 ,-0.1689924,-2.9380202,0.3615546,-0.5347573,2.232939,-0.5608264,-0.601
 5939,-1.7325041,-0.8202849,-9.653315,-4.6321724,-0.0148956,-0.8336458,
 -0.5060051,-4.6601226,8.4787925,0.0067201,-2.7372925,-0.5567547,-4.704
 9588,-0.0105979,-5.6826763,-0.7095649,-0.8645115,3.1816452,-7.2778246,
 0.6415069,-0.5823907,1.7397394,-0.0069779,-1.5491109,0.4978224,-0.4841
 096,-0.0538096,-0.0370888,0.4211723,0.2485131,2.8165361,-0.1163728,0.5
 27717,-2.1630656,0.2432325,0.616947,-1.2967956,0.2827238,0.1856464,-0.
 9186219,0.0815473,0.0444571,0.2766563,0.1347356,-0.0391375,0.0850028,-
 0.6331916,0.5087079,-0.8976663,0.1962092,-0.7629342,-1.2000808,0.62886
 52,-8.4849024,5.1610749,0.1529165,6.7347548,3.2156472,0.0225843,0.3945
 742,0.5625947,6.1835897,-6.933933,0.2939983,3.5490811,0.2297334,2.0829
 805,0.0282286,3.8485404,2.3622236,0.1226238,1.0965816,-5.2765513,0.569
 2478,-7.5293224,-3.2488163,0.0836973,-0.4909107,0.6913161,-5.9400142,3
 .9794284,0.3926793,-3.4067033,0.2321728,-2.1692813,0.0774988,-4.318131
 5,-2.3667483,0.4744001,-1.1357905,6.1157925,-0.0713916,-0.3499009,-1.2
 876802,-0.0234479,1.7986316,-0.2916209,0.6222514,0.2645837,-0.1004592,
 -0.9748721,-0.3196308,-1.2678812,-0.3224042,-0.3796277,2.3795015,-0.29
 6872,-2.1303148,1.0299937,-0.3913316,-0.5167932,1.9638142,-0.1352017,0
 .0194466,-0.4048671,-0.5255102,0.2594971,-0.037023,1.0290464,-0.202806
 9,1.4550361,0.1655537,-0.1112845,0.2925893,0.0239928,7.0866568,-1.2180
 563,0.4082744,0.3990197,-2.122648,0.1449947,-0.1132892,0.1353468,0.462
 7488,-0.0910457,0.0814699,-1.0876468,0.4693328,-1.3958897,0.2507405,0.
 3575121,-0.3121145,0.7071911,-7.2565314,-6.3490471,0.7995566,0.5146307
 ,1.3052527,0.0196312,-1.7982706,0.4537413,-0.7048816,-0.0980429,-0.104
 3593,0.9465655,0.1486904,1.1103627,-0.0831524,0.1630914,-2.5283477,0.3
 098289,2.1030116\HyperPolar=7.028622,-16.538557,17.0250072,-71.2300214
 ,-1.3399838,-12.6160083,9.7539362,2.520631,-2.7318358,6.6403174\PG=C01
  [X(C4H4F4)]\NImag=0\\0.73616451,-0.10834361,0.12615155,0.07694562,-0.
 06532180,0.65075054,-0.05391873,0.00271087,0.00529358,0.04994185,0.002
 95259,-0.03692839,0.02591937,-0.00452449,0.02626116,0.00081474,0.02700
 685,-0.31874434,0.00162997,-0.03006127,0.33688428,-0.25454049,0.023957
 41,0.11145378,0.00285195,0.00019524,-0.00290546,0.27151566,0.02308810,
 -0.03673357,-0.00932256,-0.00231796,0.00255333,0.00148564,-0.02739249,
 0.02601866,0.11593941,-0.01005007,-0.11825964,0.02319189,-0.00264387,-
 0.00833279,-0.12056396,0.00989864,0.11547679,-0.41170920,0.07617350,-0
 .18064959,0.00306738,0.00007905,0.00277846,-0.01905971,0.00546447,-0.0
 1580638,0.73582108,0.07696386,-0.05865436,0.04556397,0.00293435,0.0041
 9855,0.00112933,0.00228319,0.00422722,0.00196081,-0.10876495,0.1249758
 3,-0.18065325,0.04510927,-0.21216467,-0.02800021,0.00618109,-0.0118450
 6,0.01497793,-0.00290938,0.01025103,0.07760228,-0.06553810,0.64967035,
 -0.01911615,0.00222998,0.01503998,0.00137331,-0.00152569,-0.00010889,-
 0.00201780,0.00257994,-0.00293259,-0.25383311,0.02397657,0.11100587,0.
 27089106,0.00551605,0.00404696,-0.00302080,-0.00151968,-0.00783572,-0.
 00085427,0.00257356,0.01162982,0.00173439,0.02341739,-0.03639616,-0.00
 937019,-0.02751969,0.02625565,-0.01573565,0.00195727,0.01031056,0.0001
 8574,-0.00098605,0.00132630,-0.00289984,0.00171651,-0.00039352,0.11539
 678,-0.01022036,-0.11802133,-0.12014288,0.01005099,0.11523654,0.003158
 64,0.00290067,-0.02801611,-0.00325000,0.00272278,-0.00221965,0.0013752
 4,-0.00156913,0.00018067,-0.05398791,0.00254449,0.00519427,0.00281491,
 -0.00219460,0.02320772,0.04995791,0.00000762,0.00401577,0.00628545,0.0
 0273468,0.01162858,0.00145602,-0.00146365,-0.00783111,-0.00095884,0.00
 304082,-0.03661240,0.02619146,0.00018369,0.00239862,-0.00249935,-0.004
 42084,0.02648440,0.00276159,0.00108110,-0.01193804,-0.00225188,0.00146
 866,0.00083831,-0.00011194,-0.00089121,0.00132119,0.00080478,0.0270732
 7,-0.31773112,-0.00289889,0.00140477,-0.00838032,0.00167673,-0.0302173
 2,0.33600221,-0.00012006,0.00043310,-0.00060205,-0.00006419,0.00005690
 ,0.00000738,-0.00062373,0.00081323,0.00033819,-0.00050113,-0.00012129,
 -0.00003961,-0.00069197,-0.00060193,0.00042551,0.00032872,-0.00013464,
 -0.00018424,0.82387252,0.00064833,-0.00149643,0.00038790,-0.00000078,-
 0.00010586,0.00008902,0.00008434,-0.00010889,-0.00004778,0.00050960,-0
 .00128895,0.00027903,0.00014521,0.00020961,-0.00015456,-0.00006606,0.0
 0020638,0.00020084,-0.11103560,0.10275416,-0.00062715,0.00023278,0.000
 53678,0.00004182,0.00090726,-0.00081704,0.00032142,-0.00038607,-0.0002
 4448,-0.00001176,-0.00008251,-0.00045688,0.00037829,0.00018565,0.00018
 508,-0.00015182,-0.00061711,-0.00082705,0.15784262,-0.06404947,0.63962
 981,-0.00082025,-0.00168891,0.00005347,0.00012964,0.00035527,-0.000047
 37,-0.00025663,0.00029758,0.00000876,0.00140585,-0.00013295,-0.0003893
 1,-0.00014912,-0.00041263,0.00045583,0.00007329,0.00031547,0.00035349,
 -0.42433328,0.07150861,-0.21362458,0.82291578,-0.00002540,-0.00062740,
 -0.00001492,-0.00000973,-0.00002651,-0.00001932,-0.00002127,-0.0000270
 3,0.00000024,0.00046974,-0.00095008,0.00027721,-0.00004204,-0.00028697
 ,-0.00002021,-0.00004067,-0.00027360,-0.00002988,0.06480909,-0.0319459
 1,0.03723532,-0.10328882,0.09620979,0.00007253,-0.00096954,-0.00089238
 ,-0.00021366,0.00013607,-0.00023282,0.00016296,0.00024499,0.00015026,-
 0.00042080,-0.00007900,0.00184282,0.00047336,0.00058548,-0.00036625,0.
 00035298,-0.00064633,-0.00060719,-0.21362568,0.04108386,-0.17496945,0.
 16066371,-0.05962058,0.63528813,0.00016258,0.00053733,0.00035055,0.000
 03189,-0.00000079,-0.00007389,0.00038595,-0.00047981,-0.00024185,-0.00
 031140,0.00047245,0.00001487,0.00042719,0.00025538,-0.00031380,-0.0002
 6301,-0.00000967,-0.00004292,-0.30270490,0.03057696,0.07711748,-0.0273
 4662,0.00101466,0.03965953,0.34307482,-0.00023614,-0.00002425,-0.00037
 409,-0.00001883,0.00006435,0.00003908,-0.00023172,0.00017282,0.0001385
 9,-0.00027029,0.00015501,0.00020777,-0.00008636,-0.00014423,0.00004114
 ,0.00008457,0.00001463,0.00000360,0.03214765,-0.03187108,-0.00533951,0
 .00247976,-0.00252893,-0.00597673,-0.03409491,0.02193446,0.00005398,-0
 .00000469,-0.00015010,-0.00006900,-0.00018301,0.00014734,-0.00020642,0
 .00026460,0.00000638,-0.00005172,-0.00025898,-0.00001814,-0.00019915,-
 0.00016441,0.00013455,0.00012946,0.00011591,0.00012616,0.09783571,-0.0
 0712798,-0.10109719,-0.00714728,0.00063052,-0.00013770,-0.13469681,0.0
 0923574,0.13612219,0.00009575,0.00027357,0.00010601,-0.00009769,0.0000
 0094,0.00006311,0.00006007,-0.00016030,-0.00008522,-0.00010453,0.00001
 083,-0.00017885,0.00005855,0.00008916,-0.00006604,-0.00001894,-0.00001
 281,0.00005648,-0.07614357,0.00925980,-0.03434906,0.00710215,0.0010846
 1,-0.02725180,0.00124108,-0.00330413,0.04536952,0.07144099,-0.00045134
 ,-0.00002572,-0.00003482,0.00001900,0.00016455,-0.00026684,0.00002298,
 0.00007277,-0.00002840,0.00005363,0.00016056,-0.00032138,0.00003863,0.
 00001337,0.00007343,-0.00000649,-0.00014062,-0.00009524,0.01161834,-0.
 03188582,0.03072910,-0.00393234,-0.00254681,0.00516249,-0.00167160,0.0
 0443537,-0.00279927,-0.00920666,0.02195680,0.00041106,0.00048801,-0.00
 007073,0.00000899,-0.00054643,0.00048677,-0.00008490,0.00007911,0.0001
 0878,-0.00012289,0.00054456,-0.00021885,-0.00021460,-0.00005873,-0.000
 21075,-0.00006670,0.00030160,0.00057202,-0.05506272,0.03025135,-0.3276
 9327,0.01954780,0.00059460,-0.03458792,0.03031032,0.00002687,-0.042914
 85,0.02381029,-0.03447088,0.40781148,0.00010546,0.00013787,0.00004022,
 -0.00000222,-0.00007671,0.00003231,0.00004714,-0.00006816,0.00000411,-
 0.00005694,0.00001579,0.00004261,-0.00001089,0.00005957,-0.00010076,-0
 .00010326,-0.00004924,0.00000445,0.00721352,0.00055573,-0.02716911,-0.
 07622632,0.00812482,-0.03509082,0.00077643,-0.00013890,-0.00241166,-0.
 00438104,0.00228090,-0.00505654,0.07123515,-0.00008043,0.00013564,-0.0
 0000168,0.00001306,0.00001692,-0.00000409,-0.00000997,0.00000940,-0.00
 001714,0.00001886,0.00009229,-0.00022620,-0.00001711,0.00006138,0.0000
 6619,-0.00000813,0.00005005,0.00004733,-0.00209572,-0.00223442,0.00598
 432,0.00962969,-0.02851892,0.02347695,0.00036465,-0.00243469,-0.000514
 34,0.00222287,0.01022640,0.00223796,-0.00820633,0.01889150,0.00023022,
 0.00070899,0.00053242,0.00011496,-0.00025087,0.00026198,-0.00002422,-0
 .00023960,-0.00008377,0.00004868,-0.00021687,-0.00098760,-0.00020077,-
 0.00024519,0.00004913,-0.00022938,0.00041055,0.00048326,0.02072208,-0.
 00279183,-0.03383631,-0.05679992,0.02786024,-0.32585218,-0.01349978,0.
 00149338,0.01002159,-0.00507965,0.00293958,-0.01333218,0.02446260,-0.0
 2912347,0.40539446,0.00053795,0.00067823,-0.00001547,-0.00006318,-0.00
 023507,0.00002930,0.00026235,-0.00025548,-0.00003303,-0.00073038,-0.00
 018234,0.00042340,0.00025403,0.00033742,-0.00041262,-0.00008558,-0.000
 19144,-0.00016764,-0.02623192,-0.00218612,0.04023185,-0.30249449,0.027
 92502,0.07521768,-0.01547402,0.00366930,0.00139336,0.00074717,0.001234
 95,-0.01348013,0.00140299,-0.00183144,0.03025518,0.34187508,-0.0000396
 3,0.00014019,-0.00006602,-0.00002047,0.00000905,-0.00000016,0.00000239
 ,0.00001659,0.00001343,-0.00019183,0.00009247,0.00011939,0.00003688,0.
 00004768,-0.00002499,0.00005341,0.00005930,-0.00004593,0.00411087,-0.0
 0223279,-0.00479975,0.02486928,-0.02847764,-0.00339765,0.00303536,0.01
 022654,0.00080592,-0.00025788,-0.00243086,0.00055197,-0.00263534,0.003
 70444,-0.00054492,-0.02896304,0.01884503,-0.00021310,-0.00023818,0.000
 08960,0.00006779,0.00005904,0.00002706,-0.00011935,0.00005933,-0.00000
 023,0.00043216,0.00012389,-0.00032054,-0.00019974,-0.00024769,0.000130
 01,-0.00005817,0.00017795,0.00014057,-0.00765721,0.00187960,-0.0004100
 1,0.09692539,-0.00689322,-0.09963532,0.00141629,0.00050415,-0.00224023
 ,-0.00239478,-0.00088776,0.01004949,0.04524260,-0.00192582,-0.04265081
 ,-0.13344187,0.00738870,0.13482040\\-0.00000121,0.00000807,0.00000218,
 0.00000413,0.00000271,0.00000086,0.00000286,0.00000219,0.00000533,0.00
 000338,-0.00000578,-0.00000069,0.00000651,-0.00000002,-0.00000216,0.00
 000415,-0.00000297,0.00000593,0.00000356,0.00000076,0.00000678,-0.0000
 0972,-0.00000729,-0.00000959,0.00000035,0.00000311,-0.00000593,-0.0000
 0474,0.00000348,0.00000054,-0.00000147,-0.00000190,-0.00000550,-0.0000
 0780,-0.00000236,0.00000223\\\@


 EDUCATION WITHOUT COMMON SENSE IS A LOAD OF BOOKS ON THE BACK OF AN ASS.
 Job cpu time:       0 days  0 hours 20 minutes  4.6 seconds.
 File lengths (MBytes):  RWF=     61 Int=      0 D2E=      0 Chk=      5 Scr=      1
 Normal termination of Gaussian 09 at Thu Nov 10 13:00:56 2016.
