 Entering Gaussian System, Link 0=g09
 Initial command:
 /cluster/software/gaussian/gaussian-09-D.01/g09/l1.exe "/local/scratch/epktb/Gau-22282.inp" -scrdir="/local/scratch/epktb/"
 Entering Link 1 = /cluster/software/gaussian/gaussian-09-D.01/g09/l1.exe PID=     22283.
  
 Copyright (c) 1988,1990,1992,1993,1995,1998,2003,2009,2013,
            Gaussian, Inc.  All Rights Reserved.
  
 This is part of the Gaussian(R) 09 program.  It is based on
 the Gaussian(R) 03 system (copyright 2003, Gaussian, Inc.),
 the Gaussian(R) 98 system (copyright 1998, Gaussian, Inc.),
 the Gaussian(R) 94 system (copyright 1995, Gaussian, Inc.),
 the Gaussian 92(TM) system (copyright 1992, Gaussian, Inc.),
 the Gaussian 90(TM) system (copyright 1990, Gaussian, Inc.),
 the Gaussian 88(TM) system (copyright 1988, Gaussian, Inc.),
 the Gaussian 86(TM) system (copyright 1986, Carnegie Mellon
 University), and the Gaussian 82(TM) system (copyright 1983,
 Carnegie Mellon University). Gaussian is a federally registered
 trademark of Gaussian, Inc.
  
 This software contains proprietary and confidential information,
 including trade secrets, belonging to Gaussian, Inc.
  
 This software is provided under written license and may be
 used, copied, transmitted, or stored only in accord with that
 written license.
  
 The following legend is applicable only to US Government
 contracts under FAR:
  
                    RESTRICTED RIGHTS LEGEND
  
 Use, reproduction and disclosure by the US Government is
 subject to restrictions as set forth in subparagraphs (a)
 and (c) of the Commercial Computer Software - Restricted
 Rights clause in FAR 52.227-19.
  
 Gaussian, Inc.
 340 Quinnipiac St., Bldg. 40, Wallingford CT 06492
  
  
 ---------------------------------------------------------------
 Warning -- This program may not be used in any manner that
 competes with the business of Gaussian, Inc. or will provide
 assistance to any competitor of Gaussian, Inc.  The licensee
 of this program is prohibited from giving any competitor of
 Gaussian, Inc. access to this program.  By using this program,
 the user acknowledges that Gaussian, Inc. is engaged in the
 business of creating and licensing software in the field of
 computational chemistry and represents and warrants to the
 licensee that it is not a competitor of Gaussian, Inc. and that
 it will not use this program in any manner prohibited above.
 ---------------------------------------------------------------
  

 Cite this work as:
 Gaussian 09, Revision D.01,
 M. J. Frisch, G. W. Trucks, H. B. Schlegel, G. E. Scuseria, 
 M. A. Robb, J. R. Cheeseman, G. Scalmani, V. Barone, B. Mennucci, 
 G. A. Petersson, H. Nakatsuji, M. Caricato, X. Li, H. P. Hratchian, 
 A. F. Izmaylov, J. Bloino, G. Zheng, J. L. Sonnenberg, M. Hada, 
 M. Ehara, K. Toyota, R. Fukuda, J. Hasegawa, M. Ishida, T. Nakajima, 
 Y. Honda, O. Kitao, H. Nakai, T. Vreven, J. A. Montgomery, Jr., 
 J. E. Peralta, F. Ogliaro, M. Bearpark, J. J. Heyd, E. Brothers, 
 K. N. Kudin, V. N. Staroverov, T. Keith, R. Kobayashi, J. Normand, 
 K. Raghavachari, A. Rendell, J. C. Burant, S. S. Iyengar, J. Tomasi, 
 M. Cossi, N. Rega, J. M. Millam, M. Klene, J. E. Knox, J. B. Cross, 
 V. Bakken, C. Adamo, J. Jaramillo, R. Gomperts, R. E. Stratmann, 
 O. Yazyev, A. J. Austin, R. Cammi, C. Pomelli, J. W. Ochterski, 
 R. L. Martin, K. Morokuma, V. G. Zakrzewski, G. A. Voth, 
 P. Salvador, J. J. Dannenberg, S. Dapprich, A. D. Daniels, 
 O. Farkas, J. B. Foresman, J. V. Ortiz, J. Cioslowski, 
 and D. J. Fox, Gaussian, Inc., Wallingford CT, 2013.
 
 ******************************************
 Gaussian 09:  ES64L-G09RevD.01 24-Apr-2013
                 8-Nov-2016 
 ******************************************
 %nprocshared=8
 Will use up to    8 processors via shared memory.
 %mem=40GB
 %oldchk=c2h4-c2f4
 %chk=c2h4f4-td1
 Copying data from "c2h4-c2f4.chk" to current chk file "c2h4f4-td1.chk".
 -----------------------------------------------------------------
 # td=(singlet,nstates=10,root=1) b3lyp/aug-cc-pvtz geom=check gfp
 -----------------------------------------------------------------
 1/29=2,38=1/1;
 2/12=2,40=1/2;
 3/5=16,6=1,7=10,11=9,14=-4,16=1,24=100,25=1,30=1,74=-5/1,2,8,3;
 4//1;
 5/5=2,38=5/2;
 8/6=1,10=1,107=1,108=10/1;
 9/8=1,41=10,42=1,48=1,70=2/14;
 6/7=2,8=2,9=2,10=2/1;
 99/5=1,9=1/99;
 -----
 Title
 -----
 Structure from the checkpoint file:  "c2h4f4-td1.chk"
 Charge =  0 Multiplicity = 1
 Redundant internal coordinates found in file.
 C,0,-0.0110011707,-0.0006908479,-0.0074338249
 H,0,0.0172177338,-0.0032348228,1.0747005437
 H,0,0.944476881,-0.0026355333,-0.516232753
 C,0,-1.1558653132,0.0012868503,-0.6747081781
 H,0,-2.1112411914,0.0001840391,-0.1656780376
 H,0,-1.1837983633,0.0008689429,-1.7568719612
 C,0,-0.2055936506,3.9939955935,-0.1214388024
 C,0,-1.3474739398,3.9990767409,-0.7836124474
 F,0,0.9760297482,3.9882151778,-0.7086016155
 F,0,-0.1281943566,3.9880383543,1.1957201346
 F,0,-1.4249777018,3.9995893828,-2.1010538188
 F,0,-2.5294016464,3.9991803325,-0.1964288162
 Recover connectivity data from disk.
                          Input orientation:                          
 ---------------------------------------------------------------------
 Center     Atomic      Atomic             Coordinates (Angstroms)
 Number     Number       Type             X           Y           Z
 ---------------------------------------------------------------------
      1          6           0       -0.011001   -0.000691   -0.007434
      2          1           0        0.017218   -0.003235    1.074701
      3          1           0        0.944477   -0.002636   -0.516233
      4          6           0       -1.155865    0.001287   -0.674708
      5          1           0       -2.111241    0.000184   -0.165678
      6          1           0       -1.183798    0.000869   -1.756872
      7          6           0       -0.205594    3.993996   -0.121439
      8          6           0       -1.347474    3.999077   -0.783612
      9          9           0        0.976030    3.988215   -0.708602
     10          9           0       -0.128194    3.988038    1.195720
     11          9           0       -1.424978    3.999589   -2.101054
     12          9           0       -2.529402    3.999180   -0.196429
 ---------------------------------------------------------------------
                    Distance matrix (angstroms):
                    1          2          3          4          5
     1  C    0.000000
     2  H    1.082505   0.000000
     3  H    1.082506   1.841434   0.000000
     4  C    1.325131   2.106318   2.106316   0.000000
     5  H    2.106193   2.463511   3.075762   1.082523   0.000000
     6  H    2.106179   3.075753   2.463484   1.082524   1.841752
     7  C    4.001048   4.178307   4.177509   4.141358   4.425379
     8  C    4.287978   4.618897   4.619332   4.003860   4.117806
     9  F    4.168601   4.475618   3.995609   4.521252   5.072514
    10  F    4.167886   3.995754   4.472906   4.522035   4.657130
    11  F    4.731259   5.309232   4.913632   4.253623   4.495762
    12  F    4.730437   4.911249   5.308920   4.254234   4.020917
                    6          7          8          9         10
     6  H    0.000000
     7  C    4.424544   0.000000
     8  C    4.118214   1.319996   0.000000
     9  F    4.654316   1.319480   2.324740   0.000000
    10  F    5.072437   1.319445   2.324763   2.201307   0.000000
    11  F    4.020745   2.325039   1.319719   2.775588   3.542668
    12  F    4.498013   2.325023   1.319749   3.542667   2.775608
                   11         12
    11  F    0.000000
    12  F    2.201670   0.000000
 Stoichiometry    C4H4F4
 Framework group  C1[X(C4H4F4)]
 Deg. of freedom    30
 Full point group                 C1      NOp   1
 Largest Abelian subgroup         C1      NOp   1
 Largest concise Abelian subgroup C1      NOp   1
                         Standard orientation:                         
 ---------------------------------------------------------------------
 Center     Atomic      Atomic             Coordinates (Angstroms)
 Number     Number       Type             X           Y           Z
 ---------------------------------------------------------------------
      1          6           0       -3.066150    0.516174   -0.001165
      2          1           0       -3.127140    1.080555   -0.922887
      3          1           0       -3.127125    1.083832    0.918544
      4          6           0       -2.927430   -0.801675    0.001181
      5          1           0       -2.869507   -1.369444   -0.918677
      6          1           0       -2.869410   -1.366131    0.923072
      7          6           0        0.930482    0.704100    0.000277
      8          6           0        1.071758   -0.608314   -0.000290
      9          9           0        0.849543    1.426768    1.101289
     10          9           0        0.849555    1.427796   -1.100018
     11          9           0        1.147294   -1.332803    1.100196
     12          9           0        1.147076   -1.331819   -1.101474
 ---------------------------------------------------------------------
 Rotational constants (GHZ):      1.8874758      1.1303375      0.9647052
 Standard basis: Aug-CC-pVTZ (5D, 7F)
 AO basis set (Overlap normalization):
 Atom C1       Shell     1 S   7     bf    1 -     1         -5.794182863169          0.975426787063         -0.002201808326
      0.8236000000D+04  0.5419783203D-03
      0.1235000000D+04  0.4192873817D-02
      0.2808000000D+03  0.2152216205D-01
      0.7927000000D+02  0.8353432195D-01
      0.2559000000D+02  0.2395828457D+00
      0.8997000000D+01  0.4428528419D+00
      0.3319000000D+01  0.3517995618D+00
 Atom C1       Shell     2 S   6     bf    2 -     2         -5.794182863169          0.975426787063         -0.002201808326
      0.2808000000D+03 -0.5949224937D-04
      0.7927000000D+02 -0.1148158310D-02
      0.2559000000D+02 -0.1001913745D-01
      0.8997000000D+01 -0.6121949230D-01
      0.3319000000D+01 -0.1732698541D+00
      0.3643000000D+00  0.1072915192D+01
 Atom C1       Shell     3 S   1     bf    3 -     3         -5.794182863169          0.975426787063         -0.002201808326
      0.9059000000D+00  0.1000000000D+01
 Atom C1       Shell     4 S   1     bf    4 -     4         -5.794182863169          0.975426787063         -0.002201808326
      0.1285000000D+00  0.1000000000D+01
 Atom C1       Shell     5 S   1     bf    5 -     5         -5.794182863169          0.975426787063         -0.002201808326
      0.4402000000D-01  0.1000000000D+01
 Atom C1       Shell     6 P   3     bf    6 -     8         -5.794182863169          0.975426787063         -0.002201808326
      0.1871000000D+02  0.3942638716D-01
      0.4133000000D+01  0.2440889849D+00
      0.1200000000D+01  0.8154920089D+00
 Atom C1       Shell     7 P   1     bf    9 -    11         -5.794182863169          0.975426787063         -0.002201808326
      0.3827000000D+00  0.1000000000D+01
 Atom C1       Shell     8 P   1     bf   12 -    14         -5.794182863169          0.975426787063         -0.002201808326
      0.1209000000D+00  0.1000000000D+01
 Atom C1       Shell     9 P   1     bf   15 -    17         -5.794182863169          0.975426787063         -0.002201808326
      0.3569000000D-01  0.1000000000D+01
 Atom C1       Shell    10 D   1     bf   18 -    22         -5.794182863169          0.975426787063         -0.002201808326
      0.1097000000D+01  0.1000000000D+01
 Atom C1       Shell    11 D   1     bf   23 -    27         -5.794182863169          0.975426787063         -0.002201808326
      0.3180000000D+00  0.1000000000D+01
 Atom C1       Shell    12 D   1     bf   28 -    32         -5.794182863169          0.975426787063         -0.002201808326
      0.1000000000D+00  0.1000000000D+01
 Atom C1       Shell    13 F   1     bf   33 -    39         -5.794182863169          0.975426787063         -0.002201808326
      0.7610000000D+00  0.1000000000D+01
 Atom C1       Shell    14 F   1     bf   40 -    46         -5.794182863169          0.975426787063         -0.002201808326
      0.2680000000D+00  0.1000000000D+01
 Atom H2       Shell    15 S   3     bf   47 -    47         -5.909437787740          2.041952999784         -1.744003945059
      0.3387000000D+02  0.2549486323D-01
      0.5095000000D+01  0.1903627659D+00
      0.1159000000D+01  0.8521620222D+00
 Atom H2       Shell    16 S   1     bf   48 -    48         -5.909437787740          2.041952999784         -1.744003945059
      0.3258000000D+00  0.1000000000D+01
 Atom H2       Shell    17 S   1     bf   49 -    49         -5.909437787740          2.041952999784         -1.744003945059
      0.1027000000D+00  0.1000000000D+01
 Atom H2       Shell    18 S   1     bf   50 -    50         -5.909437787740          2.041952999784         -1.744003945059
      0.2526000000D-01  0.1000000000D+01
 Atom H2       Shell    19 P   1     bf   51 -    53         -5.909437787740          2.041952999784         -1.744003945059
      0.1407000000D+01  0.1000000000D+01
 Atom H2       Shell    20 P   1     bf   54 -    56         -5.909437787740          2.041952999784         -1.744003945059
      0.3880000000D+00  0.1000000000D+01
 Atom H2       Shell    21 P   1     bf   57 -    59         -5.909437787740          2.041952999784         -1.744003945059
      0.1020000000D+00  0.1000000000D+01
 Atom H2       Shell    22 D   1     bf   60 -    64         -5.909437787740          2.041952999784         -1.744003945059
      0.1057000000D+01  0.1000000000D+01
 Atom H2       Shell    23 D   1     bf   65 -    69         -5.909437787740          2.041952999784         -1.744003945059
      0.2470000000D+00  0.1000000000D+01
 Atom H3       Shell    24 S   3     bf   70 -    70         -5.909409370912          2.048145456876          1.735796221520
      0.3387000000D+02  0.2549486323D-01
      0.5095000000D+01  0.1903627659D+00
      0.1159000000D+01  0.8521620222D+00
 Atom H3       Shell    25 S   1     bf   71 -    71         -5.909409370912          2.048145456876          1.735796221520
      0.3258000000D+00  0.1000000000D+01
 Atom H3       Shell    26 S   1     bf   72 -    72         -5.909409370912          2.048145456876          1.735796221520
      0.1027000000D+00  0.1000000000D+01
 Atom H3       Shell    27 S   1     bf   73 -    73         -5.909409370912          2.048145456876          1.735796221520
      0.2526000000D-01  0.1000000000D+01
 Atom H3       Shell    28 P   1     bf   74 -    76         -5.909409370912          2.048145456876          1.735796221520
      0.1407000000D+01  0.1000000000D+01
 Atom H3       Shell    29 P   1     bf   77 -    79         -5.909409370912          2.048145456876          1.735796221520
      0.3880000000D+00  0.1000000000D+01
 Atom H3       Shell    30 P   1     bf   80 -    82         -5.909409370912          2.048145456876          1.735796221520
      0.1020000000D+00  0.1000000000D+01
 Atom H3       Shell    31 D   1     bf   83 -    87         -5.909409370912          2.048145456876          1.735796221520
      0.1057000000D+01  0.1000000000D+01
 Atom H3       Shell    32 D   1     bf   88 -    92         -5.909409370912          2.048145456876          1.735796221520
      0.2470000000D+00  0.1000000000D+01
 Atom C4       Shell    33 S   7     bf   93 -    93         -5.532041310624         -1.514945711515          0.002232317315
      0.8236000000D+04  0.5419783203D-03
      0.1235000000D+04  0.4192873817D-02
      0.2808000000D+03  0.2152216205D-01
      0.7927000000D+02  0.8353432195D-01
      0.2559000000D+02  0.2395828457D+00
      0.8997000000D+01  0.4428528419D+00
      0.3319000000D+01  0.3517995618D+00
 Atom C4       Shell    34 S   6     bf   94 -    94         -5.532041310624         -1.514945711515          0.002232317315
      0.2808000000D+03 -0.5949224937D-04
      0.7927000000D+02 -0.1148158310D-02
      0.2559000000D+02 -0.1001913745D-01
      0.8997000000D+01 -0.6121949230D-01
      0.3319000000D+01 -0.1732698541D+00
      0.3643000000D+00  0.1072915192D+01
 Atom C4       Shell    35 S   1     bf   95 -    95         -5.532041310624         -1.514945711515          0.002232317315
      0.9059000000D+00  0.1000000000D+01
 Atom C4       Shell    36 S   1     bf   96 -    96         -5.532041310624         -1.514945711515          0.002232317315
      0.1285000000D+00  0.1000000000D+01
 Atom C4       Shell    37 S   1     bf   97 -    97         -5.532041310624         -1.514945711515          0.002232317315
      0.4402000000D-01  0.1000000000D+01
 Atom C4       Shell    38 P   3     bf   98 -   100         -5.532041310624         -1.514945711515          0.002232317315
      0.1871000000D+02  0.3942638716D-01
      0.4133000000D+01  0.2440889849D+00
      0.1200000000D+01  0.8154920089D+00
 Atom C4       Shell    39 P   1     bf  101 -   103         -5.532041310624         -1.514945711515          0.002232317315
      0.3827000000D+00  0.1000000000D+01
 Atom C4       Shell    40 P   1     bf  104 -   106         -5.532041310624         -1.514945711515          0.002232317315
      0.1209000000D+00  0.1000000000D+01
 Atom C4       Shell    41 P   1     bf  107 -   109         -5.532041310624         -1.514945711515          0.002232317315
      0.3569000000D-01  0.1000000000D+01
 Atom C4       Shell    42 D   1     bf  110 -   114         -5.532041310624         -1.514945711515          0.002232317315
      0.1097000000D+01  0.1000000000D+01
 Atom C4       Shell    43 D   1     bf  115 -   119         -5.532041310624         -1.514945711515          0.002232317315
      0.3180000000D+00  0.1000000000D+01
 Atom C4       Shell    44 D   1     bf  120 -   124         -5.532041310624         -1.514945711515          0.002232317315
      0.1000000000D+00  0.1000000000D+01
 Atom C4       Shell    45 F   1     bf  125 -   131         -5.532041310624         -1.514945711515          0.002232317315
      0.7610000000D+00  0.1000000000D+01
 Atom C4       Shell    46 F   1     bf  132 -   138         -5.532041310624         -1.514945711515          0.002232317315
      0.2680000000D+00  0.1000000000D+01
 Atom H5       Shell    47 S   3     bf  139 -   139         -5.422582820171         -2.587874425321         -1.736047430649
      0.3387000000D+02  0.2549486323D-01
      0.5095000000D+01  0.1903627659D+00
      0.1159000000D+01  0.8521620222D+00
 Atom H5       Shell    48 S   1     bf  140 -   140         -5.422582820171         -2.587874425321         -1.736047430649
      0.3258000000D+00  0.1000000000D+01
 Atom H5       Shell    49 S   1     bf  141 -   141         -5.422582820171         -2.587874425321         -1.736047430649
      0.1027000000D+00  0.1000000000D+01
 Atom H5       Shell    50 S   1     bf  142 -   142         -5.422582820171         -2.587874425321         -1.736047430649
      0.2526000000D-01  0.1000000000D+01
 Atom H5       Shell    51 P   1     bf  143 -   145         -5.422582820171         -2.587874425321         -1.736047430649
      0.1407000000D+01  0.1000000000D+01
 Atom H5       Shell    52 P   1     bf  146 -   148         -5.422582820171         -2.587874425321         -1.736047430649
      0.3880000000D+00  0.1000000000D+01
 Atom H5       Shell    53 P   1     bf  149 -   151         -5.422582820171         -2.587874425321         -1.736047430649
      0.1020000000D+00  0.1000000000D+01
 Atom H5       Shell    54 D   1     bf  152 -   156         -5.422582820171         -2.587874425321         -1.736047430649
      0.1057000000D+01  0.1000000000D+01
 Atom H5       Shell    55 D   1     bf  157 -   161         -5.422582820171         -2.587874425321         -1.736047430649
      0.2470000000D+00  0.1000000000D+01
 Atom H6       Shell    56 S   3     bf  162 -   162         -5.422399023134         -2.581612619669          1.744352965351
      0.3387000000D+02  0.2549486323D-01
      0.5095000000D+01  0.1903627659D+00
      0.1159000000D+01  0.8521620222D+00
 Atom H6       Shell    57 S   1     bf  163 -   163         -5.422399023134         -2.581612619669          1.744352965351
      0.3258000000D+00  0.1000000000D+01
 Atom H6       Shell    58 S   1     bf  164 -   164         -5.422399023134         -2.581612619669          1.744352965351
      0.1027000000D+00  0.1000000000D+01
 Atom H6       Shell    59 S   1     bf  165 -   165         -5.422399023134         -2.581612619669          1.744352965351
      0.2526000000D-01  0.1000000000D+01
 Atom H6       Shell    60 P   1     bf  166 -   168         -5.422399023134         -2.581612619669          1.744352965351
      0.1407000000D+01  0.1000000000D+01
 Atom H6       Shell    61 P   1     bf  169 -   171         -5.422399023134         -2.581612619669          1.744352965351
      0.3880000000D+00  0.1000000000D+01
 Atom H6       Shell    62 P   1     bf  172 -   174         -5.422399023134         -2.581612619669          1.744352965351
      0.1020000000D+00  0.1000000000D+01
 Atom H6       Shell    63 D   1     bf  175 -   179         -5.422399023134         -2.581612619669          1.744352965351
      0.1057000000D+01  0.1000000000D+01
 Atom H6       Shell    64 D   1     bf  180 -   184         -5.422399023134         -2.581612619669          1.744352965351
      0.2470000000D+00  0.1000000000D+01
 Atom C7       Shell    65 S   7     bf  185 -   185          1.758356442045          1.330556411714          0.000522531025
      0.8236000000D+04  0.5419783203D-03
      0.1235000000D+04  0.4192873817D-02
      0.2808000000D+03  0.2152216205D-01
      0.7927000000D+02  0.8353432195D-01
      0.2559000000D+02  0.2395828457D+00
      0.8997000000D+01  0.4428528419D+00
      0.3319000000D+01  0.3517995618D+00
 Atom C7       Shell    66 S   6     bf  186 -   186          1.758356442045          1.330556411714          0.000522531025
      0.2808000000D+03 -0.5949224937D-04
      0.7927000000D+02 -0.1148158310D-02
      0.2559000000D+02 -0.1001913745D-01
      0.8997000000D+01 -0.6121949230D-01
      0.3319000000D+01 -0.1732698541D+00
      0.3643000000D+00  0.1072915192D+01
 Atom C7       Shell    67 S   1     bf  187 -   187          1.758356442045          1.330556411714          0.000522531025
      0.9059000000D+00  0.1000000000D+01
 Atom C7       Shell    68 S   1     bf  188 -   188          1.758356442045          1.330556411714          0.000522531025
      0.1285000000D+00  0.1000000000D+01
 Atom C7       Shell    69 S   1     bf  189 -   189          1.758356442045          1.330556411714          0.000522531025
      0.4402000000D-01  0.1000000000D+01
 Atom C7       Shell    70 P   3     bf  190 -   192          1.758356442045          1.330556411714          0.000522531025
      0.1871000000D+02  0.3942638716D-01
      0.4133000000D+01  0.2440889849D+00
      0.1200000000D+01  0.8154920089D+00
 Atom C7       Shell    71 P   1     bf  193 -   195          1.758356442045          1.330556411714          0.000522531025
      0.3827000000D+00  0.1000000000D+01
 Atom C7       Shell    72 P   1     bf  196 -   198          1.758356442045          1.330556411714          0.000522531025
      0.1209000000D+00  0.1000000000D+01
 Atom C7       Shell    73 P   1     bf  199 -   201          1.758356442045          1.330556411714          0.000522531025
      0.3569000000D-01  0.1000000000D+01
 Atom C7       Shell    74 D   1     bf  202 -   206          1.758356442045          1.330556411714          0.000522531025
      0.1097000000D+01  0.1000000000D+01
 Atom C7       Shell    75 D   1     bf  207 -   211          1.758356442045          1.330556411714          0.000522531025
      0.3180000000D+00  0.1000000000D+01
 Atom C7       Shell    76 D   1     bf  212 -   216          1.758356442045          1.330556411714          0.000522531025
      0.1000000000D+00  0.1000000000D+01
 Atom C7       Shell    77 F   1     bf  217 -   223          1.758356442045          1.330556411714          0.000522531025
      0.7610000000D+00  0.1000000000D+01
 Atom C7       Shell    78 F   1     bf  224 -   230          1.758356442045          1.330556411714          0.000522531025
      0.2680000000D+00  0.1000000000D+01
 Atom C8       Shell    79 S   7     bf  231 -   231          2.025329437655         -1.149547057235         -0.000548093642
      0.8236000000D+04  0.5419783203D-03
      0.1235000000D+04  0.4192873817D-02
      0.2808000000D+03  0.2152216205D-01
      0.7927000000D+02  0.8353432195D-01
      0.2559000000D+02  0.2395828457D+00
      0.8997000000D+01  0.4428528419D+00
      0.3319000000D+01  0.3517995618D+00
 Atom C8       Shell    80 S   6     bf  232 -   232          2.025329437655         -1.149547057235         -0.000548093642
      0.2808000000D+03 -0.5949224937D-04
      0.7927000000D+02 -0.1148158310D-02
      0.2559000000D+02 -0.1001913745D-01
      0.8997000000D+01 -0.6121949230D-01
      0.3319000000D+01 -0.1732698541D+00
      0.3643000000D+00  0.1072915192D+01
 Atom C8       Shell    81 S   1     bf  233 -   233          2.025329437655         -1.149547057235         -0.000548093642
      0.9059000000D+00  0.1000000000D+01
 Atom C8       Shell    82 S   1     bf  234 -   234          2.025329437655         -1.149547057235         -0.000548093642
      0.1285000000D+00  0.1000000000D+01
 Atom C8       Shell    83 S   1     bf  235 -   235          2.025329437655         -1.149547057235         -0.000548093642
      0.4402000000D-01  0.1000000000D+01
 Atom C8       Shell    84 P   3     bf  236 -   238          2.025329437655         -1.149547057235         -0.000548093642
      0.1871000000D+02  0.3942638716D-01
      0.4133000000D+01  0.2440889849D+00
      0.1200000000D+01  0.8154920089D+00
 Atom C8       Shell    85 P   1     bf  239 -   241          2.025329437655         -1.149547057235         -0.000548093642
      0.3827000000D+00  0.1000000000D+01
 Atom C8       Shell    86 P   1     bf  242 -   244          2.025329437655         -1.149547057235         -0.000548093642
      0.1209000000D+00  0.1000000000D+01
 Atom C8       Shell    87 P   1     bf  245 -   247          2.025329437655         -1.149547057235         -0.000548093642
      0.3569000000D-01  0.1000000000D+01
 Atom C8       Shell    88 D   1     bf  248 -   252          2.025329437655         -1.149547057235         -0.000548093642
      0.1097000000D+01  0.1000000000D+01
 Atom C8       Shell    89 D   1     bf  253 -   257          2.025329437655         -1.149547057235         -0.000548093642
      0.3180000000D+00  0.1000000000D+01
 Atom C8       Shell    90 D   1     bf  258 -   262          2.025329437655         -1.149547057235         -0.000548093642
      0.1000000000D+00  0.1000000000D+01
 Atom C8       Shell    91 F   1     bf  263 -   269          2.025329437655         -1.149547057235         -0.000548093642
      0.7610000000D+00  0.1000000000D+01
 Atom C8       Shell    92 F   1     bf  270 -   276          2.025329437655         -1.149547057235         -0.000548093642
      0.2680000000D+00  0.1000000000D+01
 Atom F9       Shell    93 S   7     bf  277 -   277          1.605404440064          2.696200806319          2.081133733330
      0.1950000000D+05  0.5190024441D-03
      0.2923000000D+04  0.4015781354D-02
      0.6645000000D+03  0.2067746110D-01
      0.1875000000D+03  0.8086901703D-01
      0.6062000000D+02  0.2358075463D+00
      0.2142000000D+02  0.4425823060D+00
      0.7950000000D+01  0.3569628672D+00
 Atom F9       Shell    94 S   6     bf  278 -   278          1.605404440064          2.696200806319          2.081133733330
      0.6645000000D+03 -0.3735980873D-04
      0.1875000000D+03 -0.1277472297D-02
      0.6062000000D+02 -0.1082201399D-01
      0.2142000000D+02 -0.7004820894D-01
      0.7950000000D+01 -0.1697466078D+00
      0.8815000000D+00  0.1073026608D+01
 Atom F9       Shell    95 S   1     bf  279 -   279          1.605404440064          2.696200806319          2.081133733330
      0.2257000000D+01  0.1000000000D+01
 Atom F9       Shell    96 S   1     bf  280 -   280          1.605404440064          2.696200806319          2.081133733330
      0.3041000000D+00  0.1000000000D+01
 Atom F9       Shell    97 S   1     bf  281 -   281          1.605404440064          2.696200806319          2.081133733330
      0.9158000000D-01  0.1000000000D+01
 Atom F9       Shell    98 P   3     bf  282 -   284          1.605404440064          2.696200806319          2.081133733330
      0.4388000000D+02  0.4190462069D-01
      0.9926000000D+01  0.2626978417D+00
      0.2930000000D+01  0.7977593735D+00
 Atom F9       Shell    99 P   1     bf  285 -   287          1.605404440064          2.696200806319          2.081133733330
      0.9132000000D+00  0.1000000000D+01
 Atom F9       Shell   100 P   1     bf  288 -   290          1.605404440064          2.696200806319          2.081133733330
      0.2672000000D+00  0.1000000000D+01
 Atom F9       Shell   101 P   1     bf  291 -   293          1.605404440064          2.696200806319          2.081133733330
      0.7361000000D-01  0.1000000000D+01
 Atom F9       Shell   102 D   1     bf  294 -   298          1.605404440064          2.696200806319          2.081133733330
      0.3107000000D+01  0.1000000000D+01
 Atom F9       Shell   103 D   1     bf  299 -   303          1.605404440064          2.696200806319          2.081133733330
      0.8550000000D+00  0.1000000000D+01
 Atom F9       Shell   104 D   1     bf  304 -   308          1.605404440064          2.696200806319          2.081133733330
      0.2920000000D+00  0.1000000000D+01
 Atom F9       Shell   105 F   1     bf  309 -   315          1.605404440064          2.696200806319          2.081133733330
      0.1917000000D+01  0.1000000000D+01
 Atom F9       Shell   106 F   1     bf  316 -   322          1.605404440064          2.696200806319          2.081133733330
      0.7240000000D+00  0.1000000000D+01
 Atom F10      Shell   107 S   7     bf  323 -   323          1.605425942669          2.698144062866         -2.078733058823
      0.1950000000D+05  0.5190024441D-03
      0.2923000000D+04  0.4015781354D-02
      0.6645000000D+03  0.2067746110D-01
      0.1875000000D+03  0.8086901703D-01
      0.6062000000D+02  0.2358075463D+00
      0.2142000000D+02  0.4425823060D+00
      0.7950000000D+01  0.3569628672D+00
 Atom F10      Shell   108 S   6     bf  324 -   324          1.605425942669          2.698144062866         -2.078733058823
      0.6645000000D+03 -0.3735980873D-04
      0.1875000000D+03 -0.1277472297D-02
      0.6062000000D+02 -0.1082201399D-01
      0.2142000000D+02 -0.7004820894D-01
      0.7950000000D+01 -0.1697466078D+00
      0.8815000000D+00  0.1073026608D+01
 Atom F10      Shell   109 S   1     bf  325 -   325          1.605425942669          2.698144062866         -2.078733058823
      0.2257000000D+01  0.1000000000D+01
 Atom F10      Shell   110 S   1     bf  326 -   326          1.605425942669          2.698144062866         -2.078733058823
      0.3041000000D+00  0.1000000000D+01
 Atom F10      Shell   111 S   1     bf  327 -   327          1.605425942669          2.698144062866         -2.078733058823
      0.9158000000D-01  0.1000000000D+01
 Atom F10      Shell   112 P   3     bf  328 -   330          1.605425942669          2.698144062866         -2.078733058823
      0.4388000000D+02  0.4190462069D-01
      0.9926000000D+01  0.2626978417D+00
      0.2930000000D+01  0.7977593735D+00
 Atom F10      Shell   113 P   1     bf  331 -   333          1.605425942669          2.698144062866         -2.078733058823
      0.9132000000D+00  0.1000000000D+01
 Atom F10      Shell   114 P   1     bf  334 -   336          1.605425942669          2.698144062866         -2.078733058823
      0.2672000000D+00  0.1000000000D+01
 Atom F10      Shell   115 P   1     bf  337 -   339          1.605425942669          2.698144062866         -2.078733058823
      0.7361000000D-01  0.1000000000D+01
 Atom F10      Shell   116 D   1     bf  340 -   344          1.605425942669          2.698144062866         -2.078733058823
      0.3107000000D+01  0.1000000000D+01
 Atom F10      Shell   117 D   1     bf  345 -   349          1.605425942669          2.698144062866         -2.078733058823
      0.8550000000D+00  0.1000000000D+01
 Atom F10      Shell   118 D   1     bf  350 -   354          1.605425942669          2.698144062866         -2.078733058823
      0.2920000000D+00  0.1000000000D+01
 Atom F10      Shell   119 F   1     bf  355 -   361          1.605425942669          2.698144062866         -2.078733058823
      0.1917000000D+01  0.1000000000D+01
 Atom F10      Shell   120 F   1     bf  362 -   368          1.605425942669          2.698144062866         -2.078733058823
      0.7240000000D+00  0.1000000000D+01
 Atom F11      Shell   121 S   7     bf  369 -   369          2.168071297389         -2.518632847489          2.079068606573
      0.1950000000D+05  0.5190024441D-03
      0.2923000000D+04  0.4015781354D-02
      0.6645000000D+03  0.2067746110D-01
      0.1875000000D+03  0.8086901703D-01
      0.6062000000D+02  0.2358075463D+00
      0.2142000000D+02  0.4425823060D+00
      0.7950000000D+01  0.3569628672D+00
 Atom F11      Shell   122 S   6     bf  370 -   370          2.168071297389         -2.518632847489          2.079068606573
      0.6645000000D+03 -0.3735980873D-04
      0.1875000000D+03 -0.1277472297D-02
      0.6062000000D+02 -0.1082201399D-01
      0.2142000000D+02 -0.7004820894D-01
      0.7950000000D+01 -0.1697466078D+00
      0.8815000000D+00  0.1073026608D+01
 Atom F11      Shell   123 S   1     bf  371 -   371          2.168071297389         -2.518632847489          2.079068606573
      0.2257000000D+01  0.1000000000D+01
 Atom F11      Shell   124 S   1     bf  372 -   372          2.168071297389         -2.518632847489          2.079068606573
      0.3041000000D+00  0.1000000000D+01
 Atom F11      Shell   125 S   1     bf  373 -   373          2.168071297389         -2.518632847489          2.079068606573
      0.9158000000D-01  0.1000000000D+01
 Atom F11      Shell   126 P   3     bf  374 -   376          2.168071297389         -2.518632847489          2.079068606573
      0.4388000000D+02  0.4190462069D-01
      0.9926000000D+01  0.2626978417D+00
      0.2930000000D+01  0.7977593735D+00
 Atom F11      Shell   127 P   1     bf  377 -   379          2.168071297389         -2.518632847489          2.079068606573
      0.9132000000D+00  0.1000000000D+01
 Atom F11      Shell   128 P   1     bf  380 -   382          2.168071297389         -2.518632847489          2.079068606573
      0.2672000000D+00  0.1000000000D+01
 Atom F11      Shell   129 P   1     bf  383 -   385          2.168071297389         -2.518632847489          2.079068606573
      0.7361000000D-01  0.1000000000D+01
 Atom F11      Shell   130 D   1     bf  386 -   390          2.168071297389         -2.518632847489          2.079068606573
      0.3107000000D+01  0.1000000000D+01
 Atom F11      Shell   131 D   1     bf  391 -   395          2.168071297389         -2.518632847489          2.079068606573
      0.8550000000D+00  0.1000000000D+01
 Atom F11      Shell   132 D   1     bf  396 -   400          2.168071297389         -2.518632847489          2.079068606573
      0.2920000000D+00  0.1000000000D+01
 Atom F11      Shell   133 F   1     bf  401 -   407          2.168071297389         -2.518632847489          2.079068606573
      0.1917000000D+01  0.1000000000D+01
 Atom F11      Shell   134 F   1     bf  408 -   414          2.168071297389         -2.518632847489          2.079068606573
      0.7240000000D+00  0.1000000000D+01
 Atom F12      Shell   135 S   7     bf  415 -   415          2.167660405047         -2.516773576344         -2.081483446568
      0.1950000000D+05  0.5190024441D-03
      0.2923000000D+04  0.4015781354D-02
      0.6645000000D+03  0.2067746110D-01
      0.1875000000D+03  0.8086901703D-01
      0.6062000000D+02  0.2358075463D+00
      0.2142000000D+02  0.4425823060D+00
      0.7950000000D+01  0.3569628672D+00
 Atom F12      Shell   136 S   6     bf  416 -   416          2.167660405047         -2.516773576344         -2.081483446568
      0.6645000000D+03 -0.3735980873D-04
      0.1875000000D+03 -0.1277472297D-02
      0.6062000000D+02 -0.1082201399D-01
      0.2142000000D+02 -0.7004820894D-01
      0.7950000000D+01 -0.1697466078D+00
      0.8815000000D+00  0.1073026608D+01
 Atom F12      Shell   137 S   1     bf  417 -   417          2.167660405047         -2.516773576344         -2.081483446568
      0.2257000000D+01  0.1000000000D+01
 Atom F12      Shell   138 S   1     bf  418 -   418          2.167660405047         -2.516773576344         -2.081483446568
      0.3041000000D+00  0.1000000000D+01
 Atom F12      Shell   139 S   1     bf  419 -   419          2.167660405047         -2.516773576344         -2.081483446568
      0.9158000000D-01  0.1000000000D+01
 Atom F12      Shell   140 P   3     bf  420 -   422          2.167660405047         -2.516773576344         -2.081483446568
      0.4388000000D+02  0.4190462069D-01
      0.9926000000D+01  0.2626978417D+00
      0.2930000000D+01  0.7977593735D+00
 Atom F12      Shell   141 P   1     bf  423 -   425          2.167660405047         -2.516773576344         -2.081483446568
      0.9132000000D+00  0.1000000000D+01
 Atom F12      Shell   142 P   1     bf  426 -   428          2.167660405047         -2.516773576344         -2.081483446568
      0.2672000000D+00  0.1000000000D+01
 Atom F12      Shell   143 P   1     bf  429 -   431          2.167660405047         -2.516773576344         -2.081483446568
      0.7361000000D-01  0.1000000000D+01
 Atom F12      Shell   144 D   1     bf  432 -   436          2.167660405047         -2.516773576344         -2.081483446568
      0.3107000000D+01  0.1000000000D+01
 Atom F12      Shell   145 D   1     bf  437 -   441          2.167660405047         -2.516773576344         -2.081483446568
      0.8550000000D+00  0.1000000000D+01
 Atom F12      Shell   146 D   1     bf  442 -   446          2.167660405047         -2.516773576344         -2.081483446568
      0.2920000000D+00  0.1000000000D+01
 Atom F12      Shell   147 F   1     bf  447 -   453          2.167660405047         -2.516773576344         -2.081483446568
      0.1917000000D+01  0.1000000000D+01
 Atom F12      Shell   148 F   1     bf  454 -   460          2.167660405047         -2.516773576344         -2.081483446568
      0.7240000000D+00  0.1000000000D+01
 There are   540 symmetry adapted cartesian basis functions of A   symmetry.
 There are   460 symmetry adapted basis functions of A   symmetry.
   460 basis functions,   684 primitive gaussians,   540 cartesian basis functions
    32 alpha electrons       32 beta electrons
       nuclear repulsion energy       370.6834941655 Hartrees.
 NAtoms=   12 NActive=   12 NUniq=   12 SFac= 1.00D+00 NAtFMM=   60 NAOKFM=F Big=F
 Integral buffers will be    131072 words long.
 Regular integral format.
 Two-electron integral symmetry is turned on.
 One-electron integrals computed using PRISM.
 NBasis=   460 RedAO= T EigKep=  4.21D-06  NBF=   460
 NBsUse=   460 1.00D-06 EigRej= -1.00D+00 NBFU=   460
 ExpMin= 2.53D-02 ExpMax= 1.95D+04 ExpMxC= 6.65D+02 IAcc=3 IRadAn=         5 AccDes= 0.00D+00
 Harris functional with IExCor=  402 and IRadAn=       5 diagonalized for initial guess.
 HarFok:  IExCor=  402 AccDes= 0.00D+00 IRadAn=         5 IDoV= 1 UseB2=F ITyADJ=14
 ICtDFT=  3500011 ScaDFX=  1.000000  1.000000  1.000000  1.000000
 FoFCou: FMM=F IPFlag=           0 FMFlag=      100000 FMFlg1=           0
         NFxFlg=           0 DoJE=T BraDBF=F KetDBF=T FulRan=T
         wScrn=  0.000000 ICntrl=     500 IOpCl=  0 I1Cent=   200000004 NGrid=           0
         NMat0=    1 NMatS0=      1 NMatT0=    0 NMatD0=    1 NMtDS0=    0 NMtDT0=    0
 Petite list used in FoFCou.
 Requested convergence on RMS density matrix=1.00D-08 within 128 cycles.
 Requested convergence on MAX density matrix=1.00D-06.
 Requested convergence on             energy=1.00D-06.
 No special actions if energy rises.
 SCF Done:  E(RB3LYP) =  -554.335977531     A.U. after   10 cycles
            NFock= 10  Conv=0.76D-08     -V/T= 2.0055
 DoSCS=F DFT=T ScalE2(SS,OS)=  1.000000  1.000000
 ExpMin= 2.53D-02 ExpMax= 1.95D+04 ExpMxC= 6.65D+02 IAcc=3 IRadAn=         5 AccDes= 0.00D+00
 HarFok:  IExCor=  205 AccDes= 0.00D+00 IRadAn=         5 IDoV=-2 UseB2=F ITyADJ=14
 ICtDFT= 12500011 ScaDFX=  1.000000  1.000000  1.000000  1.000000
 Range of M.O.s used for correlation:     9   460
 NBasis=   460 NAE=    32 NBE=    32 NFC=     8 NFV=     0
 NROrb=    452 NOA=    24 NOB=    24 NVA=   428 NVB=   428

 **** Warning!!: The largest alpha MO coefficient is  0.10581945D+03

 Would need an additional         11925700000 words for in-memory AO integral storage.
 Orbital symmetries:
       Occupied  (A) (A) (A) (A) (A) (A) (A) (A) (A) (A) (A) (A)
                 (A) (A) (A) (A) (A) (A) (A) (A) (A) (A) (A) (A)
                 (A) (A) (A) (A) (A) (A) (A) (A)
       Virtual   (A) (A) (A) (A) (A) (A) (A) (A) (A) (A) (A) (A)
                 (A) (A) (A) (A) (A) (A) (A) (A) (A) (A) (A) (A)
                 (A) (A) (A) (A) (A) (A) (A) (A) (A) (A) (A) (A)
                 (A) (A) (A) (A) (A) (A) (A) (A) (A) (A) (A) (A)
                 (A) (A) (A) (A) (A) (A) (A) (A) (A) (A) (A) (A)
                 (A) (A) (A) (A) (A) (A) (A) (A) (A) (A) (A) (A)
                 (A) (A) (A) (A) (A) (A) (A) (A) (A) (A) (A) (A)
                 (A) (A) (A) (A) (A) (A) (A) (A) (A) (A) (A) (A)
                 (A) (A) (A) (A) (A) (A) (A) (A) (A) (A) (A) (A)
                 (A) (A) (A) (A) (A) (A) (A) (A) (A) (A) (A) (A)
                 (A) (A) (A) (A) (A) (A) (A) (A) (A) (A) (A) (A)
                 (A) (A) (A) (A) (A) (A) (A) (A) (A) (A) (A) (A)
                 (A) (A) (A) (A) (A) (A) (A) (A) (A) (A) (A) (A)
                 (A) (A) (A) (A) (A) (A) (A) (A) (A) (A) (A) (A)
                 (A) (A) (A) (A) (A) (A) (A) (A) (A) (A) (A) (A)
                 (A) (A) (A) (A) (A) (A) (A) (A) (A) (A) (A) (A)
                 (A) (A) (A) (A) (A) (A) (A) (A) (A) (A) (A) (A)
                 (A) (A) (A) (A) (A) (A) (A) (A) (A) (A) (A) (A)
                 (A) (A) (A) (A) (A) (A) (A) (A) (A) (A) (A) (A)
                 (A) (A) (A) (A) (A) (A) (A) (A) (A) (A) (A) (A)
                 (A) (A) (A) (A) (A) (A) (A) (A) (A) (A) (A) (A)
                 (A) (A) (A) (A) (A) (A) (A) (A) (A) (A) (A) (A)
                 (A) (A) (A) (A) (A) (A) (A) (A) (A) (A) (A) (A)
                 (A) (A) (A) (A) (A) (A) (A) (A) (A) (A) (A) (A)
                 (A) (A) (A) (A) (A) (A) (A) (A) (A) (A) (A) (A)
                 (A) (A) (A) (A) (A) (A) (A) (A) (A) (A) (A) (A)
                 (A) (A) (A) (A) (A) (A) (A) (A) (A) (A) (A) (A)
                 (A) (A) (A) (A) (A) (A) (A) (A) (A) (A) (A) (A)
                 (A) (A) (A) (A) (A) (A) (A) (A) (A) (A) (A) (A)
                 (A) (A) (A) (A) (A) (A) (A) (A) (A) (A) (A) (A)
                 (A) (A) (A) (A) (A) (A) (A) (A) (A) (A) (A) (A)
                 (A) (A) (A) (A) (A) (A) (A) (A) (A) (A) (A) (A)
                 (A) (A) (A) (A) (A) (A) (A) (A) (A) (A) (A) (A)
                 (A) (A) (A) (A) (A) (A) (A) (A) (A) (A) (A) (A)
                 (A) (A) (A) (A) (A) (A) (A) (A) (A) (A) (A) (A)
                 (A) (A) (A) (A) (A) (A) (A) (A)
    40 initial guesses have been made.
 Convergence on wavefunction:    0.001000000000000
 Iteration     1 Dimension    40 NMult     0 NNew     40
 CISAX will form    40 AO SS matrices at one time.
 New state      1 was old state      2
 New state      2 was old state      1
 New state      3 was old state      6
 New state      6 was old state      7
 New state      7 was old state     10
 New state      8 was old state      9
 New state      9 was old state     12
 New state     10 was old state     11
 Iteration     2 Dimension    60 NMult    40 NNew     20
 Iteration     3 Dimension    80 NMult    60 NNew     20
 New state      9 was old state     10
 New state     10 was old state      9
 Iteration     4 Dimension   100 NMult    80 NNew     20
 Iteration     5 Dimension   104 NMult   100 NNew      4
 Iteration     6 Dimension   106 NMult   104 NNew      2
 ***********************************************************************
 Excited states from <AA,BB:AA,BB> singles matrix:
 ***********************************************************************
 
 Ground to excited state transition densities written to RWF  633
 Ground to excited state transition electric dipole moments (Au):
       state          X           Y           Z        Dip. S.      Osc.
         1         0.4106      0.0151      0.0001      0.1688      0.0254
         2         0.0781      0.0600     -0.0003      0.0097      0.0015
         3         0.0001     -0.0002     -0.0332      0.0011      0.0002
         4         0.5779      0.0384     -0.0001      0.3355      0.0549
         5        -0.0198      0.0749      0.0000      0.0060      0.0010
         6        -0.2707     -0.0185      0.0000      0.0736      0.0125
         7         0.0000      0.0015     -0.0386      0.0015      0.0003
         8        -0.0166      0.4843     -0.0010      0.2348      0.0414
         9         0.0462     -0.6582      0.0015      0.4353      0.0784
        10         0.0002     -0.0030     -0.0225      0.0005      0.0001
 Ground to excited state transition velocity dipole moments (Au):
       state          X           Y           Z        Dip. S.      Osc.
         1        -0.0913     -0.0034      0.0000      0.0084      0.0247
         2        -0.0175     -0.0134      0.0001      0.0005      0.0014
         3         0.0000      0.0000      0.0076      0.0001      0.0002
         4        -0.1429     -0.0096      0.0000      0.0205      0.0557
         5         0.0049     -0.0191      0.0000      0.0004      0.0010
         6         0.0686      0.0047      0.0000      0.0047      0.0123
         7         0.0000     -0.0004      0.0103      0.0001      0.0003
         8         0.0043     -0.1277      0.0003      0.0163      0.0411
         9        -0.0124      0.1775     -0.0004      0.0317      0.0781
        10        -0.0001      0.0008      0.0059      0.0000      0.0001
 Ground to excited state transition magnetic dipole moments (Au):
       state          X           Y           Z
         1         0.0000      0.0002     -0.0153
         2         0.0001     -0.0008      0.0197
         3         0.0825     -0.7453      0.0000
         4        -0.0001      0.0001      0.0231
         5         0.0000     -0.0001     -0.3718
         6         0.0000      0.0000      0.0676
         7        -0.0322      0.3383      0.0035
         8         0.0000      0.0008      1.3592
         9         0.0001     -0.0020     -1.2937
        10         0.0093     -0.0241     -0.0061
 Ground to excited state transition velocity quadrupole moments (Au):
       state          XX          YY          ZZ          XY          XZ          YZ
         1         0.1472     -0.0023     -0.0048     -0.0791      0.0001      0.0000
         2        -0.0016      0.0265      0.0014      0.2242     -0.0003      0.0000
         3         0.0000      0.0000      0.0000     -0.0003     -0.0132     -0.0001
         4         1.6524     -0.0412     -0.0355      0.1107     -0.0001     -0.0001
         5         0.0152     -0.0112     -0.0058     -0.0296      0.0001      0.0000
         6        -0.0005     -0.0805     -0.0552      0.0378      0.0000      0.0000
         7         0.0000      0.0002     -0.0001      0.0024      0.1714      0.0206
         8        -0.0502      0.0629      0.0077      0.8261     -0.0020     -0.0001
         9         0.2647     -0.1756     -0.0032     -1.5024      0.0021      0.0001
        10         0.0014     -0.0007     -0.0001     -0.0064      0.0811      0.0109
 <0|del|b> * <b|rxdel|0> + <0|del|b> * <b|delr+rdel|0>
 Rotatory Strengths (R) in cgs (10**-40 erg-esu-cm/Gauss)
       state          XX          YY          ZZ    R(velocity)    E-M Angle
         1         0.0017      0.0008      0.0012      0.0012       90.00
         2         0.0316     -0.0216      0.0193      0.0098       90.00
         3        -0.0564      0.0018     -0.0576     -0.0374       90.00
         4         0.0013      0.0234      0.0014      0.0087       90.00
         5         0.0087      0.0025      0.0009      0.0040       90.00
         6         0.0009     -0.0023      0.0012     -0.0001       90.00
         7        -0.0081      0.0154     -0.2718     -0.0882       90.00
         8         0.2926      0.1863      0.2082      0.2290       89.92
         9         0.5734     -0.1159      0.0208      0.1594       89.95
        10        -0.2086      0.0006      0.0607     -0.0491       90.00
 1/2[<0|r|b>*<b|rxdel|0> + (<0|rxdel|b>*<b|r|0>)*]
 Rotatory Strengths (R) in cgs (10**-40 erg-esu-cm/Gauss)
       state          XX          YY          ZZ     R(length)
         1         0.0054     -0.0025      0.0008      0.0012
         2        -0.0076      0.0340      0.0035      0.0100
         3        -0.0039     -0.1115      0.0010     -0.0381
         4         0.0269     -0.0025      0.0015      0.0086
         5         0.0001      0.0068      0.0066      0.0045
         6        -0.0015      0.0006      0.0006     -0.0001
         7        -0.0002     -0.3585      0.0952     -0.0878
         8         0.0003     -0.2655      0.9609      0.2319
         9        -0.0020     -0.9193      1.3657      0.1481
        10        -0.0015     -0.0512     -0.0974     -0.0501
  1/2[<0|del|b>*<b|r|0> + (<0|r|b>*<b|del|0>)*] (Au)
       state          X           Y           Z        Dip. S.   Osc.(frdel)
         1        -0.0375     -0.0001      0.0000      0.0375      0.0250
         2        -0.0014     -0.0008      0.0000      0.0022      0.0014
         3         0.0000      0.0000     -0.0003      0.0003      0.0002
         4        -0.0826     -0.0004      0.0000      0.0829      0.0553
         5        -0.0001     -0.0014      0.0000      0.0015      0.0010
         6        -0.0186     -0.0001      0.0000      0.0187      0.0124
         7         0.0000      0.0000     -0.0004      0.0004      0.0003
         8        -0.0001     -0.0618      0.0000      0.0619      0.0413
         9        -0.0006     -0.1168      0.0000      0.1174      0.0783
        10         0.0000      0.0000     -0.0001      0.0001      0.0001

 Excitation energies and oscillator strengths:
 
 Excited State   1:      Singlet-A      6.1404 eV  201.91 nm  f=0.0254  <S**2>=0.000
      32 -> 33        -0.29434
      32 -> 34         0.60881
      32 -> 37        -0.17130
 This state for optimization and/or second-order correction.
 Total Energy, E(TD-HF/TD-KS) =  -554.110320230    
 Copying the excited state density for this state as the 1-particle RhoCI density.
 
 Excited State   2:      Singlet-A      6.2185 eV  199.38 nm  f=0.0015  <S**2>=0.000
      31 -> 33        -0.10766
      32 -> 33         0.62601
      32 -> 34         0.28975
 
 Excited State   3:      Singlet-A      6.4828 eV  191.25 nm  f=0.0002  <S**2>=0.000
      32 -> 36         0.56593
      32 -> 39         0.37051
      32 -> 46        -0.16496
 
 Excited State   4:      Singlet-A      6.6768 eV  185.69 nm  f=0.0549  <S**2>=0.000
      31 -> 34         0.64306
      31 -> 37         0.13905
      32 -> 37         0.21248
 
 Excited State   5:      Singlet-A      6.9041 eV  179.58 nm  f=0.0010  <S**2>=0.000
      32 -> 35         0.67802
      32 -> 40         0.13263
 
 Excited State   6:      Singlet-A      6.9550 eV  178.27 nm  f=0.0125  <S**2>=0.000
      31 -> 34        -0.21991
      32 -> 34         0.17727
      32 -> 37         0.63508
 
 Excited State   7:      Singlet-A      7.1840 eV  172.58 nm  f=0.0003  <S**2>=0.000
      31 -> 36         0.55173
      32 -> 36         0.28307
      32 -> 39        -0.30770
 
 Excited State   8:      Singlet-A      7.1994 eV  172.22 nm  f=0.0414  <S**2>=0.000
      31 -> 33         0.43053
      31 -> 35         0.49951
      31 -> 38        -0.15307
      32 -> 38        -0.12153
 
 Excited State   9:      Singlet-A      7.3479 eV  168.74 nm  f=0.0784  <S**2>=0.000
      31 -> 33        -0.42791
      31 -> 35         0.43950
      31 -> 37        -0.11256
      31 -> 38         0.14999
      31 -> 40        -0.16071
      32 -> 40        -0.18963
 
 Excited State  10:      Singlet-A      7.3804 eV  167.99 nm  f=0.0001  <S**2>=0.000
      31 -> 36         0.41617
      32 -> 36        -0.30480
      32 -> 39         0.45141
      32 -> 46        -0.12592
 SavETr:  write IOETrn=   770 NScale= 10 NData=  16 NLR=1 NState=   10 LETran=     190.

 **********************************************************************

            Population analysis using the SCF density.

 **********************************************************************

 Orbital symmetries:
       Occupied  (A) (A) (A) (A) (A) (A) (A) (A) (A) (A) (A) (A)
                 (A) (A) (A) (A) (A) (A) (A) (A) (A) (A) (A) (A)
                 (A) (A) (A) (A) (A) (A) (A) (A)
       Virtual   (A) (A) (A) (A) (A) (A) (A) (A) (A) (A) (A) (A)
                 (A) (A) (A) (A) (A) (A) (A) (A) (A) (A) (A) (A)
                 (A) (A) (A) (A) (A) (A) (A) (A) (A) (A) (A) (A)
                 (A) (A) (A) (A) (A) (A) (A) (A) (A) (A) (A) (A)
                 (A) (A) (A) (A) (A) (A) (A) (A) (A) (A) (A) (A)
                 (A) (A) (A) (A) (A) (A) (A) (A) (A) (A) (A) (A)
                 (A) (A) (A) (A) (A) (A) (A) (A) (A) (A) (A) (A)
                 (A) (A) (A) (A) (A) (A) (A) (A) (A) (A) (A) (A)
                 (A) (A) (A) (A) (A) (A) (A) (A) (A) (A) (A) (A)
                 (A) (A) (A) (A) (A) (A) (A) (A) (A) (A) (A) (A)
                 (A) (A) (A) (A) (A) (A) (A) (A) (A) (A) (A) (A)
                 (A) (A) (A) (A) (A) (A) (A) (A) (A) (A) (A) (A)
                 (A) (A) (A) (A) (A) (A) (A) (A) (A) (A) (A) (A)
                 (A) (A) (A) (A) (A) (A) (A) (A) (A) (A) (A) (A)
                 (A) (A) (A) (A) (A) (A) (A) (A) (A) (A) (A) (A)
                 (A) (A) (A) (A) (A) (A) (A) (A) (A) (A) (A) (A)
                 (A) (A) (A) (A) (A) (A) (A) (A) (A) (A) (A) (A)
                 (A) (A) (A) (A) (A) (A) (A) (A) (A) (A) (A) (A)
                 (A) (A) (A) (A) (A) (A) (A) (A) (A) (A) (A) (A)
                 (A) (A) (A) (A) (A) (A) (A) (A) (A) (A) (A) (A)
                 (A) (A) (A) (A) (A) (A) (A) (A) (A) (A) (A) (A)
                 (A) (A) (A) (A) (A) (A) (A) (A) (A) (A) (A) (A)
                 (A) (A) (A) (A) (A) (A) (A) (A) (A) (A) (A) (A)
                 (A) (A) (A) (A) (A) (A) (A) (A) (A) (A) (A) (A)
                 (A) (A) (A) (A) (A) (A) (A) (A) (A) (A) (A) (A)
                 (A) (A) (A) (A) (A) (A) (A) (A) (A) (A) (A) (A)
                 (A) (A) (A) (A) (A) (A) (A) (A) (A) (A) (A) (A)
                 (A) (A) (A) (A) (A) (A) (A) (A) (A) (A) (A) (A)
                 (A) (A) (A) (A) (A) (A) (A) (A) (A) (A) (A) (A)
                 (A) (A) (A) (A) (A) (A) (A) (A) (A) (A) (A) (A)
                 (A) (A) (A) (A) (A) (A) (A) (A) (A) (A) (A) (A)
                 (A) (A) (A) (A) (A) (A) (A) (A) (A) (A) (A) (A)
                 (A) (A) (A) (A) (A) (A) (A) (A) (A) (A) (A) (A)
                 (A) (A) (A) (A) (A) (A) (A) (A) (A) (A) (A) (A)
                 (A) (A) (A) (A) (A) (A) (A) (A) (A) (A) (A) (A)
                 (A) (A) (A) (A) (A) (A) (A) (A)
 The electronic state is 1-A.
 Alpha  occ. eigenvalues --  -24.75101 -24.75100 -24.75088 -24.75086 -10.36760
 Alpha  occ. eigenvalues --  -10.36661 -10.18059 -10.17960  -1.32331  -1.30949
 Alpha  occ. eigenvalues --   -1.26695  -1.25625  -0.82034  -0.77173  -0.67816
 Alpha  occ. eigenvalues --   -0.63483  -0.62709  -0.58921  -0.58358  -0.57188
 Alpha  occ. eigenvalues --   -0.52925  -0.50254  -0.48105  -0.47915  -0.47437
 Alpha  occ. eigenvalues --   -0.47037  -0.46580  -0.45081  -0.43191  -0.36446
 Alpha  occ. eigenvalues --   -0.28813  -0.27139
 Alpha virt. eigenvalues --   -0.01729  -0.01289   0.00603   0.00712   0.00828
 Alpha virt. eigenvalues --    0.01695   0.02851   0.03248   0.03914   0.05129
 Alpha virt. eigenvalues --    0.05622   0.07216   0.07700   0.07736   0.07831
 Alpha virt. eigenvalues --    0.07959   0.08925   0.09117   0.09271   0.09711
 Alpha virt. eigenvalues --    0.11626   0.12211   0.12466   0.12540   0.13557
 Alpha virt. eigenvalues --    0.14559   0.16167   0.17267   0.17517   0.17895
 Alpha virt. eigenvalues --    0.18316   0.19538   0.19741   0.20883   0.21376
 Alpha virt. eigenvalues --    0.22073   0.22396   0.23299   0.23794   0.24121
 Alpha virt. eigenvalues --    0.24559   0.26388   0.27081   0.27291   0.27686
 Alpha virt. eigenvalues --    0.27715   0.28468   0.29167   0.29820   0.30381
 Alpha virt. eigenvalues --    0.30563   0.31058   0.31120   0.32728   0.33327
 Alpha virt. eigenvalues --    0.33372   0.33561   0.34660   0.35240   0.36002
 Alpha virt. eigenvalues --    0.36478   0.38248   0.38689   0.39100   0.40062
 Alpha virt. eigenvalues --    0.41019   0.41442   0.43323   0.44329   0.44633
 Alpha virt. eigenvalues --    0.44819   0.45628   0.46311   0.48296   0.48504
 Alpha virt. eigenvalues --    0.49745   0.49877   0.49909   0.52075   0.54754
 Alpha virt. eigenvalues --    0.55933   0.56654   0.57338   0.59823   0.61194
 Alpha virt. eigenvalues --    0.62473   0.62607   0.63461   0.66376   0.67244
 Alpha virt. eigenvalues --    0.68609   0.69667   0.69937   0.71038   0.71204
 Alpha virt. eigenvalues --    0.73765   0.73828   0.75961   0.76985   0.78657
 Alpha virt. eigenvalues --    0.78980   0.79760   0.80634   0.80828   0.81258
 Alpha virt. eigenvalues --    0.81769   0.84181   0.84556   0.84583   0.85211
 Alpha virt. eigenvalues --    0.86114   0.86937   0.87620   0.87952   0.88145
 Alpha virt. eigenvalues --    0.88832   0.89829   0.91391   0.91817   0.92146
 Alpha virt. eigenvalues --    0.94199   0.94526   0.95350   0.95452   0.95947
 Alpha virt. eigenvalues --    0.97782   0.97893   0.98620   0.98685   1.00504
 Alpha virt. eigenvalues --    1.02110   1.02478   1.03177   1.03494   1.04717
 Alpha virt. eigenvalues --    1.06052   1.07307   1.08625   1.08871   1.09850
 Alpha virt. eigenvalues --    1.11593   1.13070   1.13077   1.14986   1.15377
 Alpha virt. eigenvalues --    1.15878   1.16641   1.18313   1.18529   1.21086
 Alpha virt. eigenvalues --    1.21304   1.22095   1.22870   1.24666   1.27011
 Alpha virt. eigenvalues --    1.29548   1.31484   1.32646   1.33115   1.35733
 Alpha virt. eigenvalues --    1.37152   1.39764   1.41080   1.41361   1.41926
 Alpha virt. eigenvalues --    1.44077   1.45316   1.46030   1.46502   1.47976
 Alpha virt. eigenvalues --    1.48563   1.48940   1.50848   1.51777   1.52703
 Alpha virt. eigenvalues --    1.53055   1.53522   1.54682   1.55074   1.55740
 Alpha virt. eigenvalues --    1.56870   1.58863   1.62259   1.62995   1.63749
 Alpha virt. eigenvalues --    1.65279   1.66857   1.67448   1.72626   1.74237
 Alpha virt. eigenvalues --    1.74957   1.75084   1.78248   1.79085   1.85085
 Alpha virt. eigenvalues --    1.87816   1.89135   1.89224   1.91038   1.92448
 Alpha virt. eigenvalues --    1.94256   1.99578   2.00103   2.07455   2.08876
 Alpha virt. eigenvalues --    2.12063   2.14392   2.16447   2.17142   2.23071
 Alpha virt. eigenvalues --    2.24219   2.31829   2.35237   2.38898   2.39255
 Alpha virt. eigenvalues --    2.44046   2.45323   2.52074   2.52346   2.52596
 Alpha virt. eigenvalues --    2.53386   2.55143   2.56448   2.57009   2.58190
 Alpha virt. eigenvalues --    2.60993   2.61311   2.63077   2.64629   2.68375
 Alpha virt. eigenvalues --    2.68564   2.69315   2.71804   2.73755   2.73959
 Alpha virt. eigenvalues --    2.76149   2.79594   2.82985   2.84686   2.84790
 Alpha virt. eigenvalues --    2.86356   2.86779   2.87050   2.88743   2.90198
 Alpha virt. eigenvalues --    2.91545   2.93023   2.93549   2.98177   2.99298
 Alpha virt. eigenvalues --    2.99963   3.00021   3.00304   3.00948   3.04288
 Alpha virt. eigenvalues --    3.08447   3.08584   3.09005   3.09463   3.11938
 Alpha virt. eigenvalues --    3.11959   3.12275   3.13505   3.14834   3.15918
 Alpha virt. eigenvalues --    3.16570   3.17056   3.18588   3.23149   3.23201
 Alpha virt. eigenvalues --    3.25149   3.26003   3.29434   3.29919   3.34211
 Alpha virt. eigenvalues --    3.34770   3.37632   3.39519   3.40565   3.40982
 Alpha virt. eigenvalues --    3.45024   3.45685   3.45908   3.46598   3.47767
 Alpha virt. eigenvalues --    3.48474   3.51475   3.53185   3.53584   3.55044
 Alpha virt. eigenvalues --    3.57613   3.63435   3.64731   3.65861   3.66688
 Alpha virt. eigenvalues --    3.66748   3.67673   3.69646   3.70753   3.71518
 Alpha virt. eigenvalues --    3.75614   3.77327   3.78853   3.84408   3.87017
 Alpha virt. eigenvalues --    3.87170   3.87272   3.88903   3.92541   3.98369
 Alpha virt. eigenvalues --    4.02310   4.06672   4.06856   4.10348   4.17961
 Alpha virt. eigenvalues --    4.18417   4.19641   4.20363   4.23489   4.24559
 Alpha virt. eigenvalues --    4.24878   4.28711   4.32958   4.35244   4.38252
 Alpha virt. eigenvalues --    4.43147   4.43741   4.46149   4.47651   4.51361
 Alpha virt. eigenvalues --    4.58335   4.59172   4.61967   4.63124   4.64089
 Alpha virt. eigenvalues --    4.67189   4.70313   4.75018   4.79627   4.82439
 Alpha virt. eigenvalues --    4.87043   4.90051   4.91155   4.91527   4.95337
 Alpha virt. eigenvalues --    4.96915   4.97437   4.99795   5.00760   5.11720
 Alpha virt. eigenvalues --    5.13999   5.16273   5.17255   5.20788   5.22615
 Alpha virt. eigenvalues --    5.23242   5.25185   5.28806   5.29978   5.58942
 Alpha virt. eigenvalues --    5.64437   5.69436   5.97555   6.09400   6.16873
 Alpha virt. eigenvalues --    6.19025   6.29868   6.39867   6.51275   6.60573
 Alpha virt. eigenvalues --    6.83177   6.98826   8.27212   8.27397   8.33921
 Alpha virt. eigenvalues --    8.34264   8.34878   8.35426   8.38235   8.40822
 Alpha virt. eigenvalues --    8.45718   8.50274   8.54654   8.58570   8.65174
 Alpha virt. eigenvalues --    8.65401   8.68079   8.68219   8.69566   8.70566
 Alpha virt. eigenvalues --    8.71042   8.71879   8.72502   8.73052   8.73402
 Alpha virt. eigenvalues --    8.74565   8.76485   8.77840   8.78415   8.82167
 Alpha virt. eigenvalues --    8.82620   8.86648   8.87113   8.87695   8.88949
 Alpha virt. eigenvalues --    8.94990   8.95006   8.97175   9.01887   9.02481
 Alpha virt. eigenvalues --    9.02973   9.12804   9.14892   9.19795   9.21545
 Alpha virt. eigenvalues --    9.24974   9.26672   9.38929   9.48620   9.54852
 Alpha virt. eigenvalues --   11.89234  13.67652  14.62111  16.13248  16.29383
 Alpha virt. eigenvalues --   16.63763  16.94515  17.00807
          Condensed to atoms (all electrons):
               1          2          3          4          5          6
     1  C    5.642121   0.375143   0.375214   0.347448  -0.052880  -0.052826
     2  H    0.375143   0.429075  -0.060789  -0.054765  -0.028772   0.023110
     3  H    0.375214  -0.060789   0.429027  -0.054754   0.023065  -0.028778
     4  C    0.347448  -0.054765  -0.054754   5.659802   0.368875   0.368753
     5  H   -0.052880  -0.028772   0.023065   0.368875   0.433127  -0.061882
     6  H   -0.052826   0.023110  -0.028778   0.368753  -0.061882   0.433221
     7  C   -0.006947   0.001204   0.001194   0.004386  -0.000195  -0.000163
     8  C    0.005720  -0.000206  -0.000222  -0.011070   0.001375   0.001379
     9  F    0.004001   0.005637  -0.008498   0.000180  -0.001551   0.002572
    10  F    0.004005  -0.008470   0.005635   0.000143   0.002563  -0.001548
    11  F   -0.000168  -0.001149   0.001935   0.004075   0.005391  -0.008515
    12  F   -0.000152   0.001944  -0.001152   0.004085  -0.008540   0.005396
               7          8          9         10         11         12
     1  C   -0.006947   0.005720   0.004001   0.004005  -0.000168  -0.000152
     2  H    0.001204  -0.000206   0.005637  -0.008470  -0.001149   0.001944
     3  H    0.001194  -0.000222  -0.008498   0.005635   0.001935  -0.001152
     4  C    0.004386  -0.011070   0.000180   0.000143   0.004075   0.004085
     5  H   -0.000195   0.001375  -0.001551   0.002563   0.005391  -0.008540
     6  H   -0.000163   0.001379   0.002572  -0.001548  -0.008515   0.005396
     7  C    5.016574   0.219134   0.121483   0.121583  -0.038787  -0.038726
     8  C    0.219134   5.025851  -0.037634  -0.037660   0.124013   0.123907
     9  F    0.121483  -0.037634   9.312773  -0.112565  -0.001660   0.010704
    10  F    0.121583  -0.037660  -0.112565   9.312544   0.010704  -0.001651
    11  F   -0.038787   0.124013  -0.001660   0.010704   9.309695  -0.110113
    12  F   -0.038726   0.123907   0.010704  -0.001651  -0.110113   9.309853
 Mulliken charges:
               1
     1  C   -0.640679
     2  H    0.318038
     3  H    0.318123
     4  C   -0.637159
     5  H    0.319425
     6  H    0.319279
     7  C    0.599261
     8  C    0.585414
     9  F   -0.295441
    10  F   -0.295282
    11  F   -0.295424
    12  F   -0.295555
 Sum of Mulliken charges =   0.00000
 Mulliken charges with hydrogens summed into heavy atoms:
               1
     1  C   -0.004517
     4  C    0.001545
     7  C    0.599261
     8  C    0.585414
     9  F   -0.295441
    10  F   -0.295282
    11  F   -0.295424
    12  F   -0.295555
 Electronic spatial extent (au):  <R**2>=           1260.9568
 Charge=              0.0000 electrons
 Dipole moment (field-independent basis, Debye):
    X=             -0.1605    Y=              0.0043    Z=             -0.0001  Tot=              0.1606
 Quadrupole moment (field-independent basis, Debye-Ang):
   XX=            -44.9118   YY=            -44.9719   ZZ=            -45.1906
   XY=             -0.0101   XZ=              0.0007   YZ=             -0.0005
 Traceless Quadrupole moment (field-independent basis, Debye-Ang):
   XX=              0.1130   YY=              0.0529   ZZ=             -0.1658
   XY=             -0.0101   XZ=              0.0007   YZ=             -0.0005
 Octapole moment (field-independent basis, Debye-Ang**2):
  XXX=             50.2247  YYY=              0.6898  ZZZ=             -0.0001  XYY=              4.7216
  XXY=              3.4850  XXZ=             -0.0043  XZZ=              4.5962  YZZ=              0.2308
  YYZ=             -0.0001  XYZ=             -0.0002
 Hexadecapole moment (field-independent basis, Debye-Ang**3):
 XXXX=          -1061.8776 YYYY=           -349.6892 ZZZZ=           -193.5120 XXXY=            -16.4522
 XXXZ=              0.0181 YYYX=             -3.8975 YYYZ=              0.0268 ZZZX=              0.0019
 ZZZY=             -0.0078 XXYY=           -209.5238 XXZZ=           -185.2054 YYZZ=            -91.1509
 XXYZ=              0.0049 YYXZ=             -0.0007 ZZXY=             -1.4301
 N-N= 3.706834941655D+02 E-N=-2.052154541599D+03  KE= 5.513063033098D+02
 1\1\GINC-TC-NODE164\SP\RB3LYP TD-FC\Aug-CC-pVTZ\C4H4F4\EPKTB\08-Nov-20
 16\0\\# td=(singlet,nstates=10,root=1) b3lyp/aug-cc-pvtz geom=check gf
 p\\Title\\0,1\C,0,-0.0110011707,-0.0006908479,-0.0074338249\H,0,0.0172
 177338,-0.0032348228,1.0747005437\H,0,0.944476881,-0.0026355333,-0.516
 232753\C,0,-1.1558653132,0.0012868503,-0.6747081781\H,0,-2.1112411914,
 0.0001840391,-0.1656780376\H,0,-1.1837983633,0.0008689429,-1.756871961
 2\C,0,-0.2055936506,3.9939955935,-0.1214388024\C,0,-1.3474739398,3.999
 0767409,-0.7836124474\F,0,0.9760297482,3.9882151778,-0.7086016155\F,0,
 -0.1281943566,3.9880383543,1.1957201346\F,0,-1.4249777018,3.9995893828
 ,-2.1010538188\F,0,-2.5294016464,3.9991803325,-0.1964288162\\Version=E
 S64L-G09RevD.01\State=1-A\HF=-554.3359775\RMSD=7.606e-09\PG=C01 [X(C4H
 4F4)]\\@


 MAN IS A SINGULAR CREATURE.  HE HAS A SET OF GIFTS
 WHICH MAKE HIM UNIQUE AMONG THE ANIMALS: SO THAT, 
 UNLIKE THEM, HE IS NOT A FIGURE IN THE LANDSCAPE --
 HE IS A SHAPER OF THE LANDSCAPE.

                       -- JACOB BRONOWSKI
 Job cpu time:       0 days  2 hours 48 minutes 44.7 seconds.
 File lengths (MBytes):  RWF=    319 Int=      0 D2E=      0 Chk=     67 Scr=      1
 Normal termination of Gaussian 09 at Tue Nov  8 10:15:32 2016.
 Initial command:
 /cluster/software/gaussian/gaussian-09-D.01/g09/l1.exe "/local/scratch/epktb/Gau-22282.inp" -scrdir="/local/scratch/epktb/"
 Entering Link 1 = /cluster/software/gaussian/gaussian-09-D.01/g09/l1.exe PID=     22992.
  
 Copyright (c) 1988,1990,1992,1993,1995,1998,2003,2009,2013,
            Gaussian, Inc.  All Rights Reserved.
  
 This is part of the Gaussian(R) 09 program.  It is based on
 the Gaussian(R) 03 system (copyright 2003, Gaussian, Inc.),
 the Gaussian(R) 98 system (copyright 1998, Gaussian, Inc.),
 the Gaussian(R) 94 system (copyright 1995, Gaussian, Inc.),
 the Gaussian 92(TM) system (copyright 1992, Gaussian, Inc.),
 the Gaussian 90(TM) system (copyright 1990, Gaussian, Inc.),
 the Gaussian 88(TM) system (copyright 1988, Gaussian, Inc.),
 the Gaussian 86(TM) system (copyright 1986, Carnegie Mellon
 University), and the Gaussian 82(TM) system (copyright 1983,
 Carnegie Mellon University). Gaussian is a federally registered
 trademark of Gaussian, Inc.
  
 This software contains proprietary and confidential information,
 including trade secrets, belonging to Gaussian, Inc.
  
 This software is provided under written license and may be
 used, copied, transmitted, or stored only in accord with that
 written license.
  
 The following legend is applicable only to US Government
 contracts under FAR:
  
                    RESTRICTED RIGHTS LEGEND
  
 Use, reproduction and disclosure by the US Government is
 subject to restrictions as set forth in subparagraphs (a)
 and (c) of the Commercial Computer Software - Restricted
 Rights clause in FAR 52.227-19.
  
 Gaussian, Inc.
 340 Quinnipiac St., Bldg. 40, Wallingford CT 06492
  
  
 ---------------------------------------------------------------
 Warning -- This program may not be used in any manner that
 competes with the business of Gaussian, Inc. or will provide
 assistance to any competitor of Gaussian, Inc.  The licensee
 of this program is prohibited from giving any competitor of
 Gaussian, Inc. access to this program.  By using this program,
 the user acknowledges that Gaussian, Inc. is engaged in the
 business of creating and licensing software in the field of
 computational chemistry and represents and warrants to the
 licensee that it is not a competitor of Gaussian, Inc. and that
 it will not use this program in any manner prohibited above.
 ---------------------------------------------------------------
  

 Cite this work as:
 Gaussian 09, Revision D.01,
 M. J. Frisch, G. W. Trucks, H. B. Schlegel, G. E. Scuseria, 
 M. A. Robb, J. R. Cheeseman, G. Scalmani, V. Barone, B. Mennucci, 
 G. A. Petersson, H. Nakatsuji, M. Caricato, X. Li, H. P. Hratchian, 
 A. F. Izmaylov, J. Bloino, G. Zheng, J. L. Sonnenberg, M. Hada, 
 M. Ehara, K. Toyota, R. Fukuda, J. Hasegawa, M. Ishida, T. Nakajima, 
 Y. Honda, O. Kitao, H. Nakai, T. Vreven, J. A. Montgomery, Jr., 
 J. E. Peralta, F. Ogliaro, M. Bearpark, J. J. Heyd, E. Brothers, 
 K. N. Kudin, V. N. Staroverov, T. Keith, R. Kobayashi, J. Normand, 
 K. Raghavachari, A. Rendell, J. C. Burant, S. S. Iyengar, J. Tomasi, 
 M. Cossi, N. Rega, J. M. Millam, M. Klene, J. E. Knox, J. B. Cross, 
 V. Bakken, C. Adamo, J. Jaramillo, R. Gomperts, R. E. Stratmann, 
 O. Yazyev, A. J. Austin, R. Cammi, C. Pomelli, J. W. Ochterski, 
 R. L. Martin, K. Morokuma, V. G. Zakrzewski, G. A. Voth, 
 P. Salvador, J. J. Dannenberg, S. Dapprich, A. D. Daniels, 
 O. Farkas, J. B. Foresman, J. V. Ortiz, J. Cioslowski, 
 and D. J. Fox, Gaussian, Inc., Wallingford CT, 2013.
 
 ******************************************
 Gaussian 09:  ES64L-G09RevD.01 24-Apr-2013
                 8-Nov-2016 
 ******************************************
 %nprocshared=8
 Will use up to    8 processors via shared memory.
 %mem=40GB
 %oldchk=c2h4f4-td1
 %chk=c2h4f4-td2
 Copying data from "c2h4f4-td1.chk" to current chk file "c2h4f4-td2.chk".
 ---------------------------------------------------------------
 #td=(singlet,nstates=10,root=2) b3lyp/aug-cc-pvtz geom=allcheck
 ---------------------------------------------------------------
 Structure from the checkpoint file:  "c2h4f4-td2.chk"
 -----
 Title
 -----
 Charge =  0 Multiplicity = 1
 Redundant internal coordinates found in file.
 C,0,-0.0110011707,-0.0006908479,-0.0074338249
 H,0,0.0172177338,-0.0032348228,1.0747005437
 H,0,0.944476881,-0.0026355333,-0.516232753
 C,0,-1.1558653132,0.0012868503,-0.6747081781
 H,0,-2.1112411914,0.0001840391,-0.1656780376
 H,0,-1.1837983633,0.0008689429,-1.7568719612
 C,0,-0.2055936506,3.9939955935,-0.1214388024
 C,0,-1.3474739398,3.9990767409,-0.7836124474
 F,0,0.9760297482,3.9882151778,-0.7086016155
 F,0,-0.1281943566,3.9880383543,1.1957201346
 F,0,-1.4249777018,3.9995893828,-2.1010538188
 F,0,-2.5294016464,3.9991803325,-0.1964288162
 Recover connectivity data from disk.
                    Distance matrix (angstroms):
                    1          2          3          4          5
     1  C    0.000000
     2  H    1.082505   0.000000
     3  H    1.082506   1.841434   0.000000
     4  C    1.325131   2.106318   2.106316   0.000000
     5  H    2.106193   2.463511   3.075762   1.082523   0.000000
     6  H    2.106179   3.075753   2.463484   1.082524   1.841752
     7  C    4.001048   4.178307   4.177509   4.141358   4.425379
     8  C    4.287978   4.618897   4.619332   4.003860   4.117806
     9  F    4.168601   4.475618   3.995609   4.521252   5.072514
    10  F    4.167886   3.995754   4.472906   4.522035   4.657130
    11  F    4.731259   5.309232   4.913632   4.253623   4.495762
    12  F    4.730437   4.911249   5.308920   4.254234   4.020917
                    6          7          8          9         10
     6  H    0.000000
     7  C    4.424544   0.000000
     8  C    4.118214   1.319996   0.000000
     9  F    4.654316   1.319480   2.324740   0.000000
    10  F    5.072437   1.319445   2.324763   2.201307   0.000000
    11  F    4.020745   2.325039   1.319719   2.775588   3.542668
    12  F    4.498013   2.325023   1.319749   3.542667   2.775608
                   11         12
    11  F    0.000000
    12  F    2.201670   0.000000
 Framework group  C1[X(C4H4F4)]
 Deg. of freedom    30
                         Standard orientation:                         
 ---------------------------------------------------------------------
 Center     Atomic      Atomic             Coordinates (Angstroms)
 Number     Number       Type             X           Y           Z
 ---------------------------------------------------------------------
      1          6           0       -3.066150    0.516174   -0.001165
      2          1           0       -3.127140    1.080555   -0.922887
      3          1           0       -3.127125    1.083832    0.918544
      4          6           0       -2.927430   -0.801675    0.001181
      5          1           0       -2.869507   -1.369444   -0.918677
      6          1           0       -2.869410   -1.366131    0.923072
      7          6           0        0.930482    0.704100    0.000277
      8          6           0        1.071758   -0.608314   -0.000290
      9          9           0        0.849543    1.426768    1.101289
     10          9           0        0.849555    1.427796   -1.100018
     11          9           0        1.147294   -1.332803    1.100196
     12          9           0        1.147076   -1.331819   -1.101474
 ---------------------------------------------------------------------
 Rotational constants (GHZ):      1.8874758      1.1303375      0.9647052
   460 basis functions,   684 primitive gaussians,   540 cartesian basis functions
    32 alpha electrons       32 beta electrons
       nuclear repulsion energy       370.6834941655 Hartrees.
 NAtoms=   12 NActive=   12 NUniq=   12 SFac= 1.00D+00 NAtFMM=   60 NAOKFM=F Big=F
 ExpMin= 2.53D-02 ExpMax= 1.95D+04 ExpMxC= 6.65D+02 IAcc=3 IRadAn=         5 AccDes= 0.00D+00
 Harris functional with IExCor=  402 and IRadAn=       5 diagonalized for initial guess.
 HarFok:  IExCor=  402 AccDes= 0.00D+00 IRadAn=         5 IDoV= 1 UseB2=F ITyADJ=14
 ICtDFT=  3500011 ScaDFX=  1.000000  1.000000  1.000000  1.000000
 FoFCou: FMM=F IPFlag=           0 FMFlag=      100000 FMFlg1=           0
         NFxFlg=           0 DoJE=T BraDBF=F KetDBF=T FulRan=T
         wScrn=  0.000000 ICntrl=     500 IOpCl=  0 I1Cent=   200000004 NGrid=           0
         NMat0=    1 NMatS0=      1 NMatT0=    0 NMatD0=    1 NMtDS0=    0 NMtDT0=    0
 Petite list used in FoFCou.
 SCF Done:  E(RB3LYP) =  -554.335977531     A.U. after   10 cycles
            NFock= 10  Conv=0.76D-08     -V/T= 2.0055
 DoSCS=F DFT=T ScalE2(SS,OS)=  1.000000  1.000000
 ExpMin= 2.53D-02 ExpMax= 1.95D+04 ExpMxC= 6.65D+02 IAcc=3 IRadAn=         5 AccDes= 0.00D+00
 HarFok:  IExCor=  205 AccDes= 0.00D+00 IRadAn=         5 IDoV=-2 UseB2=F ITyADJ=14
 ICtDFT= 12500011 ScaDFX=  1.000000  1.000000  1.000000  1.000000
 NROrb=    452 NOA=    24 NOB=    24 NVA=   428 NVB=   428

 **** Warning!!: The largest alpha MO coefficient is  0.10581945D+03

 Would need an additional         11925700000 words for in-memory AO integral storage.
 Orbital symmetries:
       Occupied  (A) (A) (A) (A) (A) (A) (A) (A) (A) (A) (A) (A)
                 (A) (A) (A) (A) (A) (A) (A) (A) (A) (A) (A) (A)
                 (A) (A) (A) (A) (A) (A) (A) (A)
       Virtual   (A) (A) (A) (A) (A) (A) (A) (A) (A) (A) (A) (A)
                 (A) (A) (A) (A) (A) (A) (A) (A) (A) (A) (A) (A)
                 (A) (A) (A) (A) (A) (A) (A) (A) (A) (A) (A) (A)
                 (A) (A) (A) (A) (A) (A) (A) (A) (A) (A) (A) (A)
                 (A) (A) (A) (A) (A) (A) (A) (A) (A) (A) (A) (A)
                 (A) (A) (A) (A) (A) (A) (A) (A) (A) (A) (A) (A)
                 (A) (A) (A) (A) (A) (A) (A) (A) (A) (A) (A) (A)
                 (A) (A) (A) (A) (A) (A) (A) (A) (A) (A) (A) (A)
                 (A) (A) (A) (A) (A) (A) (A) (A) (A) (A) (A) (A)
                 (A) (A) (A) (A) (A) (A) (A) (A) (A) (A) (A) (A)
                 (A) (A) (A) (A) (A) (A) (A) (A) (A) (A) (A) (A)
                 (A) (A) (A) (A) (A) (A) (A) (A) (A) (A) (A) (A)
                 (A) (A) (A) (A) (A) (A) (A) (A) (A) (A) (A) (A)
                 (A) (A) (A) (A) (A) (A) (A) (A) (A) (A) (A) (A)
                 (A) (A) (A) (A) (A) (A) (A) (A) (A) (A) (A) (A)
                 (A) (A) (A) (A) (A) (A) (A) (A) (A) (A) (A) (A)
                 (A) (A) (A) (A) (A) (A) (A) (A) (A) (A) (A) (A)
                 (A) (A) (A) (A) (A) (A) (A) (A) (A) (A) (A) (A)
                 (A) (A) (A) (A) (A) (A) (A) (A) (A) (A) (A) (A)
                 (A) (A) (A) (A) (A) (A) (A) (A) (A) (A) (A) (A)
                 (A) (A) (A) (A) (A) (A) (A) (A) (A) (A) (A) (A)
                 (A) (A) (A) (A) (A) (A) (A) (A) (A) (A) (A) (A)
                 (A) (A) (A) (A) (A) (A) (A) (A) (A) (A) (A) (A)
                 (A) (A) (A) (A) (A) (A) (A) (A) (A) (A) (A) (A)
                 (A) (A) (A) (A) (A) (A) (A) (A) (A) (A) (A) (A)
                 (A) (A) (A) (A) (A) (A) (A) (A) (A) (A) (A) (A)
                 (A) (A) (A) (A) (A) (A) (A) (A) (A) (A) (A) (A)
                 (A) (A) (A) (A) (A) (A) (A) (A) (A) (A) (A) (A)
                 (A) (A) (A) (A) (A) (A) (A) (A) (A) (A) (A) (A)
                 (A) (A) (A) (A) (A) (A) (A) (A) (A) (A) (A) (A)
                 (A) (A) (A) (A) (A) (A) (A) (A) (A) (A) (A) (A)
                 (A) (A) (A) (A) (A) (A) (A) (A) (A) (A) (A) (A)
                 (A) (A) (A) (A) (A) (A) (A) (A) (A) (A) (A) (A)
                 (A) (A) (A) (A) (A) (A) (A) (A) (A) (A) (A) (A)
                 (A) (A) (A) (A) (A) (A) (A) (A) (A) (A) (A) (A)
                 (A) (A) (A) (A) (A) (A) (A) (A)
    40 initial guesses have been made.
 Iteration     1 Dimension    40 NMult     0 NNew     40
 New state      1 was old state      2
 New state      2 was old state      1
[...]
         3         0.0001     -0.0002     -0.0332      0.0011      0.0002
         4         0.5779      0.0384     -0.0001      0.3355      0.0549
         5        -0.0198      0.0749      0.0000      0.0060      0.0010
         6        -0.2707     -0.0185      0.0000      0.0736      0.0125
         7         0.0000      0.0015     -0.0386      0.0015      0.0003
         8        -0.0166      0.4843     -0.0010      0.2348      0.0414
         9         0.0462     -0.6582      0.0015      0.4353      0.0784
        10         0.0002     -0.0030     -0.0225      0.0005      0.0001
 Ground to excited state transition velocity dipole moments (Au):
       state          X           Y           Z        Dip. S.      Osc.
         1        -0.0913     -0.0034      0.0000      0.0084      0.0247
         2        -0.0175     -0.0134      0.0001      0.0005      0.0014
         3         0.0000      0.0000      0.0076      0.0001      0.0002
         4        -0.1429     -0.0096      0.0000      0.0205      0.0557
         5         0.0049     -0.0191      0.0000      0.0004      0.0010
         6         0.0686      0.0047      0.0000      0.0047      0.0123
         7         0.0000     -0.0004      0.0103      0.0001      0.0003
         8         0.0043     -0.1277      0.0003      0.0163      0.0411
         9        -0.0124      0.1775     -0.0004      0.0317      0.0781
        10        -0.0001      0.0008      0.0059      0.0000      0.0001
 Ground to excited state transition magnetic dipole moments (Au):
       state          X           Y           Z
         1         0.0000      0.0002     -0.0153
         2         0.0001     -0.0008      0.0197
         3         0.0825     -0.7453      0.0000
         4        -0.0001      0.0001      0.0231
         5         0.0000     -0.0001     -0.3718
         6         0.0000      0.0000      0.0676
         7        -0.0322      0.3383      0.0035
         8         0.0000      0.0008      1.3592
         9         0.0001     -0.0020     -1.2937
        10         0.0093     -0.0241     -0.0061
 Ground to excited state transition velocity quadrupole moments (Au):
       state          XX          YY          ZZ          XY          XZ          YZ
         1         0.1472     -0.0023     -0.0048     -0.0791      0.0001      0.0000
         2        -0.0016      0.0265      0.0014      0.2242     -0.0003      0.0000
         3         0.0000      0.0000      0.0000     -0.0003     -0.0132     -0.0001
         4         1.6524     -0.0412     -0.0355      0.1107     -0.0001     -0.0001
         5         0.0152     -0.0112     -0.0058     -0.0296      0.0001      0.0000
         6        -0.0005     -0.0805     -0.0552      0.0378      0.0000      0.0000
         7         0.0000      0.0002     -0.0001      0.0024      0.1714      0.0206
         8        -0.0502      0.0629      0.0077      0.8261     -0.0020     -0.0001
         9         0.2647     -0.1756     -0.0032     -1.5024      0.0021      0.0001
        10         0.0014     -0.0007     -0.0001     -0.0064      0.0811      0.0109
 <0|del|b> * <b|rxdel|0> + <0|del|b> * <b|delr+rdel|0>
 Rotatory Strengths (R) in cgs (10**-40 erg-esu-cm/Gauss)
       state          XX          YY          ZZ    R(velocity)    E-M Angle
         1         0.0017      0.0008      0.0012      0.0012       90.00
         2         0.0316     -0.0216      0.0193      0.0098       90.00
         3        -0.0564      0.0018     -0.0576     -0.0374       90.00
         4         0.0013      0.0234      0.0014      0.0087       90.00
         5         0.0087      0.0025      0.0009      0.0040       90.00
         6         0.0009     -0.0023      0.0012     -0.0001       90.00
         7        -0.0081      0.0154     -0.2718     -0.0882       90.00
         8         0.2926      0.1863      0.2082      0.2290       89.92
         9         0.5734     -0.1159      0.0208      0.1594       89.95
        10        -0.2086      0.0006      0.0607     -0.0491       90.00
 1/2[<0|r|b>*<b|rxdel|0> + (<0|rxdel|b>*<b|r|0>)*]
 Rotatory Strengths (R) in cgs (10**-40 erg-esu-cm/Gauss)
       state          XX          YY          ZZ     R(length)
         1         0.0054     -0.0025      0.0008      0.0012
         2        -0.0076      0.0340      0.0035      0.0100
         3        -0.0039     -0.1115      0.0010     -0.0381
         4         0.0269     -0.0025      0.0015      0.0086
         5         0.0001      0.0068      0.0066      0.0045
         6        -0.0015      0.0006      0.0006     -0.0001
         7        -0.0002     -0.3585      0.0952     -0.0878
         8         0.0003     -0.2655      0.9609      0.2319
         9        -0.0020     -0.9193      1.3657      0.1481
        10        -0.0015     -0.0512     -0.0974     -0.0501
  1/2[<0|del|b>*<b|r|0> + (<0|r|b>*<b|del|0>)*] (Au)
       state          X           Y           Z        Dip. S.   Osc.(frdel)
         1        -0.0375     -0.0001      0.0000      0.0375      0.0250
         2        -0.0014     -0.0008      0.0000      0.0022      0.0014
         3         0.0000      0.0000     -0.0003      0.0003      0.0002
         4        -0.0826     -0.0004      0.0000      0.0829      0.0553
         5        -0.0001     -0.0014      0.0000      0.0015      0.0010
         6        -0.0186     -0.0001      0.0000      0.0187      0.0124
         7         0.0000      0.0000     -0.0004      0.0004      0.0003
         8        -0.0001     -0.0618      0.0000      0.0619      0.0413
         9        -0.0006     -0.1168      0.0000      0.1174      0.0783
        10         0.0000      0.0000     -0.0001      0.0001      0.0001

 Excitation energies and oscillator strengths:
 
 Excited State   1:      Singlet-A      6.1404 eV  201.91 nm  f=0.0254  <S**2>=0.000
      32 -> 33        -0.29434
      32 -> 34         0.60881
      32 -> 37        -0.17130
 
 Excited State   2:      Singlet-A      6.2185 eV  199.38 nm  f=0.0015  <S**2>=0.000
      31 -> 33        -0.10766
      32 -> 33         0.62601
      32 -> 34         0.28975
 This state for optimization and/or second-order correction.
 Total Energy, E(TD-HF/TD-KS) =  -554.107452858    
 Copying the excited state density for this state as the 1-particle RhoCI density.
 
 Excited State   3:      Singlet-A      6.4828 eV  191.25 nm  f=0.0002  <S**2>=0.000
      32 -> 36         0.56593
      32 -> 39         0.37051
      32 -> 46        -0.16496
 
 Excited State   4:      Singlet-A      6.6768 eV  185.69 nm  f=0.0549  <S**2>=0.000
      31 -> 34         0.64306
      31 -> 37         0.13905
      32 -> 37         0.21248
 
 Excited State   5:      Singlet-A      6.9041 eV  179.58 nm  f=0.0010  <S**2>=0.000
      32 -> 35         0.67802
      32 -> 40         0.13263
 
 Excited State   6:      Singlet-A      6.9550 eV  178.27 nm  f=0.0125  <S**2>=0.000
      31 -> 34        -0.21991
      32 -> 34         0.17727
      32 -> 37         0.63508
 
 Excited State   7:      Singlet-A      7.1840 eV  172.58 nm  f=0.0003  <S**2>=0.000
      31 -> 36         0.55173
      32 -> 36         0.28307
      32 -> 39        -0.30770
 
 Excited State   8:      Singlet-A      7.1994 eV  172.22 nm  f=0.0414  <S**2>=0.000
      31 -> 33         0.43053
      31 -> 35         0.49951
      31 -> 38        -0.15307
      32 -> 38        -0.12153
 
 Excited State   9:      Singlet-A      7.3479 eV  168.74 nm  f=0.0784  <S**2>=0.000
      31 -> 33        -0.42791
      31 -> 35         0.43950
      31 -> 37        -0.11256
      31 -> 38         0.14999
      31 -> 40        -0.16071
      32 -> 40        -0.18963
 
 Excited State  10:      Singlet-A      7.3804 eV  167.99 nm  f=0.0001  <S**2>=0.000
      31 -> 36         0.41617
      32 -> 36        -0.30480
      32 -> 39         0.45141
      32 -> 46        -0.12592
 SavETr:  write IOETrn=   770 NScale= 10 NData=  16 NLR=1 NState=   10 LETran=     190.

 **********************************************************************

            Population analysis using the SCF density.

 **********************************************************************

 Orbital symmetries:
       Occupied  (A) (A) (A) (A) (A) (A) (A) (A) (A) (A) (A) (A)
                 (A) (A) (A) (A) (A) (A) (A) (A) (A) (A) (A) (A)
                 (A) (A) (A) (A) (A) (A) (A) (A)
       Virtual   (A) (A) (A) (A) (A) (A) (A) (A) (A) (A) (A) (A)
                 (A) (A) (A) (A) (A) (A) (A) (A) (A) (A) (A) (A)
                 (A) (A) (A) (A) (A) (A) (A) (A) (A) (A) (A) (A)
                 (A) (A) (A) (A) (A) (A) (A) (A) (A) (A) (A) (A)
                 (A) (A) (A) (A) (A) (A) (A) (A) (A) (A) (A) (A)
                 (A) (A) (A) (A) (A) (A) (A) (A) (A) (A) (A) (A)
                 (A) (A) (A) (A) (A) (A) (A) (A) (A) (A) (A) (A)
                 (A) (A) (A) (A) (A) (A) (A) (A) (A) (A) (A) (A)
                 (A) (A) (A) (A) (A) (A) (A) (A) (A) (A) (A) (A)
                 (A) (A) (A) (A) (A) (A) (A) (A) (A) (A) (A) (A)
                 (A) (A) (A) (A) (A) (A) (A) (A) (A) (A) (A) (A)
                 (A) (A) (A) (A) (A) (A) (A) (A) (A) (A) (A) (A)
                 (A) (A) (A) (A) (A) (A) (A) (A) (A) (A) (A) (A)
                 (A) (A) (A) (A) (A) (A) (A) (A) (A) (A) (A) (A)
                 (A) (A) (A) (A) (A) (A) (A) (A) (A) (A) (A) (A)
                 (A) (A) (A) (A) (A) (A) (A) (A) (A) (A) (A) (A)
                 (A) (A) (A) (A) (A) (A) (A) (A) (A) (A) (A) (A)
                 (A) (A) (A) (A) (A) (A) (A) (A) (A) (A) (A) (A)
                 (A) (A) (A) (A) (A) (A) (A) (A) (A) (A) (A) (A)
                 (A) (A) (A) (A) (A) (A) (A) (A) (A) (A) (A) (A)
                 (A) (A) (A) (A) (A) (A) (A) (A) (A) (A) (A) (A)
                 (A) (A) (A) (A) (A) (A) (A) (A) (A) (A) (A) (A)
                 (A) (A) (A) (A) (A) (A) (A) (A) (A) (A) (A) (A)
                 (A) (A) (A) (A) (A) (A) (A) (A) (A) (A) (A) (A)
                 (A) (A) (A) (A) (A) (A) (A) (A) (A) (A) (A) (A)
                 (A) (A) (A) (A) (A) (A) (A) (A) (A) (A) (A) (A)
                 (A) (A) (A) (A) (A) (A) (A) (A) (A) (A) (A) (A)
                 (A) (A) (A) (A) (A) (A) (A) (A) (A) (A) (A) (A)
                 (A) (A) (A) (A) (A) (A) (A) (A) (A) (A) (A) (A)
                 (A) (A) (A) (A) (A) (A) (A) (A) (A) (A) (A) (A)
                 (A) (A) (A) (A) (A) (A) (A) (A) (A) (A) (A) (A)
                 (A) (A) (A) (A) (A) (A) (A) (A) (A) (A) (A) (A)
                 (A) (A) (A) (A) (A) (A) (A) (A) (A) (A) (A) (A)
                 (A) (A) (A) (A) (A) (A) (A) (A) (A) (A) (A) (A)
                 (A) (A) (A) (A) (A) (A) (A) (A) (A) (A) (A) (A)
                 (A) (A) (A) (A) (A) (A) (A) (A)
 The electronic state is 1-A.
 Alpha  occ. eigenvalues --  -24.75101 -24.75100 -24.75088 -24.75086 -10.36760
 Alpha  occ. eigenvalues --  -10.36661 -10.18059 -10.17960  -1.32331  -1.30949
 Alpha  occ. eigenvalues --   -1.26695  -1.25625  -0.82034  -0.77173  -0.67816
 Alpha  occ. eigenvalues --   -0.63483  -0.62709  -0.58921  -0.58358  -0.57188
 Alpha  occ. eigenvalues --   -0.52925  -0.50254  -0.48105  -0.47915  -0.47437
 Alpha  occ. eigenvalues --   -0.47037  -0.46580  -0.45081  -0.43191  -0.36446
 Alpha  occ. eigenvalues --   -0.28813  -0.27139
 Alpha virt. eigenvalues --   -0.01729  -0.01289   0.00603   0.00712   0.00828
 Alpha virt. eigenvalues --    0.01695   0.02851   0.03248   0.03914   0.05129
 Alpha virt. eigenvalues --    0.05622   0.07216   0.07700   0.07736   0.07831
 Alpha virt. eigenvalues --    0.07959   0.08925   0.09117   0.09271   0.09711
 Alpha virt. eigenvalues --    0.11626   0.12211   0.12466   0.12540   0.13557
 Alpha virt. eigenvalues --    0.14559   0.16167   0.17267   0.17517   0.17895
 Alpha virt. eigenvalues --    0.18316   0.19538   0.19741   0.20883   0.21376
 Alpha virt. eigenvalues --    0.22073   0.22396   0.23299   0.23794   0.24121
 Alpha virt. eigenvalues --    0.24559   0.26388   0.27081   0.27291   0.27686
 Alpha virt. eigenvalues --    0.27715   0.28468   0.29167   0.29820   0.30381
 Alpha virt. eigenvalues --    0.30563   0.31058   0.31120   0.32728   0.33327
 Alpha virt. eigenvalues --    0.33372   0.33561   0.34660   0.35240   0.36002
 Alpha virt. eigenvalues --    0.36478   0.38248   0.38689   0.39100   0.40062
 Alpha virt. eigenvalues --    0.41019   0.41442   0.43323   0.44329   0.44633
 Alpha virt. eigenvalues --    0.44819   0.45628   0.46311   0.48296   0.48504
 Alpha virt. eigenvalues --    0.49745   0.49877   0.49909   0.52075   0.54754
 Alpha virt. eigenvalues --    0.55933   0.56654   0.57338   0.59823   0.61194
 Alpha virt. eigenvalues --    0.62473   0.62607   0.63461   0.66376   0.67244
 Alpha virt. eigenvalues --    0.68609   0.69667   0.69937   0.71038   0.71204
 Alpha virt. eigenvalues --    0.73765   0.73828   0.75961   0.76985   0.78657
 Alpha virt. eigenvalues --    0.78980   0.79760   0.80634   0.80828   0.81258
 Alpha virt. eigenvalues --    0.81769   0.84181   0.84556   0.84583   0.85211
 Alpha virt. eigenvalues --    0.86114   0.86937   0.87620   0.87952   0.88145
 Alpha virt. eigenvalues --    0.88832   0.89829   0.91391   0.91817   0.92146
 Alpha virt. eigenvalues --    0.94199   0.94526   0.95350   0.95452   0.95947
 Alpha virt. eigenvalues --    0.97782   0.97893   0.98620   0.98685   1.00504
 Alpha virt. eigenvalues --    1.02110   1.02478   1.03177   1.03494   1.04717
 Alpha virt. eigenvalues --    1.06052   1.07307   1.08625   1.08871   1.09850
 Alpha virt. eigenvalues --    1.11593   1.13070   1.13077   1.14986   1.15377
 Alpha virt. eigenvalues --    1.15878   1.16641   1.18313   1.18529   1.21086
 Alpha virt. eigenvalues --    1.21304   1.22095   1.22870   1.24666   1.27011
 Alpha virt. eigenvalues --    1.29548   1.31484   1.32646   1.33115   1.35733
 Alpha virt. eigenvalues --    1.37152   1.39764   1.41080   1.41361   1.41926
 Alpha virt. eigenvalues --    1.44077   1.45316   1.46030   1.46502   1.47976
 Alpha virt. eigenvalues --    1.48563   1.48940   1.50848   1.51777   1.52703
 Alpha virt. eigenvalues --    1.53055   1.53522   1.54682   1.55074   1.55740
 Alpha virt. eigenvalues --    1.56870   1.58863   1.62259   1.62995   1.63749
 Alpha virt. eigenvalues --    1.65279   1.66857   1.67448   1.72626   1.74237
 Alpha virt. eigenvalues --    1.74957   1.75084   1.78248   1.79085   1.85085
 Alpha virt. eigenvalues --    1.87816   1.89135   1.89224   1.91038   1.92448
 Alpha virt. eigenvalues --    1.94256   1.99578   2.00103   2.07455   2.08876
 Alpha virt. eigenvalues --    2.12063   2.14392   2.16447   2.17142   2.23071
 Alpha virt. eigenvalues --    2.24219   2.31829   2.35237   2.38898   2.39255
 Alpha virt. eigenvalues --    2.44046   2.45323   2.52074   2.52346   2.52596
 Alpha virt. eigenvalues --    2.53386   2.55143   2.56448   2.57009   2.58190
 Alpha virt. eigenvalues --    2.60993   2.61311   2.63077   2.64629   2.68375
 Alpha virt. eigenvalues --    2.68564   2.69315   2.71804   2.73755   2.73959
 Alpha virt. eigenvalues --    2.76149   2.79594   2.82985   2.84686   2.84790
 Alpha virt. eigenvalues --    2.86356   2.86779   2.87050   2.88743   2.90198
 Alpha virt. eigenvalues --    2.91545   2.93023   2.93549   2.98177   2.99298
 Alpha virt. eigenvalues --    2.99963   3.00021   3.00304   3.00948   3.04288
 Alpha virt. eigenvalues --    3.08447   3.08584   3.09005   3.09463   3.11938
 Alpha virt. eigenvalues --    3.11959   3.12275   3.13505   3.14834   3.15918
 Alpha virt. eigenvalues --    3.16570   3.17056   3.18588   3.23149   3.23201
 Alpha virt. eigenvalues --    3.25149   3.26003   3.29434   3.29919   3.34211
 Alpha virt. eigenvalues --    3.34770   3.37632   3.39519   3.40565   3.40982
 Alpha virt. eigenvalues --    3.45024   3.45685   3.45908   3.46598   3.47767
 Alpha virt. eigenvalues --    3.48474   3.51475   3.53185   3.53584   3.55044
 Alpha virt. eigenvalues --    3.57613   3.63435   3.64731   3.65861   3.66688
 Alpha virt. eigenvalues --    3.66748   3.67673   3.69646   3.70753   3.71518
 Alpha virt. eigenvalues --    3.75614   3.77327   3.78853   3.84408   3.87017
 Alpha virt. eigenvalues --    3.87170   3.87272   3.88903   3.92541   3.98369
 Alpha virt. eigenvalues --    4.02310   4.06672   4.06856   4.10348   4.17961
 Alpha virt. eigenvalues --    4.18417   4.19641   4.20363   4.23489   4.24559
 Alpha virt. eigenvalues --    4.24878   4.28711   4.32958   4.35244   4.38252
 Alpha virt. eigenvalues --    4.43147   4.43741   4.46149   4.47651   4.51361
 Alpha virt. eigenvalues --    4.58335   4.59172   4.61967   4.63124   4.64089
 Alpha virt. eigenvalues --    4.67189   4.70313   4.75018   4.79627   4.82439
 Alpha virt. eigenvalues --    4.87043   4.90051   4.91155   4.91527   4.95337
 Alpha virt. eigenvalues --    4.96915   4.97437   4.99795   5.00760   5.11720
 Alpha virt. eigenvalues --    5.13999   5.16273   5.17255   5.20788   5.22615
 Alpha virt. eigenvalues --    5.23242   5.25185   5.28806   5.29978   5.58942
 Alpha virt. eigenvalues --    5.64437   5.69436   5.97555   6.09400   6.16873
 Alpha virt. eigenvalues --    6.19025   6.29868   6.39867   6.51275   6.60573
 Alpha virt. eigenvalues --    6.83177   6.98826   8.27212   8.27397   8.33921
 Alpha virt. eigenvalues --    8.34264   8.34878   8.35426   8.38235   8.40822
 Alpha virt. eigenvalues --    8.45718   8.50274   8.54654   8.58570   8.65174
 Alpha virt. eigenvalues --    8.65401   8.68079   8.68219   8.69566   8.70566
 Alpha virt. eigenvalues --    8.71042   8.71879   8.72502   8.73052   8.73402
 Alpha virt. eigenvalues --    8.74565   8.76485   8.77840   8.78415   8.82167
 Alpha virt. eigenvalues --    8.82620   8.86648   8.87113   8.87695   8.88949
 Alpha virt. eigenvalues --    8.94990   8.95006   8.97175   9.01887   9.02481
 Alpha virt. eigenvalues --    9.02973   9.12804   9.14892   9.19795   9.21545
 Alpha virt. eigenvalues --    9.24974   9.26672   9.38929   9.48620   9.54852
 Alpha virt. eigenvalues --   11.89234  13.67652  14.62111  16.13248  16.29383
 Alpha virt. eigenvalues --   16.63763  16.94515  17.00807
          Condensed to atoms (all electrons):
 Mulliken charges:
               1
     1  C   -0.640679
     2  H    0.318038
     3  H    0.318123
     4  C   -0.637159
     5  H    0.319425
     6  H    0.319279
     7  C    0.599261
     8  C    0.585414
     9  F   -0.295441
    10  F   -0.295282
    11  F   -0.295424
    12  F   -0.295555
 Sum of Mulliken charges =   0.00000
 Mulliken charges with hydrogens summed into heavy atoms:
               1
     1  C   -0.004517
     4  C    0.001545
     7  C    0.599261
     8  C    0.585414
     9  F   -0.295441
    10  F   -0.295282
    11  F   -0.295424
    12  F   -0.295555
 Electronic spatial extent (au):  <R**2>=           1260.9568
 Charge=              0.0000 electrons
 Dipole moment (field-independent basis, Debye):
    X=             -0.1605    Y=              0.0043    Z=             -0.0001  Tot=              0.1606
 1\1\GINC-TC-NODE164\SP\RB3LYP TD-FC\Aug-CC-pVTZ\C4H4F4\EPKTB\08-Nov-20
 16\0\\#td=(singlet,nstates=10,root=2) b3lyp/aug-cc-pvtz geom=allcheck\
 \Title\\0,1\C,0,-0.0110011707,-0.0006908479,-0.0074338249\H,0,0.017217
 7338,-0.0032348228,1.0747005437\H,0,0.944476881,-0.0026355333,-0.51623
 2753\C,0,-1.1558653132,0.0012868503,-0.6747081781\H,0,-2.1112411914,0.
 0001840391,-0.1656780376\H,0,-1.1837983633,0.0008689429,-1.7568719612\
 C,0,-0.2055936506,3.9939955935,-0.1214388024\C,0,-1.3474739398,3.99907
 67409,-0.7836124474\F,0,0.9760297482,3.9882151778,-0.7086016155\F,0,-0
 .1281943566,3.9880383543,1.1957201346\F,0,-1.4249777018,3.9995893828,-
 2.1010538188\F,0,-2.5294016464,3.9991803325,-0.1964288162\\Version=ES6
 4L-G09RevD.01\State=1-A\HF=-554.3359775\RMSD=7.606e-09\PG=C01 [X(C4H4F
 4)]\\@


 EXPERIENCE IS THE FRUIT OF THE TREE OF ERRORS.
 Job cpu time:       0 days  2 hours 50 minutes 14.6 seconds.
 File lengths (MBytes):  RWF=    319 Int=      0 D2E=      0 Chk=     67 Scr=      1
 Normal termination of Gaussian 09 at Tue Nov  8 11:56:37 2016.
