 Entering Gaussian System, Link 0=g09
 Initial command:
 /cluster/software/gaussian/gaussian-09-D.01/g09/l1.exe "/local/scratch/maxb2/Gau-7276.inp" -scrdir="/local/scratch/maxb2/"
 Entering Link 1 = /cluster/software/gaussian/gaussian-09-D.01/g09/l1.exe PID=      7277.
  
 Copyright (c) 1988,1990,1992,1993,1995,1998,2003,2009,2013,
            Gaussian, Inc.  All Rights Reserved.
  
 This is part of the Gaussian(R) 09 program.  It is based on
 the Gaussian(R) 03 system (copyright 2003, Gaussian, Inc.),
 the Gaussian(R) 98 system (copyright 1998, Gaussian, Inc.),
 the Gaussian(R) 94 system (copyright 1995, Gaussian, Inc.),
 the Gaussian 92(TM) system (copyright 1992, Gaussian, Inc.),
 the Gaussian 90(TM) system (copyright 1990, Gaussian, Inc.),
 the Gaussian 88(TM) system (copyright 1988, Gaussian, Inc.),
 the Gaussian 86(TM) system (copyright 1986, Carnegie Mellon
 University), and the Gaussian 82(TM) system (copyright 1983,
 Carnegie Mellon University). Gaussian is a federally registered
 trademark of Gaussian, Inc.
  
 This software contains proprietary and confidential information,
 including trade secrets, belonging to Gaussian, Inc.
  
 This software is provided under written license and may be
 used, copied, transmitted, or stored only in accord with that
 written license.
  
 The following legend is applicable only to US Government
 contracts under FAR:
  
                    RESTRICTED RIGHTS LEGEND
  
 Use, reproduction and disclosure by the US Government is
 subject to restrictions as set forth in subparagraphs (a)
 and (c) of the Commercial Computer Software - Restricted
 Rights clause in FAR 52.227-19.
  
 Gaussian, Inc.
 340 Quinnipiac St., Bldg. 40, Wallingford CT 06492
  
  
 ---------------------------------------------------------------
 Warning -- This program may not be used in any manner that
 competes with the business of Gaussian, Inc. or will provide
 assistance to any competitor of Gaussian, Inc.  The licensee
 of this program is prohibited from giving any competitor of
 Gaussian, Inc. access to this program.  By using this program,
 the user acknowledges that Gaussian, Inc. is engaged in the
 business of creating and licensing software in the field of
 computational chemistry and represents and warrants to the
 licensee that it is not a competitor of Gaussian, Inc. and that
 it will not use this program in any manner prohibited above.
 ---------------------------------------------------------------
  

 Cite this work as:
 Gaussian 09, Revision D.01,
 M. J. Frisch, G. W. Trucks, H. B. Schlegel, G. E. Scuseria, 
 M. A. Robb, J. R. Cheeseman, G. Scalmani, V. Barone, B. Mennucci, 
 G. A. Petersson, H. Nakatsuji, M. Caricato, X. Li, H. P. Hratchian, 
 A. F. Izmaylov, J. Bloino, G. Zheng, J. L. Sonnenberg, M. Hada, 
 M. Ehara, K. Toyota, R. Fukuda, J. Hasegawa, M. Ishida, T. Nakajima, 
 Y. Honda, O. Kitao, H. Nakai, T. Vreven, J. A. Montgomery, Jr., 
 J. E. Peralta, F. Ogliaro, M. Bearpark, J. J. Heyd, E. Brothers, 
 K. N. Kudin, V. N. Staroverov, T. Keith, R. Kobayashi, J. Normand, 
 K. Raghavachari, A. Rendell, J. C. Burant, S. S. Iyengar, J. Tomasi, 
 M. Cossi, N. Rega, J. M. Millam, M. Klene, J. E. Knox, J. B. Cross, 
 V. Bakken, C. Adamo, J. Jaramillo, R. Gomperts, R. E. Stratmann, 
 O. Yazyev, A. J. Austin, R. Cammi, C. Pomelli, J. W. Ochterski, 
 R. L. Martin, K. Morokuma, V. G. Zakrzewski, G. A. Voth, 
 P. Salvador, J. J. Dannenberg, S. Dapprich, A. D. Daniels, 
 O. Farkas, J. B. Foresman, J. V. Ortiz, J. Cioslowski, 
 and D. J. Fox, Gaussian, Inc., Wallingford CT, 2013.
 
 ******************************************
 Gaussian 09:  ES64L-G09RevD.01 24-Apr-2013
                16-Nov-2016 
 ******************************************
 %nprocshared=8
 Will use up to    8 processors via shared memory.
 %mem=6GB
 %chk=c2h4-c2f4-camb3lyp-aug
 --------------------------------------------------------
 # opt freq=raman cam-b3lyp/aug-cc-pvtz geom=connectivity
 --------------------------------------------------------
 1/14=-1,18=20,19=15,26=3,38=1,57=2/1,3;
 2/9=110,12=2,17=6,18=5,40=1/2;
 3/5=16,6=1,7=10,11=2,16=1,25=1,30=1,71=1,74=-40/1,2,3;
 4//1;
 5/5=2,38=5/2;
 6/7=2,8=2,9=2,10=2,28=1/1;
 7//1,2,3,16;
 1/14=-1,18=20,19=15,26=3/3(2);
 2/9=110/2;
 99//99;
 2/9=110/2;
 3/5=16,6=1,7=10,11=2,16=1,25=1,30=1,71=1,74=-40/1,2,3;
 4/5=5,16=3,69=1/1;
 5/5=2,38=5/2;
 7//1,2,3,16;
 1/14=-1,18=20,19=15,26=3/3(-5);
 2/9=110/2;
 6/7=2,8=2,9=2,10=2,19=2,28=1/1;
 99/9=1/99;
 -----
 Title
 -----
 Symbolic Z-matrix:
 Charge =  0 Multiplicity = 1
 C
 H                    1    B1
 H                    1    B2       2    A1
 C                    1    B3       3    A2       2    D1       0
 H                    4    B4       1    A3       3    D2       0
 H                    4    B5       1    A4       3    D3       0
 C                    1    B6       4    A5       6    D4       0
 C                    7    B7       1    A6       4    D5       0
 F                    7    B8       1    A7       4    D6       0
 F                    7    B9       1    A8       4    D7       0
 F                    8    B10      7    A9       1    D8       0
 F                    8    B11      7    A10      1    D9       0
       Variables:
  B1                    1.07                     
  B2                    1.07                     
  B3                    1.3552                   
  B4                    1.07                     
  B5                    1.07                     
  B6                    4.                       
  B7                    1.3552                   
  B8                    1.35                     
  B9                    1.35                     
  B10                   1.35                     
  B11                   1.35                     
  A1                  119.88653                  
  A2                  119.88653                  
  A3                  120.22695                  
  A4                  119.88653                  
  A5                   86.85591                  
  A6                   93.14409                  
  A7                   88.43394                  
  A8                   88.41777                  
  A9                  120.22695                  
  A10                 119.88653                  
  D1                 -180.                       
  D2                  180.                       
  D3                    0.                       
  D4                   90.                       
  D5                    0.                       
  D6                 -119.84925                  
  D7                  120.18942                  
  D8                  -90.                       
  D9                   90.                       
 
 Add virtual bond connecting atoms C7         and C1         Dist= 7.56D+00.
 Add virtual bond connecting atoms C7         and C4         Dist= 7.85D+00.
 Add virtual bond connecting atoms C8         and C4         Dist= 7.56D+00.
 Add virtual bond connecting atoms C8         and H5         Dist= 7.77D+00.
 Add virtual bond connecting atoms C8         and H6         Dist= 7.77D+00.

 GradGradGradGradGradGradGradGradGradGradGradGradGradGradGradGradGradGrad
 Berny optimization.
 Initialization pass.
                           ----------------------------
                           !    Initial Parameters    !
                           ! (Angstroms and Degrees)  !
 --------------------------                            --------------------------
 ! Name  Definition              Value          Derivative Info.                !
 --------------------------------------------------------------------------------
 ! R1    R(1,2)                  1.07           estimate D2E/DX2                !
 ! R2    R(1,3)                  1.07           estimate D2E/DX2                !
 ! R3    R(1,4)                  1.3552         estimate D2E/DX2                !
 ! R4    R(1,7)                  4.0            estimate D2E/DX2                !
 ! R5    R(4,5)                  1.07           estimate D2E/DX2                !
 ! R6    R(4,6)                  1.07           estimate D2E/DX2                !
 ! R7    R(4,7)                  4.1523         estimate D2E/DX2                !
 ! R8    R(4,8)                  4.0            estimate D2E/DX2                !
 ! R9    R(5,8)                  4.112          estimate D2E/DX2                !
 ! R10   R(6,8)                  4.1123         estimate D2E/DX2                !
 ! R11   R(7,8)                  1.3552         estimate D2E/DX2                !
 ! R12   R(7,9)                  1.35           estimate D2E/DX2                !
 ! R13   R(7,10)                 1.35           estimate D2E/DX2                !
 ! R14   R(8,11)                 1.35           estimate D2E/DX2                !
 ! R15   R(8,12)                 1.35           estimate D2E/DX2                !
 ! A1    A(2,1,3)              119.8865         estimate D2E/DX2                !
 ! A2    A(2,1,4)              120.2269         estimate D2E/DX2                !
 ! A3    A(2,1,7)               91.5822         estimate D2E/DX2                !
 ! A4    A(3,1,4)              119.8865         estimate D2E/DX2                !
 ! A5    A(3,1,7)               91.5661         estimate D2E/DX2                !
 ! A6    A(1,4,5)              120.2269         estimate D2E/DX2                !
 ! A7    A(1,4,6)              119.8865         estimate D2E/DX2                !
 ! A8    A(1,4,8)               93.1441         estimate D2E/DX2                !
 ! A9    A(5,4,6)              119.8865         estimate D2E/DX2                !
 ! A10   A(5,4,7)               97.9151         estimate D2E/DX2                !
 ! A11   A(6,4,7)               97.8337         estimate D2E/DX2                !
 ! A12   A(1,7,8)               93.1441         estimate D2E/DX2                !
 ! A13   A(1,7,9)               88.4339         estimate D2E/DX2                !
 ! A14   A(1,7,10)              88.4178         estimate D2E/DX2                !
 ! A15   A(4,7,9)               97.8337         estimate D2E/DX2                !
 ! A16   A(4,7,10)              97.9151         estimate D2E/DX2                !
 ! A17   A(8,7,9)              119.8865         estimate D2E/DX2                !
 ! A18   A(8,7,10)             120.2269         estimate D2E/DX2                !
 ! A19   A(9,7,10)             119.8865         estimate D2E/DX2                !
 ! A20   A(4,8,11)              91.5822         estimate D2E/DX2                !
 ! A21   A(4,8,12)              91.5661         estimate D2E/DX2                !
 ! A22   A(5,8,6)               26.031          estimate D2E/DX2                !
 ! A23   A(5,8,7)               94.4532         estimate D2E/DX2                !
 ! A24   A(5,8,11)              98.9271         estimate D2E/DX2                !
 ! A25   A(5,8,12)              76.4895         estimate D2E/DX2                !
 ! A26   A(6,8,7)               94.376          estimate D2E/DX2                !
 ! A27   A(6,8,11)              76.5066         estimate D2E/DX2                !
 ! A28   A(6,8,12)              99.066          estimate D2E/DX2                !
 ! A29   A(7,8,11)             120.2269         estimate D2E/DX2                !
 ! A30   A(7,8,12)             119.8865         estimate D2E/DX2                !
 ! A31   A(11,8,12)            119.8865         estimate D2E/DX2                !
 ! D1    D(2,1,4,5)              0.0            estimate D2E/DX2                !
 ! D2    D(2,1,4,6)            180.0            estimate D2E/DX2                !
 ! D3    D(2,1,4,8)             90.0            estimate D2E/DX2                !
 ! D4    D(3,1,4,5)            180.0            estimate D2E/DX2                !
 ! D5    D(3,1,4,6)              0.0            estimate D2E/DX2                !
 ! D6    D(3,1,4,8)            -90.0            estimate D2E/DX2                !
 ! D7    D(2,1,7,8)           -120.1894         estimate D2E/DX2                !
 ! D8    D(2,1,7,9)            119.9613         estimate D2E/DX2                !
 ! D9    D(2,1,7,10)             0.0            estimate D2E/DX2                !
 ! D10   D(3,1,7,8)            119.8493         estimate D2E/DX2                !
 ! D11   D(3,1,7,9)              0.0            estimate D2E/DX2                !
 ! D12   D(3,1,7,10)          -119.9613         estimate D2E/DX2                !
 ! D13   D(5,4,7,9)           -179.6663         estimate D2E/DX2                !
 ! D14   D(5,4,7,10)            58.5345         estimate D2E/DX2                !
 ! D15   D(6,4,7,9)            -57.8671         estimate D2E/DX2                !
 ! D16   D(6,4,7,10)          -179.6663         estimate D2E/DX2                !
 ! D17   D(1,4,8,11)           120.1894         estimate D2E/DX2                !
 ! D18   D(1,4,8,12)          -119.8493         estimate D2E/DX2                !
 ! D19   D(1,7,8,5)             13.0332         estimate D2E/DX2                !
 ! D20   D(1,7,8,6)            -13.0765         estimate D2E/DX2                !
 ! D21   D(1,7,8,11)           -90.0            estimate D2E/DX2                !
 ! D22   D(1,7,8,12)            90.0            estimate D2E/DX2                !
 ! D23   D(9,7,8,5)            103.0332         estimate D2E/DX2                !
 ! D24   D(9,7,8,6)             76.9235         estimate D2E/DX2                !
 ! D25   D(9,7,8,11)             0.0            estimate D2E/DX2                !
 ! D26   D(9,7,8,12)           180.0            estimate D2E/DX2                !
 ! D27   D(10,7,8,5)           -76.9668         estimate D2E/DX2                !
 ! D28   D(10,7,8,6)          -103.0765         estimate D2E/DX2                !
 ! D29   D(10,7,8,11)          180.0            estimate D2E/DX2                !
 ! D30   D(10,7,8,12)            0.0            estimate D2E/DX2                !
 --------------------------------------------------------------------------------
 Trust Radius=3.00D-01 FncErr=1.00D-07 GrdErr=1.00D-06
 Number of steps in this run=     86 maximum allowed number of steps=    100.
 GradGradGradGradGradGradGradGradGradGradGradGradGradGradGradGradGradGrad

                          Input orientation:                          
 ---------------------------------------------------------------------
 Center     Atomic      Atomic             Coordinates (Angstroms)
 Number     Number       Type             X           Y           Z
 ---------------------------------------------------------------------
      1          6           0        0.000000    0.000000    0.000000
      2          1           0        0.000000    0.000000    1.070000
      3          1           0        0.927705    0.000000   -0.533164
      4          6           0       -1.170944    0.000000   -0.682243
      5          1           0       -2.101801    0.000000   -0.154601
      6          1           0       -1.164587    0.000000   -1.752225
      7          6           0       -0.189560    3.993979   -0.110446
      8          6           0       -1.360505    3.993979   -0.792690
      9          9           0        0.980908    3.993979   -0.783129
     10          9           0       -0.189560    3.993979    1.239554
     11          9           0       -1.360505    3.993979   -2.142690
     12          9           0       -2.530974    3.993979   -0.120006
 ---------------------------------------------------------------------
                    Distance matrix (angstroms):
                    1          2          3          4          5
     1  C    0.000000
     2  H    1.070000   0.000000
     3  H    1.070000   1.852234   0.000000
     4  C    1.355200   2.107479   2.103938   0.000000
     5  H    2.107479   2.432532   3.053066   1.070000   0.000000
     6  H    2.103938   3.053066   2.421527   1.070000   1.852234
     7  C    4.000000   4.169083   4.168794   4.152341   4.428372
     8  C    4.293157   4.612207   4.610328   4.000000   4.112000
     9  F    4.186567   4.510891   4.002147   4.537898   5.084291
    10  F    4.186203   4.002068   4.510286   4.539635   4.642435
    11  F    4.732226   5.303227   4.876305   4.256842   4.522597
    12  F    4.729915   4.875840   5.299531   4.256484   4.017120
                    6          7          8          9         10
     6  H    0.000000
     7  C    4.426961   0.000000
     8  C    4.112294   1.355200   0.000000
     9  F    4.636180   1.350000   2.341433   0.000000
    10  F    5.084612   1.350000   2.345448   2.336931   0.000000
    11  F    4.017800   2.345448   1.350000   2.707512   3.579201
    12  F    4.525817   2.341433   1.350000   3.573940   2.707512
                   11         12
    11  F    0.000000
    12  F    2.336931   0.000000
 Stoichiometry    C4H4F4
 Framework group  C1[X(C4H4F4)]
 Deg. of freedom    30
 Full point group                 C1      NOp   1
 Largest Abelian subgroup         C1      NOp   1
 Largest concise Abelian subgroup C1      NOp   1
                         Standard orientation:                         
 ---------------------------------------------------------------------
 Center     Atomic      Atomic             Coordinates (Angstroms)
 Number     Number       Type             X           Y           Z
 ---------------------------------------------------------------------
      1          6           0       -3.062519    0.550552    0.000481
      2          1           0       -3.114158    1.088234   -0.923170
      3          1           0       -3.113822    1.079738    0.929045
      4          6           0       -2.932361   -0.798381   -0.001704
      5          1           0       -2.880530   -1.333050   -0.927093
      6          1           0       -2.881250   -1.330592    0.925140
      7          6           0        0.934068    0.715772    0.001164
      8          6           0        1.064226   -0.633162   -0.001022
      9          9           0        0.869340    1.383436    1.172716
     10          9           0        0.868915    1.394156   -1.164190
     11          9           0        1.129379   -1.311546    1.164332
     12          9           0        1.128953   -1.300826   -1.172574
 ---------------------------------------------------------------------
 Rotational constants (GHZ):      1.8478192      1.1023159      0.9764892
 Standard basis: Aug-CC-pVTZ (5D, 7F)
 There are   540 symmetry adapted cartesian basis functions of A   symmetry.
 There are   460 symmetry adapted basis functions of A   symmetry.
   460 basis functions,   684 primitive gaussians,   540 cartesian basis functions
    32 alpha electrons       32 beta electrons
       nuclear repulsion energy       365.9518417123 Hartrees.
 NAtoms=   12 NActive=   12 NUniq=   12 SFac= 1.00D+00 NAtFMM=   60 NAOKFM=F Big=F
 Integral buffers will be    131072 words long.
 Raffenetti 2 integral format.
 Two-electron integral symmetry is turned on.
 One-electron integrals computed using PRISM.
 NBasis=   460 RedAO= T EigKep=  4.23D-06  NBF=   460
 NBsUse=   460 1.00D-06 EigRej= -1.00D+00 NBFU=   460
 ExpMin= 2.53D-02 ExpMax= 1.95D+04 ExpMxC= 6.65D+02 IAcc=3 IRadAn=         5 AccDes= 0.00D+00
 Harris functional with IExCor=20419 and IRadAn=       5 diagonalized for initial guess.
 HarFok:  IExCor=20419 AccDes= 0.00D+00 IRadAn=         5 IDoV= 1 UseB2=F ITyADJ=14
 ICtDFT=  3500011 ScaDFX=  1.000000  1.000000  1.000000  1.000000
 FoFCou: FMM=F IPFlag=           0 FMFlag=      100000 FMFlg1=           0
         NFxFlg=           0 DoJE=T BraDBF=F KetDBF=T FulRan=T
         wScrn=  0.000000 ICntrl=     500 IOpCl=  0 I1Cent=   200000004 NGrid=           0
         NMat0=    1 NMatS0=      1 NMatT0=    0 NMatD0=    1 NMtDS0=    0 NMtDT0=    0
 Petite list used in FoFCou.
 Requested convergence on RMS density matrix=1.00D-08 within 128 cycles.
 Requested convergence on MAX density matrix=1.00D-06.
 Requested convergence on             energy=1.00D-06.
 No special actions if energy rises.
 SCF Done:  E(RCAM-B3LYP) =  -554.144397213     A.U. after   11 cycles
            NFock= 11  Conv=0.48D-08     -V/T= 2.0060

 **********************************************************************

            Population analysis using the SCF density.

 **********************************************************************

 Orbital symmetries:
       Occupied  (A) (A) (A) (A) (A) (A) (A) (A) (A) (A) (A) (A)
                 (A) (A) (A) (A) (A) (A) (A) (A) (A) (A) (A) (A)
                 (A) (A) (A) (A) (A) (A) (A) (A)
       Virtual   (A) (A) (A) (A) (A) (A) (A) (A) (A) (A) (A) (A)
                 (A) (A) (A) (A) (A) (A) (A) (A) (A) (A) (A) (A)
                 (A) (A) (A) (A) (A) (A) (A) (A) (A) (A) (A) (A)
                 (A) (A) (A) (A) (A) (A) (A) (A) (A) (A) (A) (A)
                 (A) (A) (A) (A) (A) (A) (A) (A) (A) (A) (A) (A)
                 (A) (A) (A) (A) (A) (A) (A) (A) (A) (A) (A) (A)
                 (A) (A) (A) (A) (A) (A) (A) (A) (A) (A) (A) (A)
                 (A) (A) (A) (A) (A) (A) (A) (A) (A) (A) (A) (A)
                 (A) (A) (A) (A) (A) (A) (A) (A) (A) (A) (A) (A)
                 (A) (A) (A) (A) (A) (A) (A) (A) (A) (A) (A) (A)
                 (A) (A) (A) (A) (A) (A) (A) (A) (A) (A) (A) (A)
                 (A) (A) (A) (A) (A) (A) (A) (A) (A) (A) (A) (A)
                 (A) (A) (A) (A) (A) (A) (A) (A) (A) (A) (A) (A)
                 (A) (A) (A) (A) (A) (A) (A) (A) (A) (A) (A) (A)
                 (A) (A) (A) (A) (A) (A) (A) (A) (A) (A) (A) (A)
                 (A) (A) (A) (A) (A) (A) (A) (A) (A) (A) (A) (A)
                 (A) (A) (A) (A) (A) (A) (A) (A) (A) (A) (A) (A)
                 (A) (A) (A) (A) (A) (A) (A) (A) (A) (A) (A) (A)
                 (A) (A) (A) (A) (A) (A) (A) (A) (A) (A) (A) (A)
                 (A) (A) (A) (A) (A) (A) (A) (A) (A) (A) (A) (A)
                 (A) (A) (A) (A) (A) (A) (A) (A) (A) (A) (A) (A)
                 (A) (A) (A) (A) (A) (A) (A) (A) (A) (A) (A) (A)
                 (A) (A) (A) (A) (A) (A) (A) (A) (A) (A) (A) (A)
                 (A) (A) (A) (A) (A) (A) (A) (A) (A) (A) (A) (A)
                 (A) (A) (A) (A) (A) (A) (A) (A) (A) (A) (A) (A)
                 (A) (A) (A) (A) (A) (A) (A) (A) (A) (A) (A) (A)
                 (A) (A) (A) (A) (A) (A) (A) (A) (A) (A) (A) (A)
                 (A) (A) (A) (A) (A) (A) (A) (A) (A) (A) (A) (A)
                 (A) (A) (A) (A) (A) (A) (A) (A) (A) (A) (A) (A)
                 (A) (A) (A) (A) (A) (A) (A) (A) (A) (A) (A) (A)
                 (A) (A) (A) (A) (A) (A) (A) (A) (A) (A) (A) (A)
                 (A) (A) (A) (A) (A) (A) (A) (A) (A) (A) (A) (A)
                 (A) (A) (A) (A) (A) (A) (A) (A) (A) (A) (A) (A)
                 (A) (A) (A) (A) (A) (A) (A) (A) (A) (A) (A) (A)
                 (A) (A) (A) (A) (A) (A) (A) (A) (A) (A) (A) (A)
                 (A) (A) (A) (A) (A) (A) (A) (A)
 The electronic state is 1-A.
 Alpha  occ. eigenvalues --  -24.82788 -24.82771 -24.82746 -24.82729 -10.45413
 Alpha  occ. eigenvalues --  -10.45333 -10.25341 -10.25260  -1.38869  -1.37279
 Alpha  occ. eigenvalues --   -1.34437  -1.33260  -0.89198  -0.84742  -0.74697
 Alpha  occ. eigenvalues --   -0.69518  -0.69466  -0.66476  -0.65068  -0.63723
 Alpha  occ. eigenvalues --   -0.59368  -0.56539  -0.55460  -0.55262  -0.55018
 Alpha  occ. eigenvalues --   -0.54573  -0.52683  -0.52525  -0.48790  -0.43595
 Alpha  occ. eigenvalues --   -0.34377  -0.33226
 Alpha virt. eigenvalues --    0.00932   0.02084   0.02578   0.02667   0.02892
 Alpha virt. eigenvalues --    0.04617   0.05004   0.05507   0.05807   0.07205
 Alpha virt. eigenvalues --    0.07639   0.09069   0.09432   0.09597   0.09779
 Alpha virt. eigenvalues --    0.10828   0.11138   0.11186   0.11256   0.13099
 Alpha virt. eigenvalues --    0.13484   0.14454   0.15098   0.15172   0.15554
 Alpha virt. eigenvalues --    0.18250   0.18639   0.19812   0.19982   0.20382
 Alpha virt. eigenvalues --    0.20510   0.21484   0.22497   0.23628   0.24653
 Alpha virt. eigenvalues --    0.24666   0.25324   0.26291   0.26294   0.27303
 Alpha virt. eigenvalues --    0.27940   0.29495   0.29975   0.30389   0.30715
 Alpha virt. eigenvalues --    0.30826   0.31647   0.32452   0.33040   0.33286
 Alpha virt. eigenvalues --    0.33950   0.34184   0.34229   0.35430   0.36440
 Alpha virt. eigenvalues --    0.36801   0.37576   0.37843   0.38171   0.38231
 Alpha virt. eigenvalues --    0.39437   0.41011   0.41738   0.42665   0.43200
 Alpha virt. eigenvalues --    0.44697   0.45004   0.46242   0.47225   0.47437
 Alpha virt. eigenvalues --    0.48341   0.48722   0.50054   0.50297   0.52522
 Alpha virt. eigenvalues --    0.52938   0.53754   0.53816   0.57234   0.58908
 Alpha virt. eigenvalues --    0.60472   0.61077   0.61301   0.64963   0.65126
 Alpha virt. eigenvalues --    0.65897   0.66166   0.68649   0.71128   0.71952
 Alpha virt. eigenvalues --    0.72864   0.73140   0.74717   0.74909   0.76544
 Alpha virt. eigenvalues --    0.78454   0.78959   0.80847   0.81572   0.83142
 Alpha virt. eigenvalues --    0.83876   0.84424   0.85000   0.85733   0.86346
 Alpha virt. eigenvalues --    0.87356   0.88226   0.88400   0.89734   0.90002
 Alpha virt. eigenvalues --    0.90251   0.91373   0.92464   0.93048   0.93505
 Alpha virt. eigenvalues --    0.93826   0.94729   0.94996   0.97286   0.97772
 Alpha virt. eigenvalues --    0.99357   0.99474   1.00225   1.01190   1.01266
 Alpha virt. eigenvalues --    1.01863   1.02832   1.02982   1.04189   1.05194
 Alpha virt. eigenvalues --    1.05922   1.07740   1.07962   1.08724   1.09817
 Alpha virt. eigenvalues --    1.10826   1.12480   1.13381   1.14116   1.14498
 Alpha virt. eigenvalues --    1.15284   1.18499   1.18619   1.18801   1.20320
 Alpha virt. eigenvalues --    1.20737   1.21485   1.22082   1.22938   1.25443
 Alpha virt. eigenvalues --    1.26295   1.27537   1.28026   1.28803   1.33057
 Alpha virt. eigenvalues --    1.33876   1.35974   1.37003   1.37269   1.41204
 Alpha virt. eigenvalues --    1.42729   1.43795   1.44872   1.46364   1.47554
 Alpha virt. eigenvalues --    1.48339   1.48605   1.49800   1.50797   1.51080
 Alpha virt. eigenvalues --    1.53763   1.54309   1.55527   1.55795   1.57542
 Alpha virt. eigenvalues --    1.57898   1.59700   1.61439   1.61625   1.64382
 Alpha virt. eigenvalues --    1.64700   1.64800   1.66977   1.68075   1.69920
 Alpha virt. eigenvalues --    1.70503   1.72568   1.72815   1.78037   1.78926
 Alpha virt. eigenvalues --    1.80422   1.80686   1.81754   1.87606   1.91104
 Alpha virt. eigenvalues --    1.93031   1.93678   1.95663   1.95933   1.96465
 Alpha virt. eigenvalues --    1.99908   2.01984   2.06716   2.11786   2.15821
 Alpha virt. eigenvalues --    2.17725   2.21227   2.23551   2.27177   2.28155
 Alpha virt. eigenvalues --    2.29141   2.34255   2.38865   2.44922   2.45350
 Alpha virt. eigenvalues --    2.45846   2.49825   2.57536   2.58199   2.59339
 Alpha virt. eigenvalues --    2.60211   2.61589   2.63223   2.64149   2.65906
 Alpha virt. eigenvalues --    2.66301   2.68005   2.69100   2.70127   2.75324
 Alpha virt. eigenvalues --    2.76802   2.77302   2.77997   2.78016   2.79690
 Alpha virt. eigenvalues --    2.79977   2.82917   2.83778   2.84950   2.88135
 Alpha virt. eigenvalues --    2.88358   2.89323   2.91069   2.93004   2.96001
 Alpha virt. eigenvalues --    2.96840   2.98738   2.99747   3.01368   3.02949
 Alpha virt. eigenvalues --    3.04029   3.04827   3.05703   3.05912   3.07052
 Alpha virt. eigenvalues --    3.14534   3.16905   3.17541   3.17981   3.18715
 Alpha virt. eigenvalues --    3.19025   3.19741   3.20519   3.20894   3.23346
 Alpha virt. eigenvalues --    3.23463   3.24161   3.25002   3.25546   3.31406
 Alpha virt. eigenvalues --    3.32860   3.33582   3.35054   3.35687   3.37870
 Alpha virt. eigenvalues --    3.41137   3.44022   3.46520   3.46783   3.47602
 Alpha virt. eigenvalues --    3.50662   3.50964   3.51317   3.51404   3.53338
 Alpha virt. eigenvalues --    3.54618   3.58298   3.58315   3.60375   3.62164
 Alpha virt. eigenvalues --    3.62879   3.65270   3.67264   3.69893   3.71275
 Alpha virt. eigenvalues --    3.72153   3.72521   3.77001   3.78609   3.80405
 Alpha virt. eigenvalues --    3.80746   3.83488   3.85549   3.86619   3.88319
 Alpha virt. eigenvalues --    3.89279   3.90365   3.95208   3.97429   4.07826
 Alpha virt. eigenvalues --    4.08055   4.08809   4.11692   4.11871   4.17327
 Alpha virt. eigenvalues --    4.19484   4.22175   4.26922   4.30275   4.30530
 Alpha virt. eigenvalues --    4.31951   4.33198   4.33831   4.41366   4.46112
 Alpha virt. eigenvalues --    4.48413   4.48731   4.52112   4.60363   4.61346
 Alpha virt. eigenvalues --    4.61610   4.62259   4.62317   4.63325   4.69732
 Alpha virt. eigenvalues --    4.72672   4.73847   4.80616   4.82277   4.88815
 Alpha virt. eigenvalues --    4.91277   4.91807   4.96360   5.00335   5.00486
 Alpha virt. eigenvalues --    5.01407   5.01733   5.05310   5.07167   5.11223
 Alpha virt. eigenvalues --    5.19065   5.19211   5.27096   5.28711   5.30267
 Alpha virt. eigenvalues --    5.30777   5.35201   5.35327   5.36640   5.57944
 Alpha virt. eigenvalues --    5.75780   5.79372   6.04064   6.09048   6.24194
 Alpha virt. eigenvalues --    6.25655   6.31735   6.40497   6.43089   6.69279
 Alpha virt. eigenvalues --    6.74729   6.87263   8.35479   8.36459   8.37248
 Alpha virt. eigenvalues --    8.37332   8.41031   8.43259   8.43654   8.45835
 Alpha virt. eigenvalues --    8.53311   8.59684   8.63147   8.65376   8.65827
 Alpha virt. eigenvalues --    8.73582   8.74475   8.74668   8.75654   8.75861
 Alpha virt. eigenvalues --    8.76839   8.77454   8.77568   8.78056   8.80867
 Alpha virt. eigenvalues --    8.80980   8.81184   8.81872   8.84283   8.89099
 Alpha virt. eigenvalues --    8.90385   8.91926   8.96426   8.98661   8.98703
 Alpha virt. eigenvalues --    8.98796   8.98829   9.02213   9.03259   9.08208
 Alpha virt. eigenvalues --    9.09182   9.09569   9.24114   9.27311   9.27638
 Alpha virt. eigenvalues --    9.27991   9.34631   9.48175   9.49971   9.51028
 Alpha virt. eigenvalues --   11.68086  13.53829  14.39467  15.35979  16.49246
 Alpha virt. eigenvalues --   16.51605  16.67659  16.81830
          Condensed to atoms (all electrons):
               1          2          3          4          5          6
     1  C    5.665644   0.369030   0.374443   0.341377  -0.039851  -0.042955
     2  H    0.369030   0.376544  -0.039859  -0.041422  -0.020252   0.019640
     3  H    0.374443  -0.039859   0.379248  -0.044385   0.019569  -0.020998
     4  C    0.341377  -0.041422  -0.044385   5.679347   0.364231   0.369130
     5  H   -0.039851  -0.020252   0.019569   0.364231   0.380528  -0.041460
     6  H   -0.042955   0.019640  -0.020998   0.369130  -0.041460   0.383573
     7  C   -0.003137   0.000990   0.001068   0.001461  -0.000105  -0.000140
     8  C    0.004644  -0.000196  -0.000247  -0.010053   0.001187   0.001227
     9  F    0.003331   0.004744  -0.007183   0.000364  -0.001258   0.002101
    10  F    0.003394  -0.007137   0.004743   0.000271   0.002080  -0.001266
    11  F   -0.000581  -0.000916   0.001514   0.004353   0.004420  -0.007015
    12  F   -0.000614   0.001512  -0.000926   0.004386  -0.007013   0.004440
               7          8          9         10         11         12
     1  C   -0.003137   0.004644   0.003331   0.003394  -0.000581  -0.000614
     2  H    0.000990  -0.000196   0.004744  -0.007137  -0.000916   0.001512
     3  H    0.001068  -0.000247  -0.007183   0.004743   0.001514  -0.000926
     4  C    0.001461  -0.010053   0.000364   0.000271   0.004353   0.004386
     5  H   -0.000105   0.001187  -0.001258   0.002080   0.004420  -0.007013
     6  H   -0.000140   0.001227   0.002101  -0.001266  -0.007015   0.004440
     7  C    4.910442   0.337251   0.114898   0.115239  -0.024443  -0.024647
     8  C    0.337251   4.918910  -0.023842  -0.023616   0.117330   0.116835
     9  F    0.114898  -0.023842   9.259559  -0.075140  -0.001247   0.006083
    10  F    0.115239  -0.023616  -0.075140   9.258981   0.005936  -0.001225
    11  F   -0.024443   0.117330  -0.001247   0.005936   9.256980  -0.073814
    12  F   -0.024647   0.116835   0.006083  -0.001225  -0.073814   9.257688
 Mulliken charges:
               1
     1  C   -0.674726
     2  H    0.337321
     3  H    0.333012
     4  C   -0.669060
     5  H    0.337925
     6  H    0.333724
     7  C    0.571123
     8  C    0.560571
     9  F   -0.282409
    10  F   -0.282261
    11  F   -0.282515
    12  F   -0.282706
 Sum of Mulliken charges =   0.00000
 Mulliken charges with hydrogens summed into heavy atoms:
               1
     1  C   -0.004393
     4  C    0.002589
     7  C    0.571123
     8  C    0.560571
     9  F   -0.282409
    10  F   -0.282261
    11  F   -0.282515
    12  F   -0.282706
 Electronic spatial extent (au):  <R**2>=           1270.4852
 Charge=              0.0000 electrons
 Dipole moment (field-independent basis, Debye):
    X=             -0.1639    Y=              0.0020    Z=              0.0001  Tot=              0.1639
 Quadrupole moment (field-independent basis, Debye-Ang):
   XX=            -45.3690   YY=            -44.9801   ZZ=            -45.6039
   XY=             -0.0602   XZ=              0.0006   YZ=             -0.0085
 Traceless Quadrupole moment (field-independent basis, Debye-Ang):
   XX=             -0.0514   YY=              0.3375   ZZ=             -0.2862
   XY=             -0.0602   XZ=              0.0006   YZ=             -0.0085
 Octapole moment (field-independent basis, Debye-Ang**2):
  XXX=             50.7441  YYY=              0.6422  ZZZ=              0.0120  XYY=              5.0883
  XXY=              3.0976  XXZ=              0.0100  XZZ=              3.6239  YZZ=              0.1598
  YYZ=             -0.0237  XYZ=             -0.0049
 Hexadecapole moment (field-independent basis, Debye-Ang**3):
 XXXX=          -1072.1880 YYYY=           -343.7135 ZZZZ=           -211.3560 XXXY=            -14.9895
 XXXZ=             -0.0281 YYYX=             -3.2751 YYYZ=             -0.0291 ZZZX=             -0.0353
 ZZZY=             -0.0820 XXYY=           -209.2169 XXZZ=           -187.7896 YYZZ=            -93.5846
 XXYZ=             -0.0354 YYXZ=              0.0681 ZZXY=             -1.1436
 N-N= 3.659518417123D+02 E-N=-2.042250771535D+03  KE= 5.508635719710D+02
 Calling FoFJK, ICntrl=      2127 FMM=F ISym2X=0 I1Cent= 0 IOpClX= 0 NMat=1 NMatS=1 NMatT=0.
 ***** Axes restored to original set *****
 -------------------------------------------------------------------
 Center     Atomic                   Forces (Hartrees/Bohr)
 Number     Number              X              Y              Z
 -------------------------------------------------------------------
      1        6          -0.042308215    0.000338420   -0.024744207
      2        1           0.003166959   -0.000111257    0.007403971
      3        1           0.008196128   -0.000110524   -0.000689740
      4        6           0.042395203    0.000388174    0.024608532
      5        1          -0.008013762   -0.000119531    0.000914330
      6        1          -0.003429804   -0.000119319   -0.007488676
      7        6          -0.031550376    0.000332424   -0.019228304
      8        6           0.031794509    0.000439116    0.019369769
      9        9          -0.023226750   -0.000267987    0.031461941
     10        9           0.015222500   -0.000269585   -0.036399877
     11        9          -0.015253470   -0.000249536    0.036164372
     12        9           0.023007078   -0.000250395   -0.031372111
 -------------------------------------------------------------------
 Cartesian Forces:  Max     0.042395203 RMS     0.019694045

 GradGradGradGradGradGradGradGradGradGradGradGradGradGradGradGradGradGrad
 Berny optimization.
 FormGI is forming the generalized inverse of G from B-inverse, IUseBI=4.
 Internal  Forces:  Max     0.044379996 RMS     0.011447795
 Search for a local minimum.
 Step number   1 out of a maximum of   86
 All quantities printed in internal units (Hartrees-Bohrs-Radians)
 Mixed Optimization -- RFO/linear search
 Second derivative matrix not updated -- first step.
 ITU=  0
     Eigenvalues ---    0.00562   0.00768   0.02973   0.02998   0.04068
     Eigenvalues ---    0.04918   0.05347   0.05919   0.06779   0.06928
     Eigenvalues ---    0.08170   0.08490   0.08989   0.10090   0.11201
     Eigenvalues ---    0.12859   0.14277   0.15786   0.18808   0.19401
     Eigenvalues ---    0.34593   0.35927   0.37230   0.37230   0.52048
     Eigenvalues ---    0.53247   0.55021   0.55021   0.55021   0.55021
 RFO step:  Lambda=-2.30012443D-02 EMin= 5.61849243D-03
 Linear search not attempted -- first point.
 Iteration  1 RMS(Cart)=  0.02743942 RMS(Int)=  0.00082157
 Iteration  2 RMS(Cart)=  0.00087673 RMS(Int)=  0.00010061
 Iteration  3 RMS(Cart)=  0.00000057 RMS(Int)=  0.00010061
 Variable       Old X    -DE/DX   Delta X   Delta X   Delta X     New X
                                 (Linear)    (Quad)   (Total)
    R1        2.02201   0.00740   0.00000   0.01873   0.01873   2.04074
    R2        2.02201   0.00745   0.00000   0.01885   0.01885   2.04085
    R3        2.56096  -0.03548   0.00000  -0.06411  -0.06411   2.49685
    R4        7.55890   0.00145   0.00000  -0.00117  -0.00123   7.55768
    R5        2.02201   0.00645   0.00000   0.01878   0.01883   2.04084
    R6        2.02201   0.00644   0.00000   0.01887   0.01892   2.04093
    R7        7.84679  -0.00596   0.00000  -0.02178  -0.02159   7.82520
    R8        7.55890  -0.00034   0.00000   0.00012  -0.00001   7.55889
    R9        7.77055   0.00218   0.00000   0.00638   0.00636   7.77691
   R10        7.77111   0.00227   0.00000   0.00686   0.00684   7.77794
   R11        2.56096  -0.04438   0.00000  -0.08177  -0.08175   2.47920
   R12        2.55113  -0.03582   0.00000  -0.06248  -0.06248   2.48865
   R13        2.55113  -0.03640   0.00000  -0.06350  -0.06350   2.48763
   R14        2.55113  -0.03616   0.00000  -0.06309  -0.06309   2.48804
   R15        2.55113  -0.03558   0.00000  -0.06207  -0.06207   2.48906
    A1        2.09241  -0.00223   0.00000  -0.02151  -0.02151   2.07090
    A2        2.09836   0.00108   0.00000   0.00951   0.00952   2.10787
    A3        1.59841  -0.00023   0.00000   0.00138   0.00140   1.59981
    A4        2.09241   0.00115   0.00000   0.01200   0.01200   2.10441
    A5        1.59813  -0.00031   0.00000   0.00118   0.00120   1.59933
    A6        2.09836   0.00100   0.00000   0.00919   0.00917   2.10753
    A7        2.09241   0.00120   0.00000   0.01165   0.01163   2.10404
    A8        1.62567  -0.00213   0.00000  -0.00108  -0.00105   1.62462
    A9        2.09241  -0.00221   0.00000  -0.02083  -0.02080   2.07161
   A10        1.70894  -0.00191   0.00000  -0.00098  -0.00107   1.70787
   A11        1.70752  -0.00193   0.00000  -0.00076  -0.00085   1.70667
   A12        1.62567  -0.00148   0.00000   0.00215   0.00219   1.62786
   A13        1.54346   0.00070   0.00000  -0.00410  -0.00408   1.53938
   A14        1.54318   0.00059   0.00000  -0.00420  -0.00416   1.53902
   A15        1.70752   0.00011   0.00000   0.00462   0.00418   1.71170
   A16        1.70894  -0.00004   0.00000   0.00408   0.00368   1.71262
   A17        2.09241   0.00592   0.00000   0.04450   0.04450   2.13691
   A18        2.09836   0.00528   0.00000   0.04055   0.04054   2.13889
   A19        2.09241  -0.01120   0.00000  -0.08504  -0.08504   2.00738
   A20        1.59841  -0.00015   0.00000   0.00268   0.00268   1.60109
   A21        1.59813  -0.00006   0.00000   0.00308   0.00306   1.60119
   A22        0.45433   0.00105   0.00000   0.00112   0.00109   0.45542
   A23        1.64852   0.00326   0.00000   0.00372   0.00370   1.65222
   A24        1.72660  -0.00222   0.00000  -0.00884  -0.00913   1.71748
   A25        1.33499  -0.00086   0.00000   0.00073   0.00090   1.33589
   A26        1.64717   0.00318   0.00000   0.00367   0.00364   1.65082
   A27        1.33529  -0.00092   0.00000   0.00045   0.00059   1.33589
   A28        1.72903  -0.00222   0.00000  -0.00928  -0.00961   1.71942
   A29        2.09836   0.00934   0.00000   0.04427   0.04425   2.14260
   A30        2.09241   0.01024   0.00000   0.04857   0.04855   2.14097
   A31        2.09241  -0.01958   0.00000  -0.09284  -0.09280   1.99961
    D1        0.00000   0.00074   0.00000  -0.00110  -0.00114  -0.00114
    D2        3.14159  -0.00037   0.00000   0.00128   0.00132  -3.14028
    D3        1.57080   0.00014   0.00000  -0.00011  -0.00012   1.57068
    D4        3.14159   0.00037   0.00000  -0.00141  -0.00144   3.14015
    D5        0.00000  -0.00075   0.00000   0.00097   0.00102   0.00102
    D6       -1.57080  -0.00023   0.00000  -0.00042  -0.00041  -1.57121
    D7       -2.09770  -0.00082   0.00000  -0.00812  -0.00811  -2.10581
    D8        2.09372  -0.00678   0.00000  -0.05249  -0.05248   2.04124
    D9        0.00000   0.00450   0.00000   0.03229   0.03229   0.03229
   D10        2.09176   0.00145   0.00000   0.01331   0.01331   2.10507
   D11        0.00000  -0.00452   0.00000  -0.03106  -0.03106  -0.03106
   D12       -2.09372   0.00676   0.00000   0.05372   0.05371  -2.04001
   D13       -3.13577  -0.00432   0.00000  -0.03392  -0.03399   3.11343
   D14        1.02162   0.00730   0.00000   0.05233   0.05238   1.07400
   D15       -1.00997  -0.00757   0.00000  -0.05602  -0.05606  -1.06604
   D16       -3.13577   0.00406   0.00000   0.03024   0.03031  -3.10546
   D17        2.09770   0.00964   0.00000   0.04555   0.04554   2.14324
   D18       -2.09176  -0.00998   0.00000  -0.04715  -0.04713  -2.13890
   D19        0.22747   0.00046   0.00000   0.00015   0.00014   0.22761
   D20       -0.22823  -0.00070   0.00000  -0.00111  -0.00108  -0.22931
   D21       -1.57080  -0.00094   0.00000  -0.00124  -0.00127  -1.57207
   D22        1.57080   0.00079   0.00000   0.00054   0.00059   1.57139
   D23        1.79827   0.00074   0.00000  -0.00090  -0.00083   1.79744
   D24        1.34257  -0.00042   0.00000  -0.00216  -0.00206   1.34051
   D25        0.00000  -0.00066   0.00000  -0.00229  -0.00224  -0.00224
   D26        3.14159   0.00107   0.00000  -0.00051  -0.00038   3.14121
   D27       -1.34332   0.00035   0.00000   0.00153   0.00144  -1.34189
   D28       -1.79903  -0.00081   0.00000   0.00027   0.00021  -1.79882
   D29        3.14159  -0.00106   0.00000   0.00014   0.00002  -3.14157
   D30        0.00000   0.00068   0.00000   0.00192   0.00189   0.00189
         Item               Value     Threshold  Converged?
 Maximum Force            0.044380     0.000450     NO 
 RMS     Force            0.011448     0.000300     NO 
 Maximum Displacement     0.111320     0.001800     NO 
 RMS     Displacement     0.027581     0.001200     NO 
 Predicted change in Energy=-1.235462D-02
 GradGradGradGradGradGradGradGradGradGradGradGradGradGradGradGradGradGrad

                          Input orientation:                          
 ---------------------------------------------------------------------
 Center     Atomic      Atomic             Coordinates (Angstroms)
 Number     Number       Type             X           Y           Z
 ---------------------------------------------------------------------
      1          6           0       -0.014038    0.000262   -0.008610
      2          1           0       -0.003782   -0.000049    1.071254
      3          1           0        0.928713    0.000058   -0.535454
      4          6           0       -1.155658    0.000549   -0.673797
      5          1           0       -2.100039   -0.000585   -0.149899
      6          1           0       -1.161780   -0.000364   -1.753791
      7          6           0       -0.207063    3.993352   -0.121638
      8          6           0       -1.341505    3.994796   -0.780592
      9          9           0        0.961990    3.991276   -0.727964
     10          9           0       -0.151966    3.991355    1.193603
     11          9           0       -1.401493    3.996772   -2.095838
     12          9           0       -2.513203    3.996453   -0.178914
 ---------------------------------------------------------------------
                    Distance matrix (angstroms):
                    1          2          3          4          5
     1  C    0.000000
     2  H    1.079913   0.000000
     3  H    1.079974   1.857702   0.000000
     4  C    1.321276   2.090938   2.088956   0.000000
     5  H    2.090781   2.426006   3.053193   1.079966   0.000000
     6  H    2.088772   3.053168   2.419608   1.080011   1.858171
     7  C    3.999349   4.172717   4.172245   4.140916   4.419919
     8  C    4.279536   4.601915   4.601295   3.999994   4.115364
     9  F    4.171125   4.483366   3.995996   4.518104   5.064102
    10  F    4.170511   3.996027   4.481959   4.518972   4.640643
    11  F    4.717377   5.287594   4.882457   4.248816   4.500391
    12  F    4.716394   4.881818   5.286311   4.249128   4.018441
                    6          7          8          9         10
     6  H    0.000000
     7  C    4.418729   0.000000
     8  C    4.115911   1.311938   0.000000
     9  F    4.636368   1.316936   2.304098   0.000000
    10  F    5.063662   1.316396   2.304878   2.221107   0.000000
    11  F    4.018900   2.307410   1.316615   2.730780   3.518774
    12  F    4.503458   2.306853   1.317154   3.518301   2.731166
                   11         12
    11  F    0.000000
    12  F    2.215964   0.000000
 Stoichiometry    C4H4F4
 Framework group  C1[X(C4H4F4)]
 Deg. of freedom    30
 Full point group                 C1      NOp   1
 Largest Abelian subgroup         C1      NOp   1
 Largest concise Abelian subgroup C1      NOp   1
                         Standard orientation:                         
 ---------------------------------------------------------------------
 Center     Atomic      Atomic             Coordinates (Angstroms)
 Number     Number       Type             X           Y           Z
 ---------------------------------------------------------------------
      1          6           0       -3.061985    0.527749   -0.001126
      2          1           0       -3.116397    1.076366   -0.929711
      3          1           0       -3.116378    1.075586    0.927991
      4          6           0       -2.931842   -0.787101    0.000585
      5          1           0       -2.878498   -1.337946   -0.926804
      6          1           0       -2.878994   -1.332347    0.931359
      7          6           0        0.933756    0.697599    0.000000
      8          6           0        1.064133   -0.607844   -0.000072
      9          9           0        0.862176    1.400251    1.111520
     10          9           0        0.862252    1.402302   -1.109586
     11          9           0        1.136033   -1.316759    1.107061
     12          9           0        1.135750   -1.315136   -1.108902
 ---------------------------------------------------------------------
 Rotational constants (GHZ):      1.9117415      1.1273440      0.9743704
 Standard basis: Aug-CC-pVTZ (5D, 7F)
 There are   540 symmetry adapted cartesian basis functions of A   symmetry.
 There are   460 symmetry adapted basis functions of A   symmetry.
   460 basis functions,   684 primitive gaussians,   540 cartesian basis functions
    32 alpha electrons       32 beta electrons
       nuclear repulsion energy       371.9603187612 Hartrees.
 NAtoms=   12 NActive=   12 NUniq=   12 SFac= 1.00D+00 NAtFMM=   60 NAOKFM=F Big=F
 Integral buffers will be    131072 words long.
 Raffenetti 2 integral format.
 Two-electron integral symmetry is turned on.
 One-electron integrals computed using PRISM.
 NBasis=   460 RedAO= T EigKep=  4.07D-06  NBF=   460
 NBsUse=   460 1.00D-06 EigRej= -1.00D+00 NBFU=   460
 Initial guess from the checkpoint file:  "c2h4-c2f4-camb3lyp-aug.chk"
 B after Tr=     0.000000    0.000000    0.000000
         Rot=    0.999998    0.001454    0.000030   -0.001254 Ang=   0.22 deg.
 ExpMin= 2.53D-02 ExpMax= 1.95D+04 ExpMxC= 6.65D+02 IAcc=3 IRadAn=         5 AccDes= 0.00D+00
 Harris functional with IExCor=20419 and IRadAn=       5 diagonalized for initial guess.
 HarFok:  IExCor=20419 AccDes= 0.00D+00 IRadAn=         5 IDoV= 1 UseB2=F ITyADJ=14
 ICtDFT=  3500011 ScaDFX=  1.000000  1.000000  1.000000  1.000000
 FoFCou: FMM=F IPFlag=           0 FMFlag=      100000 FMFlg1=           0
         NFxFlg=           0 DoJE=T BraDBF=F KetDBF=T FulRan=T
         wScrn=  0.000000 ICntrl=     500 IOpCl=  0 I1Cent=   200000004 NGrid=           0
         NMat0=    1 NMatS0=      1 NMatT0=    0 NMatD0=    1 NMtDS0=    0 NMtDT0=    0
 Petite list used in FoFCou.
 Requested convergence on RMS density matrix=1.00D-08 within 128 cycles.
 Requested convergence on MAX density matrix=1.00D-06.
 Requested convergence on             energy=1.00D-06.
 No special actions if energy rises.
 SCF Done:  E(RCAM-B3LYP) =  -554.157844867     A.U. after    9 cycles
            NFock=  9  Conv=0.41D-08     -V/T= 2.0051
 Calling FoFJK, ICntrl=      2127 FMM=F ISym2X=0 I1Cent= 0 IOpClX= 0 NMat=1 NMatS=1 NMatT=0.
 ***** Axes restored to original set *****
 -------------------------------------------------------------------
 Center     Atomic                   Forces (Hartrees/Bohr)
 Number     Number              X              Y              Z
 -------------------------------------------------------------------
      1        6          -0.004381920    0.000378826   -0.002664962
      2        1           0.002645674   -0.000095582    0.000924917
      3        1           0.002195794   -0.000090365    0.002009439
      4        6           0.004531980    0.000265498    0.002535937
      5        1          -0.002112626   -0.000063107   -0.001894731
      6        1          -0.002877769   -0.000067342   -0.000909699
      7        6          -0.000630865    0.000119936   -0.000923355
      8        6          -0.000770882    0.000533640    0.000116243
      9        9          -0.001088010   -0.000214848    0.006570367
     10        9           0.005050596   -0.000227532   -0.003969536
     11        9          -0.004023902   -0.000276087    0.003777701
     12        9           0.001461928   -0.000263038   -0.005572320
 -------------------------------------------------------------------
 Cartesian Forces:  Max     0.006570367 RMS     0.002576930

 GradGradGradGradGradGradGradGradGradGradGradGradGradGradGradGradGradGrad
 Berny optimization.
 Using GEDIIS/GDIIS optimizer.
 FormGI is forming the generalized inverse of G from B-inverse, IUseBI=4.
 Internal  Forces:  Max     0.005216388 RMS     0.001635150
 Search for a local minimum.
 Step number   2 out of a maximum of   86
 All quantities printed in internal units (Hartrees-Bohrs-Radians)
 Mixed Optimization -- RFO/linear search
 Update second derivatives using D2CorX and points    1    2
 DE= -1.34D-02 DEPred=-1.24D-02 R= 1.09D+00
 TightC=F SS=  1.41D+00  RLast= 2.72D-01 DXNew= 5.0454D-01 8.1684D-01
 Trust test= 1.09D+00 RLast= 2.72D-01 DXMaxT set to 5.05D-01
 ITU=  1  0
 Use linear search instead of GDIIS.
     Eigenvalues ---    0.00562   0.00759   0.02996   0.03030   0.04063
     Eigenvalues ---    0.04903   0.05267   0.05906   0.06680   0.06825
     Eigenvalues ---    0.08083   0.08388   0.08753   0.09821   0.10890
     Eigenvalues ---    0.12638   0.14643   0.15742   0.18025   0.19424
     Eigenvalues ---    0.34592   0.35912   0.37189   0.37230   0.51937
     Eigenvalues ---    0.53139   0.55018   0.55021   0.55021   0.57935
 RFO step:  Lambda=-7.47882345D-04 EMin= 5.61925322D-03
 Quartic linear search produced a step of  0.13111.
 Iteration  1 RMS(Cart)=  0.01175930 RMS(Int)=  0.00009033
 Iteration  2 RMS(Cart)=  0.00008641 RMS(Int)=  0.00002111
 Iteration  3 RMS(Cart)=  0.00000000 RMS(Int)=  0.00002111
 Variable       Old X    -DE/DX   Delta X   Delta X   Delta X     New X
                                 (Linear)    (Quad)   (Total)
    R1        2.04074   0.00095   0.00246   0.00050   0.00295   2.04369
    R2        2.04085   0.00094   0.00247   0.00044   0.00291   2.04377
    R3        2.49685   0.00058  -0.00841   0.00854   0.00014   2.49699
    R4        7.55768  -0.00032  -0.00016  -0.01348  -0.01364   7.54403
    R5        2.04084   0.00101   0.00247   0.00063   0.00312   2.04396
    R6        2.04093   0.00100   0.00248   0.00060   0.00310   2.04402
    R7        7.82520   0.00006  -0.00283  -0.00773  -0.01054   7.81466
    R8        7.55889  -0.00004   0.00000  -0.00695  -0.00699   7.55191
    R9        7.77691  -0.00006   0.00083  -0.01132  -0.01049   7.76642
   R10        7.77794  -0.00003   0.00090  -0.01158  -0.01069   7.76725
   R11        2.47920   0.00372  -0.01072   0.01791   0.00720   2.48640
   R12        2.48865  -0.00399  -0.00819  -0.00069  -0.00888   2.47977
   R13        2.48763  -0.00375  -0.00833  -0.00008  -0.00841   2.47922
   R14        2.48804  -0.00359  -0.00827   0.00021  -0.00806   2.47998
   R15        2.48906  -0.00385  -0.00814  -0.00044  -0.00858   2.48048
    A1        2.07090  -0.00186  -0.00282  -0.02119  -0.02401   2.04689
    A2        2.10787   0.00089   0.00125   0.00970   0.01095   2.11882
    A3        1.59981   0.00007   0.00018   0.00072   0.00089   1.60070
    A4        2.10441   0.00097   0.00157   0.01150   0.01307   2.11748
    A5        1.59933   0.00006   0.00016   0.00061   0.00076   1.60009
    A6        2.10753   0.00105   0.00120   0.00954   0.01074   2.11826
    A7        2.10404   0.00117   0.00152   0.01131   0.01283   2.11687
    A8        1.62462   0.00033  -0.00014   0.00003  -0.00009   1.62453
    A9        2.07161  -0.00223  -0.00273  -0.02084  -0.02356   2.04805
   A10        1.70787   0.00042  -0.00014   0.00172   0.00158   1.70945
   A11        1.70667   0.00044  -0.00011   0.00188   0.00177   1.70843
   A12        1.62786  -0.00004   0.00029   0.00126   0.00154   1.62940
   A13        1.53938  -0.00009  -0.00053  -0.00239  -0.00292   1.53646
   A14        1.53902  -0.00012  -0.00055  -0.00250  -0.00304   1.53598
   A15        1.71170   0.00046   0.00055   0.00156   0.00204   1.71375
   A16        1.71262   0.00043   0.00048   0.00148   0.00190   1.71452
   A17        2.13691   0.00195   0.00583   0.01180   0.01764   2.15455
   A18        2.13889   0.00181   0.00531   0.01117   0.01648   2.15538
   A19        2.00738  -0.00376  -0.01115  -0.02298  -0.03413   1.97325
   A20        1.60109   0.00023   0.00035   0.00032   0.00070   1.60179
   A21        1.60119   0.00025   0.00040   0.00047   0.00090   1.60209
   A22        0.45542  -0.00007   0.00014  -0.00204  -0.00194   0.45348
   A23        1.65222  -0.00004   0.00049   0.00006   0.00055   1.65277
   A24        1.71748  -0.00058  -0.00120  -0.00382  -0.00508   1.71240
   A25        1.33589   0.00013   0.00012   0.00000   0.00017   1.33607
   A26        1.65082  -0.00004   0.00048   0.00030   0.00078   1.65160
   A27        1.33589   0.00011   0.00008  -0.00017  -0.00005   1.33584
   A28        1.71942  -0.00060  -0.00126  -0.00399  -0.00533   1.71409
   A29        2.14260   0.00252   0.00580   0.00844   0.01424   2.15684
   A30        2.14097   0.00270   0.00637   0.00887   0.01523   2.15620
   A31        1.99961  -0.00522  -0.01217  -0.01730  -0.02946   1.97015
    D1       -0.00114  -0.00003  -0.00015   0.00312   0.00297   0.00183
    D2       -3.14028   0.00018   0.00017  -0.00144  -0.00127  -3.14155
    D3        1.57068   0.00006  -0.00002   0.00086   0.00085   1.57153
    D4        3.14015  -0.00018  -0.00019   0.00138   0.00119   3.14134
    D5        0.00102   0.00003   0.00013  -0.00317  -0.00305  -0.00203
    D6       -1.57121  -0.00008  -0.00005  -0.00087  -0.00093  -1.57214
    D7       -2.10581  -0.00083  -0.00106  -0.00931  -0.01037  -2.11619
    D8        2.04124  -0.00278  -0.00688  -0.02102  -0.02790   2.01334
    D9        0.03229   0.00098   0.00423   0.00176   0.00599   0.03828
   D10        2.10507   0.00103   0.00175   0.01185   0.01360   2.11867
   D11       -0.03106  -0.00092  -0.00407   0.00015  -0.00392  -0.03499
   D12       -2.04001   0.00283   0.00704   0.02292   0.02996  -2.01005
   D13        3.11343  -0.00086  -0.00446  -0.00201  -0.00648   3.10695
   D14        1.07400   0.00283   0.00687   0.02110   0.02797   1.10197
   D15       -1.06604  -0.00296  -0.00735  -0.02277  -0.03012  -1.09616
   D16       -3.10546   0.00072   0.00397   0.00034   0.00433  -3.10113
   D17        2.14324   0.00257   0.00597   0.00880   0.01477   2.15802
   D18       -2.13890  -0.00263  -0.00618  -0.00849  -0.01466  -2.15356
   D19        0.22761  -0.00006   0.00002  -0.00108  -0.00108   0.22653
   D20       -0.22931   0.00002  -0.00014   0.00096   0.00083  -0.22848
   D21       -1.57207   0.00008  -0.00017   0.00153   0.00136  -1.57071
   D22        1.57139  -0.00011   0.00008  -0.00161  -0.00153   1.56985
   D23        1.79744  -0.00008  -0.00011  -0.00245  -0.00257   1.79487
   D24        1.34051  -0.00001  -0.00027  -0.00041  -0.00065   1.33986
   D25       -0.00224   0.00006  -0.00029   0.00016  -0.00012  -0.00236
   D26        3.14121  -0.00013  -0.00005  -0.00298  -0.00302   3.13820
   D27       -1.34189   0.00001   0.00019   0.00045   0.00061  -1.34128
   D28       -1.79882   0.00009   0.00003   0.00249   0.00253  -1.79629
   D29       -3.14157   0.00015   0.00000   0.00306   0.00306  -3.13852
   D30        0.00189  -0.00004   0.00025  -0.00007   0.00016   0.00204
         Item               Value     Threshold  Converged?
 Maximum Force            0.005216     0.000450     NO 
 RMS     Force            0.001635     0.000300     NO 
 Maximum Displacement     0.043071     0.001800     NO 
 RMS     Displacement     0.011751     0.001200     NO 
 Predicted change in Energy=-6.585690D-04
 GradGradGradGradGradGradGradGradGradGradGradGradGradGradGradGradGradGrad

                          Input orientation:                          
 ---------------------------------------------------------------------
 Center     Atomic      Atomic             Coordinates (Angstroms)
 Number     Number       Type             X           Y           Z
 ---------------------------------------------------------------------
      1          6           0       -0.013594    0.004049   -0.008692
      2          1           0        0.008415    0.003351    1.072560
      3          1           0        0.937362    0.003698   -0.523819
      4          6           0       -1.155218    0.003033   -0.674019
      5          1           0       -2.106670    0.003153   -0.159588
      6          1           0       -1.175124    0.003691   -1.755487
      7          6           0       -0.206273    3.989929   -0.121581
      8          6           0       -1.344305    3.993396   -0.781928
      9          9           0        0.968807    3.985076   -0.705643
     10          9           0       -0.129174    3.985013    1.188089
     11          9           0       -1.423353    3.994951   -2.091892
     12          9           0       -2.520696    3.994535   -0.199638
 ---------------------------------------------------------------------
                    Distance matrix (angstroms):
                    1          2          3          4          5
     1  C    0.000000
     2  H    1.081476   0.000000
     3  H    1.081515   1.846988   0.000000
     4  C    1.321350   2.098709   2.097963   0.000000
     5  H    2.098508   2.447810   3.065745   1.081619   0.000000
     6  H    2.097724   3.065716   2.445323   1.081651   1.847883
     7  C    3.992130   4.167118   4.166501   4.135338   4.416710
     8  C    4.275929   4.603199   4.603294   3.996298   4.109811
     9  F    4.159258   4.465254   3.985652   4.513219   5.060874
    10  F    4.158571   3.985713   4.463070   4.514020   4.645636
    11  F    4.717461   5.291181   4.895092   4.244723   4.487223
    12  F    4.716566   4.893307   5.290561   4.245193   4.012998
                    6          7          8          9         10
     6  H    0.000000
     7  C    4.415701   0.000000
     8  C    4.110254   1.315745   0.000000
     9  F    4.642202   1.312236   2.314384   0.000000
    10  F    5.060591   1.311947   2.314645   2.189014   0.000000
    11  F    4.013097   2.315909   1.312348   2.764817   3.526085
    12  F    4.489774   2.315743   1.312615   3.526012   2.765006
                   11         12
    11  F    0.000000
    12  F    2.187415   0.000000
 Stoichiometry    C4H4F4
 Framework group  C1[X(C4H4F4)]
 Deg. of freedom    30
 Full point group                 C1      NOp   1
 Largest Abelian subgroup         C1      NOp   1
 Largest concise Abelian subgroup C1      NOp   1
                         Standard orientation:                         
 ---------------------------------------------------------------------
 Center     Atomic      Atomic             Coordinates (Angstroms)
 Number     Number       Type             X           Y           Z
 ---------------------------------------------------------------------
      1          6           0       -3.058134    0.518332   -0.001199
      2          1           0       -3.115863    1.077261   -0.925241
      3          1           0       -3.115903    1.079144    0.921746
      4          6           0       -2.924796   -0.796271    0.001014
      5          1           0       -2.867178   -1.357880   -0.921578
      6          1           0       -2.867282   -1.353503    0.926300
      7          6           0        0.929795    0.701443    0.000115
      8          6           0        1.067023   -0.607126   -0.000176
      9          9           0        0.851341    1.420188    1.095202
     10          9           0        0.851383    1.421431   -1.093812
     11          9           0        1.142277   -1.329278    1.093026
     12          9           0        1.141988   -1.328262   -1.094389
 ---------------------------------------------------------------------
 Rotational constants (GHZ):      1.9042988      1.1366384      0.9696535
 Standard basis: Aug-CC-pVTZ (5D, 7F)
 There are   540 symmetry adapted cartesian basis functions of A   symmetry.
 There are   460 symmetry adapted basis functions of A   symmetry.
   460 basis functions,   684 primitive gaussians,   540 cartesian basis functions
    32 alpha electrons       32 beta electrons
       nuclear repulsion energy       372.1784162549 Hartrees.
 NAtoms=   12 NActive=   12 NUniq=   12 SFac= 1.00D+00 NAtFMM=   60 NAOKFM=F Big=F
 Integral buffers will be    131072 words long.
 Raffenetti 2 integral format.
 Two-electron integral symmetry is turned on.
 One-electron integrals computed using PRISM.
 NBasis=   460 RedAO= T EigKep=  4.12D-06  NBF=   460
 NBsUse=   460 1.00D-06 EigRej= -1.00D+00 NBFU=   460
 Initial guess from the checkpoint file:  "c2h4-c2f4-camb3lyp-aug.chk"
 B after Tr=     0.000000    0.000000    0.000000
         Rot=    0.999998    0.000120   -0.000002   -0.001821 Ang=   0.21 deg.
 ExpMin= 2.53D-02 ExpMax= 1.95D+04 ExpMxC= 6.65D+02 IAcc=3 IRadAn=         5 AccDes= 0.00D+00
 Harris functional with IExCor=20419 and IRadAn=       5 diagonalized for initial guess.
 HarFok:  IExCor=20419 AccDes= 0.00D+00 IRadAn=         5 IDoV= 1 UseB2=F ITyADJ=14
 ICtDFT=  3500011 ScaDFX=  1.000000  1.000000  1.000000  1.000000
 FoFCou: FMM=F IPFlag=           0 FMFlag=      100000 FMFlg1=           0
         NFxFlg=           0 DoJE=T BraDBF=F KetDBF=T FulRan=T
         wScrn=  0.000000 ICntrl=     500 IOpCl=  0 I1Cent=   200000004 NGrid=           0
         NMat0=    1 NMatS0=      1 NMatT0=    0 NMatD0=    1 NMtDS0=    0 NMtDT0=    0
 Petite list used in FoFCou.
 Requested convergence on RMS density matrix=1.00D-08 within 128 cycles.
 Requested convergence on MAX density matrix=1.00D-06.
 Requested convergence on             energy=1.00D-06.
 No special actions if energy rises.
 SCF Done:  E(RCAM-B3LYP) =  -554.158436817     A.U. after    8 cycles
            NFock=  8  Conv=0.56D-08     -V/T= 2.0050
 Calling FoFJK, ICntrl=      2127 FMM=F ISym2X=0 I1Cent= 0 IOpClX= 0 NMat=1 NMatS=1 NMatT=0.
 ***** Axes restored to original set *****
 -------------------------------------------------------------------
 Center     Atomic                   Forces (Hartrees/Bohr)
 Number     Number              X              Y              Z
 -------------------------------------------------------------------
      1        6          -0.002228822    0.000194952   -0.001352204
      2        1           0.000740579   -0.000061575    0.000047057
      3        1           0.000426522   -0.000053742    0.000689946
      4        6           0.002326312    0.000572241    0.001298659
      5        1          -0.000369214   -0.000160006   -0.000734186
      6        1          -0.000895525   -0.000167506    0.000050728
      7        6          -0.003097573   -0.000059208   -0.002070899
      8        6           0.002485877    0.000338856    0.001702868
      9        9           0.001047659   -0.000119657   -0.000644750
     10        9          -0.000074368   -0.000130692    0.001390367
     11        9           0.000474784   -0.000181720   -0.001373711
     12        9          -0.000836230   -0.000171944    0.000996126
 -------------------------------------------------------------------
 Cartesian Forces:  Max     0.003097573 RMS     0.001147944

 GradGradGradGradGradGradGradGradGradGradGradGradGradGradGradGradGradGrad
 Berny optimization.
 Using GEDIIS/GDIIS optimizer.
 FormGI is forming the generalized inverse of G from B-inverse, IUseBI=4.
 Internal  Forces:  Max     0.002358857 RMS     0.000474605
 Search for a local minimum.
 Step number   3 out of a maximum of   86
 All quantities printed in internal units (Hartrees-Bohrs-Radians)
 Mixed Optimization -- En-DIIS/RFO-DIIS
 Update second derivatives using D2CorX and points    1    2    3
 DE= -5.92D-04 DEPred=-6.59D-04 R= 8.99D-01
 TightC=F SS=  1.41D+00  RLast= 1.00D-01 DXNew= 8.4853D-01 3.0088D-01
 Trust test= 8.99D-01 RLast= 1.00D-01 DXMaxT set to 5.05D-01
 ITU=  1  1  0
 Use linear search instead of GDIIS.
     Eigenvalues ---    0.00560   0.00761   0.02990   0.03024   0.04038
     Eigenvalues ---    0.04898   0.05207   0.05891   0.06633   0.06775
     Eigenvalues ---    0.07448   0.08350   0.08697   0.09465   0.11650
     Eigenvalues ---    0.12550   0.14726   0.15729   0.19410   0.19599
     Eigenvalues ---    0.34628   0.35919   0.37186   0.37230   0.52383
     Eigenvalues ---    0.54997   0.55021   0.55021   0.57042   0.58706
 RFO step:  Lambda=-5.66741091D-05 EMin= 5.59602452D-03
 Quartic linear search produced a step of -0.02216.
 Iteration  1 RMS(Cart)=  0.00312359 RMS(Int)=  0.00000376
 Iteration  2 RMS(Cart)=  0.00000353 RMS(Int)=  0.00000090
 Iteration  3 RMS(Cart)=  0.00000000 RMS(Int)=  0.00000090
 Variable       Old X    -DE/DX   Delta X   Delta X   Delta X     New X
                                 (Linear)    (Quad)   (Total)
    R1        2.04369   0.00006  -0.00007   0.00037   0.00030   2.04400
    R2        2.04377   0.00005  -0.00006   0.00032   0.00026   2.04403
    R3        2.49699  -0.00123   0.00000  -0.00244  -0.00244   2.49455
    R4        7.54403  -0.00006   0.00030  -0.01460  -0.01430   7.52973
    R5        2.04396  -0.00004  -0.00007   0.00017   0.00010   2.04406
    R6        2.04402  -0.00006  -0.00007   0.00013   0.00007   2.04409
    R7        7.81466  -0.00042   0.00023  -0.01472  -0.01449   7.80017
    R8        7.55191  -0.00011   0.00015  -0.01197  -0.01181   7.54009
    R9        7.76642   0.00012   0.00023  -0.00944  -0.00921   7.75720
   R10        7.76725   0.00013   0.00024  -0.00951  -0.00928   7.75798
   R11        2.48640  -0.00236  -0.00016  -0.00415  -0.00431   2.48209
   R12        2.47977   0.00122   0.00020   0.00156   0.00176   2.48152
   R13        2.47922   0.00138   0.00019   0.00187   0.00205   2.48127
   R14        2.47998   0.00134   0.00018   0.00181   0.00199   2.48197
   R15        2.48048   0.00119   0.00019   0.00152   0.00171   2.48219
    A1        2.04689  -0.00053   0.00053  -0.00780  -0.00727   2.03961
    A2        2.11882   0.00025  -0.00024   0.00341   0.00317   2.12199
    A3        1.60070   0.00005  -0.00002   0.00061   0.00059   1.60129
    A4        2.11748   0.00028  -0.00029   0.00439   0.00410   2.12158
    A5        1.60009   0.00004  -0.00002   0.00052   0.00050   1.60060
    A6        2.11826   0.00031  -0.00024   0.00351   0.00327   2.12153
    A7        2.11687   0.00036  -0.00028   0.00449   0.00420   2.12107
    A8        1.62453  -0.00013   0.00000  -0.00015  -0.00015   1.62438
    A9        2.04805  -0.00066   0.00052  -0.00799  -0.00747   2.04058
   A10        1.70945   0.00005  -0.00004   0.00207   0.00203   1.71148
   A11        1.70843   0.00006  -0.00004   0.00217   0.00213   1.71057
   A12        1.62940   0.00002  -0.00003   0.00120   0.00117   1.63057
   A13        1.53646  -0.00003   0.00006  -0.00078  -0.00071   1.53575
   A14        1.53598  -0.00004   0.00007  -0.00083  -0.00076   1.53522
   A15        1.71375  -0.00012  -0.00005  -0.00040  -0.00044   1.71330
   A16        1.71452  -0.00013  -0.00004  -0.00046  -0.00050   1.71402
   A17        2.15455  -0.00003  -0.00039   0.00097   0.00058   2.15513
   A18        2.15538  -0.00008  -0.00037   0.00047   0.00010   2.15548
   A19        1.97325   0.00010   0.00076  -0.00144  -0.00069   1.97256
   A20        1.60179  -0.00012  -0.00002  -0.00042  -0.00044   1.60135
   A21        1.60209  -0.00011  -0.00002  -0.00032  -0.00034   1.60175
   A22        0.45348  -0.00011   0.00004  -0.00053  -0.00048   0.45299
   A23        1.65277   0.00019  -0.00001   0.00012   0.00010   1.65288
   A24        1.71240  -0.00011   0.00011  -0.00095  -0.00084   1.71156
   A25        1.33607  -0.00011   0.00000  -0.00073  -0.00073   1.33534
   A26        1.65160   0.00019  -0.00002   0.00023   0.00021   1.65181
   A27        1.33584  -0.00012   0.00000  -0.00084  -0.00084   1.33500
   A28        1.71409  -0.00012   0.00012  -0.00106  -0.00094   1.71315
   A29        2.15684  -0.00037  -0.00032  -0.00098  -0.00130   2.15554
   A30        2.15620  -0.00031  -0.00034  -0.00060  -0.00093   2.15526
   A31        1.97015   0.00068   0.00065   0.00158   0.00223   1.97238
    D1        0.00183  -0.00004  -0.00007  -0.00092  -0.00099   0.00084
    D2       -3.14155   0.00011   0.00003   0.00172   0.00175  -3.13980
    D3        1.57153   0.00003  -0.00002   0.00039   0.00037   1.57190
    D4        3.14134  -0.00011  -0.00003  -0.00170  -0.00173   3.13962
    D5       -0.00203   0.00005   0.00007   0.00094   0.00101  -0.00102
    D6       -1.57214  -0.00003   0.00002  -0.00039  -0.00037  -1.57251
    D7       -2.11619  -0.00023   0.00023  -0.00314  -0.00291  -2.11910
    D8        2.01334  -0.00020   0.00062  -0.00408  -0.00346   2.00988
    D9        0.03828  -0.00031  -0.00013  -0.00271  -0.00285   0.03543
   D10        2.11867   0.00030  -0.00030   0.00462   0.00432   2.12299
   D11       -0.03499   0.00033   0.00009   0.00369   0.00377  -0.03121
   D12       -2.01005   0.00022  -0.00066   0.00505   0.00438  -2.00566
   D13        3.10695   0.00033   0.00014   0.00230   0.00245   3.10940
   D14        1.10197   0.00028  -0.00062   0.00399   0.00337   1.10534
   D15       -1.09616  -0.00033   0.00067  -0.00498  -0.00431  -1.10047
   D16       -3.10113  -0.00038  -0.00010  -0.00329  -0.00339  -3.10452
   D17        2.15802  -0.00034  -0.00033  -0.00072  -0.00104   2.15697
   D18       -2.15356   0.00032   0.00032   0.00083   0.00115  -2.15241
   D19        0.22653  -0.00006   0.00002  -0.00031  -0.00029   0.22624
   D20       -0.22848   0.00005  -0.00002   0.00021   0.00019  -0.22829
   D21       -1.57071   0.00003  -0.00003   0.00100   0.00097  -1.56973
   D22        1.56985  -0.00004   0.00003  -0.00106  -0.00103   1.56882
   D23        1.79487  -0.00008   0.00006  -0.00039  -0.00034   1.79454
   D24        1.33986   0.00002   0.00001   0.00013   0.00014   1.34001
   D25       -0.00236   0.00001   0.00000   0.00092   0.00092  -0.00144
   D26        3.13820  -0.00006   0.00007  -0.00115  -0.00108   3.13712
   D27       -1.34128  -0.00002  -0.00001  -0.00014  -0.00015  -1.34143
   D28       -1.79629   0.00008  -0.00006   0.00038   0.00033  -1.79596
   D29       -3.13852   0.00007  -0.00007   0.00118   0.00111  -3.13741
   D30        0.00204   0.00000   0.00000  -0.00089  -0.00089   0.00115
         Item               Value     Threshold  Converged?
 Maximum Force            0.002359     0.000450     NO 
 RMS     Force            0.000475     0.000300     NO 
 Maximum Displacement     0.008198     0.001800     NO 
 RMS     Displacement     0.003124     0.001200     NO 
 Predicted change in Energy=-2.856855D-05
 GradGradGradGradGradGradGradGradGradGradGradGradGradGradGradGradGradGrad

                          Input orientation:                          
 ---------------------------------------------------------------------
 Center     Atomic      Atomic             Coordinates (Angstroms)
 Number     Number       Type             X           Y           Z
 ---------------------------------------------------------------------
      1          6           0       -0.014196    0.008103   -0.009198
      2          1           0        0.011195    0.007098    1.072139
      3          1           0        0.939011    0.007589   -0.520442
      4          6           0       -1.154671    0.006850   -0.673926
      5          1           0       -2.107869    0.005543   -0.162627
      6          1           0       -1.179072    0.006201   -1.755338
      7          6           0       -0.207525    3.986359   -0.122486
      8          6           0       -1.343706    3.990965   -0.781471
      9          9           0        0.968613    3.980803   -0.706500
     10          9           0       -0.129983    3.980674    1.188243
     11          9           0       -1.421366    3.992068   -2.092575
     12          9           0       -2.520254    3.991621   -0.197460
 ---------------------------------------------------------------------
                    Distance matrix (angstroms):
                    1          2          3          4          5
     1  C    0.000000
     2  H    1.081636   0.000000
     3  H    1.081652   1.843137   0.000000
     4  C    1.320056   2.099521   2.099300   0.000000
     5  H    2.099289   2.452567   3.067819   1.081672   0.000000
     6  H    2.099034   3.067794   2.451784   1.081687   1.843744
     7  C    3.984562   4.160467   4.159751   4.127671   4.411328
     8  C    4.269331   4.598132   4.598502   3.990046   4.104936
     9  F    4.151444   4.457638   3.977678   4.505741   5.056009
    10  F    4.150734   3.977778   4.455083   4.506544   4.640965
    11  F    4.710898   5.286552   4.890711   4.238591   4.482005
    12  F    4.710009   4.888408   5.286146   4.239131   4.007504
                    6          7          8          9         10
     6  H    0.000000
     7  C    4.410416   0.000000
     8  C    4.105345   1.313465   0.000000
     9  F    4.637895   1.313166   2.313557   0.000000
    10  F    5.055857   1.313033   2.313656   2.190197   0.000000
    11  F    4.007440   2.314020   1.313402   2.762848   3.525843
    12  F    4.484342   2.313950   1.313520   3.525823   2.762913
                   11         12
    11  F    0.000000
    12  F    2.190665   0.000000
 Stoichiometry    C4H4F4
 Framework group  C1[X(C4H4F4)]
 Deg. of freedom    30
 Full point group                 C1      NOp   1
 Largest Abelian subgroup         C1      NOp   1
 Largest concise Abelian subgroup C1      NOp   1
                         Standard orientation:                         
 ---------------------------------------------------------------------
 Center     Atomic      Atomic             Coordinates (Angstroms)
 Number     Number       Type             X           Y           Z
 ---------------------------------------------------------------------
      1          6           0       -3.052648    0.516341   -0.001188
      2          1           0       -3.111273    1.078113   -0.923637
      3          1           0       -3.111306    1.081025    0.919498
      4          6           0       -2.918955   -0.796926    0.001151
      5          1           0       -2.862112   -1.361762   -0.919579
      6          1           0       -2.862059   -1.358052    0.924161
      7          6           0        0.927674    0.700108    0.000220
      8          6           0        1.066520   -0.605997   -0.000252
      9          9           0        0.848004    1.419727    1.095759
     10          9           0        0.848032    1.420829   -1.094438
     11          9           0        1.141635   -1.327473    1.094670
     12          9           0        1.141351   -1.326470   -1.095995
 ---------------------------------------------------------------------
 Rotational constants (GHZ):      1.9049586      1.1394158      0.9724799
 Standard basis: Aug-CC-pVTZ (5D, 7F)
 There are   540 symmetry adapted cartesian basis functions of A   symmetry.
 There are   460 symmetry adapted basis functions of A   symmetry.
   460 basis functions,   684 primitive gaussians,   540 cartesian basis functions
    32 alpha electrons       32 beta electrons
       nuclear repulsion energy       372.3058020302 Hartrees.
 NAtoms=   12 NActive=   12 NUniq=   12 SFac= 1.00D+00 NAtFMM=   60 NAOKFM=F Big=F
 Integral buffers will be    131072 words long.
 Raffenetti 2 integral format.
 Two-electron integral symmetry is turned on.
 One-electron integrals computed using PRISM.
 NBasis=   460 RedAO= T EigKep=  4.10D-06  NBF=   460
 NBsUse=   460 1.00D-06 EigRej= -1.00D+00 NBFU=   460
 Initial guess from the checkpoint file:  "c2h4-c2f4-camb3lyp-aug.chk"
 B after Tr=     0.000000    0.000000    0.000000
         Rot=    1.000000    0.000014   -0.000001   -0.000334 Ang=   0.04 deg.
 Requested convergence on RMS density matrix=1.00D-08 within 128 cycles.
 Requested convergence on MAX density matrix=1.00D-06.
 Requested convergence on             energy=1.00D-06.
 No special actions if energy rises.
 SCF Done:  E(RCAM-B3LYP) =  -554.158472848     A.U. after    7 cycles
            NFock=  7  Conv=0.42D-08     -V/T= 2.0050
 Calling FoFJK, ICntrl=      2127 FMM=F ISym2X=0 I1Cent= 0 IOpClX= 0 NMat=1 NMatS=1 NMatT=0.
 ***** Axes restored to original set *****
 -------------------------------------------------------------------
 Center     Atomic                   Forces (Hartrees/Bohr)
 Number     Number              X              Y              Z
 -------------------------------------------------------------------
      1        6          -0.000433262    0.000179232   -0.000269080
      2        1           0.000205035   -0.000033273    0.000026301
      3        1           0.000126535   -0.000026518    0.000187224
      4        6           0.000541684    0.000394227    0.000291056
      5        1          -0.000145928   -0.000090646   -0.000227217
      6        1          -0.000294676   -0.000097063   -0.000008635
      7        6           0.000188817   -0.000080308   -0.000012341
      8        6          -0.000231470    0.000214440   -0.000022226
      9        9           0.000225271   -0.000097438   -0.000254166
     10        9          -0.000122119   -0.000107049    0.000397492
     11        9           0.000104477   -0.000132370   -0.000310614
     12        9          -0.000164364   -0.000123235    0.000202207
 -------------------------------------------------------------------
 Cartesian Forces:  Max     0.000541684 RMS     0.000221008

 GradGradGradGradGradGradGradGradGradGradGradGradGradGradGradGradGradGrad
 Berny optimization.
 Using GEDIIS/GDIIS optimizer.
 FormGI is forming the generalized inverse of G from B-inverse, IUseBI=4.
 Internal  Forces:  Max     0.000389436 RMS     0.000109349
 Search for a local minimum.
 Step number   4 out of a maximum of   86
 All quantities printed in internal units (Hartrees-Bohrs-Radians)
 Mixed Optimization -- En-DIIS/RFO-DIIS
 Swapping is turned off.
 Update second derivatives using D2CorX and points    1    2    3    4
[...]
    -- Stationary point found.
                           ----------------------------
                           !   Optimized Parameters   !
                           ! (Angstroms and Degrees)  !
 --------------------------                            --------------------------
 ! Name  Definition              Value          Derivative Info.                !
 --------------------------------------------------------------------------------
 ! R1    R(1,2)                  1.0816         -DE/DX =    0.0                 !
 ! R2    R(1,3)                  1.0816         -DE/DX =    0.0                 !
 ! R3    R(1,4)                  1.3197         -DE/DX =    0.0                 !
 ! R4    R(1,7)                  3.6161         -DE/DX =    0.0                 !
 ! R5    R(4,5)                  1.0818         -DE/DX =    0.0                 !
 ! R6    R(4,6)                  1.0818         -DE/DX =    0.0                 !
 ! R7    R(4,7)                  3.6756         -DE/DX =    0.0                 !
 ! R8    R(4,8)                  3.9428         -DE/DX =    0.0                 !
 ! R9    R(5,8)                  4.0307         -DE/DX =    0.0                 !
 ! R10   R(6,8)                  4.027          -DE/DX =    0.0                 !
 ! R11   R(7,8)                  1.3138         -DE/DX =    0.0                 !
 ! R12   R(7,9)                  1.3128         -DE/DX =    0.0                 !
 ! R13   R(7,10)                 1.3128         -DE/DX =    0.0                 !
 ! R14   R(8,11)                 1.3142         -DE/DX =    0.0                 !
 ! R15   R(8,12)                 1.3142         -DE/DX =    0.0                 !
 ! A1    A(2,1,3)              116.7082         -DE/DX =    0.0                 !
 ! A2    A(2,1,4)              121.6454         -DE/DX =    0.0                 !
 ! A3    A(2,1,7)               94.1304         -DE/DX =    0.0                 !
 ! A4    A(3,1,4)              121.6464         -DE/DX =    0.0                 !
 ! A5    A(3,1,7)               94.1209         -DE/DX =    0.0                 !
 ! A6    A(1,4,5)              121.6418         -DE/DX =    0.0                 !
 ! A7    A(1,4,6)              121.6413         -DE/DX =    0.0                 !
 ! A8    A(1,4,8)               96.493          -DE/DX =    0.0                 !
 ! A9    A(5,4,6)              116.7161         -DE/DX =    0.0                 !
 ! A10   A(5,4,7)               96.908          -DE/DX =    0.0                 !
 ! A11   A(6,4,7)               96.8989         -DE/DX =    0.0                 !
 ! A12   A(1,7,8)              112.6692         -DE/DX =    0.0                 !
 ! A13   A(1,7,9)               77.6731         -DE/DX =    0.0                 !
 ! A14   A(1,7,10)              77.8323         -DE/DX =    0.0                 !
 ! A15   A(4,7,9)               89.0299         -DE/DX =    0.0                 !
 ! A16   A(4,7,10)              88.9805         -DE/DX =    0.0                 !
 ! A17   A(8,7,9)              123.4409         -DE/DX =    0.0                 !
 ! A18   A(8,7,10)             123.4425         -DE/DX =    0.0                 !
 ! A19   A(9,7,10)             113.1166         -DE/DX =    0.0                 !
 ! A20   A(4,8,11)             101.4179         -DE/DX =    0.0                 !
 ! A21   A(4,8,12)             101.3783         -DE/DX =    0.0                 !
 ! A22   A(5,8,6)               26.4292         -DE/DX =    0.0                 !
 ! A23   A(5,8,7)               77.2583         -DE/DX =    0.0                 !
 ! A24   A(5,8,11)             108.0913         -DE/DX =    0.0                 !
 ! A25   A(5,8,12)              85.8346         -DE/DX =    0.0                 !
 ! A26   A(6,8,7)               77.4061         -DE/DX =    0.0                 !
 ! A27   A(6,8,11)              85.8619         -DE/DX =    0.0                 !
 ! A28   A(6,8,12)             107.8944         -DE/DX =    0.0                 !
 ! A29   A(7,8,11)             123.4864         -DE/DX =    0.0                 !
 ! A30   A(7,8,12)             123.4885         -DE/DX =    0.0                 !
 ! A31   A(11,8,12)            113.0241         -DE/DX =    0.0                 !
 ! D1    D(2,1,4,5)             -0.1705         -DE/DX =    0.0                 !
 ! D2    D(2,1,4,6)           -179.8197         -DE/DX =    0.0                 !
 ! D3    D(2,1,4,8)             90.1241         -DE/DX =    0.0                 !
 ! D4    D(3,1,4,5)            179.8203         -DE/DX =    0.0                 !
 ! D5    D(3,1,4,6)              0.1711         -DE/DX =    0.0                 !
 ! D6    D(3,1,4,8)            -89.8851         -DE/DX =    0.0                 !
 ! D7    D(2,1,7,8)           -121.7704         -DE/DX =    0.0                 !
 ! D8    D(2,1,7,9)            116.8951         -DE/DX =    0.0                 !
 ! D9    D(2,1,7,10)            -0.3774         -DE/DX =    0.0                 !
 ! D10   D(3,1,7,8)            121.0366         -DE/DX =    0.0                 !
 ! D11   D(3,1,7,9)             -0.2979         -DE/DX =    0.0                 !
 ! D12   D(3,1,7,10)          -117.5703         -DE/DX =    0.0                 !
 ! D13   D(5,4,7,9)            177.1874         -DE/DX =    0.0                 !
 ! D14   D(5,4,7,10)            64.0447         -DE/DX =    0.0                 !
 ! D15   D(6,4,7,9)            -64.7251         -DE/DX =    0.0                 !
 ! D16   D(6,4,7,10)          -177.8679         -DE/DX =    0.0                 !
 ! D17   D(1,4,8,11)           121.3624         -DE/DX =    0.0                 !
 ! D18   D(1,4,8,12)          -122.0441         -DE/DX =    0.0                 !
 ! D19   D(1,7,8,5)             13.7278         -DE/DX =    0.0                 !
 ! D20   D(1,7,8,6)            -13.3727         -DE/DX =    0.0                 !
 ! D21   D(1,7,8,11)           -89.6954         -DE/DX =    0.0                 !
 ! D22   D(1,7,8,12)            89.9065         -DE/DX =    0.0                 !
 ! D23   D(9,7,8,5)            103.6461         -DE/DX =    0.0                 !
 ! D24   D(9,7,8,6)             76.5456         -DE/DX =    0.0                 !
 ! D25   D(9,7,8,11)             0.2229         -DE/DX =    0.0                 !
 ! D26   D(9,7,8,12)           179.8248         -DE/DX =    0.0                 !
 ! D27   D(10,7,8,5)           -76.3931         -DE/DX =    0.0                 !
 ! D28   D(10,7,8,6)          -103.4937         -DE/DX =    0.0                 !
 ! D29   D(10,7,8,11)         -179.8163         -DE/DX =    0.0                 !
 ! D30   D(10,7,8,12)           -0.2145         -DE/DX =    0.0                 !
 --------------------------------------------------------------------------------
 GradGradGradGradGradGradGradGradGradGradGradGradGradGradGradGradGradGrad

 1\1\GINC-TC-NODE158\Freq\RCAM-B3LYP\Aug-CC-pVTZ\C4H4F4\MAXB2\16-Nov-20
 16\0\\#N Geom=AllCheck Guess=TCheck SCRF=Check GenChk RCAM-B3LYP/Aug-C
 C-pVTZ Freq\\Title\\0,1\C,0.0723772473,0.1104115933,0.0372126524\H,0.1
 037918266,0.1011440674,1.1183663388\H,1.0240235985,0.1032197063,-0.476
 8670212\C,-1.070692064,0.1293779921,-0.6221461464\H,-2.0224773487,0.13
 36814348,-0.1079376562\H,-1.102070621,0.1357486459,-1.7034900611\C,-0.
 3139389476,3.6991385221,-0.181375713\C,-1.4062143099,4.0528662318,-0.8
 200232586\F,0.8405811237,3.5048409534,-0.7753115705\F,-0.2653127471,3.
 5045866617,1.1160096419\F,-1.4566918417,4.2444699161,-2.1192029024\F,-
 2.5631988869,4.2443884853,-0.2268738805\\Version=ES64L-G09RevD.01\Stat
 e=1-A\HF=-554.1587126\RMSD=4.835e-09\RMSF=1.402e-06\ZeroPoint=0.073769
 7\Thermal=0.0834363\Dipole=0.0255477,-0.0705223,0.014864\DipoleDeriv=0
 .012924,-0.0207008,-0.0462028,0.0024109,-0.3226857,0.0009206,-0.046187
 8,-0.0124809,0.0664356,0.0484497,0.0004473,0.0209522,-0.0026748,0.1587
 589,-0.006327,-0.0183754,-0.0007203,-0.0686842,-0.0382014,-0.0006854,0
 .0317625,-0.007165,0.1587692,0.0010992,0.0710359,0.0011045,0.0179613,-
 0.003642,0.0204498,-0.0567233,0.00923,-0.3230741,0.0048342,-0.0567241,
 0.0112208,0.061907,-0.0435983,0.005839,0.0313835,0.0052011,0.1573448,-
 0.0023912,0.0712034,-0.001751,0.0160872,0.0455742,0.0012282,0.019612,0
 .000478,0.1573272,0.0061901,-0.0201884,0.0063946,-0.0731118,1.1276584,
 -0.2566015,-0.0974671,-0.22628,0.2871871,-0.1325403,-0.097385,-0.14993
 33,1.2378791,1.1963445,-0.3112596,-0.0868442,-0.2273838,0.2096921,-0.1
 330175,-0.0867746,-0.1820134,1.2940247,-0.9114182,0.2049303,0.1459959,
 0.1456509,-0.132079,-0.0001179,0.3216493,-0.0459616,-0.2954157,-0.2436
 605,0.0604711,-0.0541484,0.0713956,-0.131959,0.1272871,-0.2299047,0.20
 11268,-0.9633765,-0.2559186,0.0652352,-0.0573237,0.0724716,-0.109655,0
 .1390744,-0.2329008,0.2279448,-0.9861887,-0.9345119,0.2306465,0.149003
 3,0.1566654,-0.1096267,-0.0050116,0.3245523,-0.0549308,-0.3075179\Pola
 r=63.674169,-4.4163854,48.8283451,6.9855432,-2.5805405,55.6891438\Pola
 rDeriv=2.7420806,-0.3149648,8.3749888,4.5933035,-0.1983893,1.9098485,-
 0.7422588,4.6557309,-0.2718134,-0.2690704,2.6843557,-0.4095641,5.46121
 8,-0.1990051,4.8305141,0.4051228,-0.0605179,-2.7798367,1.4754723,-0.11
 70285,-0.0301608,0.9519316,-0.0190436,0.1212774,-0.0231998,-0.2736185,
 0.0337333,0.0173272,0.3197338,-0.1173598,1.2511322,-0.105543,1.1463185
 ,1.5367011,-0.400273,8.3870341,7.508437,-0.372865,0.9765206,-1.4827517
 ,0.0453416,1.6340404,-0.0655845,0.1387778,0.0380997,0.0445335,-0.39633
 06,-0.0601755,-2.857503,0.1284783,-0.5988627,2.083952,-0.1322775,-0.58
 58962,-2.751963,0.0945296,-8.2992224,-4.5741533,0.0694735,-1.8706572,-
 0.3423526,-4.8727391,1.138771,-0.0501821,-2.8103534,-0.3067754,-5.4065
 751,0.0699431,-4.787425,-0.4300901,-0.011185,2.7381468,-7.2951919,-0.2
 58024,-0.9390517,1.5400261,0.0376124,-1.6497802,0.0000604,-0.1015099,-
 0.0326692,0.0181187,0.3889445,-0.0319191,2.8131755,0.0931739,0.5815969
 ,-2.0720276,-0.08583,0.6255054,-1.404909,-0.072442,0.0334812,-0.914064
 7,-0.0148903,-0.0965744,-0.0079943,0.2860935,-0.0292652,0.025191,-0.28
 21927,-0.0096023,-1.1859315,-0.0666198,-1.1035622,-1.4096689,-0.259132
 1,-8.2755189,6.003036,0.1137076,4.0741043,3.731902,0.07388,1.2655275,0
 .60939,5.5031135,-7.1749715,0.0396326,3.2155304,0.5669203,3.0403266,0.
 0734762,2.3820443,2.4474806,0.0316908,1.2112903,-6.0645746,0.3979691,-
 4.2522979,-3.7901399,0.07259,-1.2971339,0.3581555,-5.2167666,6.1169836
 ,0.2697552,-3.0501552,0.0507382,-3.1071216,0.0735434,-2.4857265,-2.463
 6132,0.3135827,-1.1969612,5.3948306,-0.686732,0.9150644,-1.1431098,-0.
 1677434,1.8984409,-0.5679898,0.5721454,0.0752923,-0.1179607,-0.7482907
 ,-0.3570841,-1.3535645,-0.1038245,-0.4054702,1.8995875,-0.3689921,-1.6
 654684,0.8935645,-0.5617539,0.096352,1.4170457,-0.1744089,0.0520677,-0
 .5082564,-0.3718465,0.0763929,-0.1522391,0.8658061,-0.4199898,1.518575
 8,-0.2389965,0.9960268,0.2366726,-0.4952002,6.3198282,-1.0131312,0.645
 1185,-0.1437755,-1.5318574,0.2156424,-0.0776846,0.4946877,0.3292725,0.
 0143885,0.1720492,-0.9297048,0.697783,-1.4118397,0.3340789,-0.8439347,
 -0.1869191,0.9779787,-6.439877,-5.4876513,1.1324854,-0.806003,1.201868
 ,0.0599356,-1.889372,0.7953425,-0.648653,0.0150581,0.0028449,0.742657,
 0.3970288,1.2381074,-0.058705,0.2884806,-2.0471978,0.4901557,1.6617536
 \HyperPolar=4.2139126,-13.4767696,1.0869606,0.688251,1.0095861,-2.6550
 612,0.6502421,1.3996547,-10.39054,2.2410608\PG=C01 [X(C4H4F4)]\NImag=1
 \\0.82328897,-0.00925612,0.11938938,0.10324057,-0.00602430,0.70381871,
 -0.05885626,0.00031846,0.00044062,0.05465112,0.00029598,-0.03934422,0.
 00251189,-0.00047360,0.02536408,-0.00464268,0.00265576,-0.33973988,0.0
 0810962,-0.00296642,0.36008049,-0.27116581,0.00196434,0.11815235,0.003
 67808,0.00000755,-0.00207056,0.29056594,0.00180908,-0.03932942,-0.0006
 9978,-0.00023562,0.00333105,0.00013977,-0.00224881,0.02534751,0.123237
 10,-0.00074601,-0.12743108,0.02479557,-0.00022127,-0.00946530,-0.12833
 409,0.00074246,0.12417052,-0.47434759,0.00656487,-0.20612402,0.0029663
 5,-0.00001041,0.00128609,-0.02170682,0.00051798,-0.01692180,0.82260143
 ,0.00672393,-0.05322699,0.00396361,0.00027573,0.00688834,0.00013202,0.
 00018835,0.00689126,0.00014104,-0.00829037,0.11823356,-0.20612568,0.00
 387250,-0.23589877,-0.03118675,0.00060164,-0.01266239,0.01555426,-0.00
 030597,0.01200737,0.10334254,-0.00545936,0.70301406,-0.02183363,0.0001
 2922,0.01560473,0.00144843,-0.00008613,-0.00022305,-0.00271014,0.00017
 570,-0.00314847,-0.27065185,0.00105597,0.11793327,0.29015891,0.0005389
 2,0.00680961,-0.00026033,-0.00011094,-0.00909640,-0.00006117,0.0002187
 6,0.01283423,0.00015105,0.00076748,-0.03918061,-0.00028843,-0.00123008
 ,0.02539939,-0.01688385,0.00012578,0.01202919,0.00034166,-0.00010674,0
 .00137090,-0.00312059,0.00018741,-0.00061833,0.12301275,-0.00052889,-0
 .12728844,-0.12814325,0.00035505,0.12403289,0.00299008,0.00022993,-0.0
 3123711,-0.00386019,0.00023599,-0.00245568,0.00144141,-0.00012160,0.00
 034524,-0.05880943,0.00005095,0.00049104,0.00363140,-0.00008915,0.0247
 6702,0.05460756,0.00003956,0.00680668,0.00059983,0.00022671,0.01283421
 ,0.00013540,-0.00009836,-0.00909566,-0.00008625,0.00012703,-0.03918803
 ,0.00139202,0.00001931,0.00322153,-0.00005829,-0.00029705,0.02540914,0
 .00125109,0.00008807,-0.01279073,-0.00248368,0.00007910,0.00053120,-0.
 00021989,-0.00004027,0.00137743,-0.00458785,0.00175594,-0.33912842,-0.
 00205055,0.00006849,-0.00950769,0.00808760,-0.00188304,0.35957798,0.00
 017202,-0.00004635,-0.00045737,0.00000200,0.00001613,0.00000282,-0.000
 50079,0.00078142,0.00036428,-0.00056778,0.00028607,-0.00002041,-0.0003
 9776,-0.00045318,0.00024774,0.00018412,-0.00016522,-0.00010331,0.89194
 975,0.00038817,-0.00030921,0.00022468,-0.00000707,-0.00025922,0.000202
 13,0.00016973,-0.00025686,-0.00010679,0.00030139,-0.00048557,0.0001734
 7,0.00007743,0.00015353,-0.00012506,-0.00006991,0.00015604,0.00013348,
 -0.21237428,0.17630045,-0.00044777,-0.00002403,0.00069123,0.00006737,0
 .00088776,-0.00070601,0.00029109,-0.00042927,-0.00021072,-0.00002885,0
 .00016586,-0.00053484,0.00023476,0.00007334,0.00010067,-0.00008392,-0.
 00042850,-0.00048311,0.15163392,-0.12424285,0.72125151,-0.00086790,-0.
 00124600,-0.00024081,0.00004714,0.00032650,-0.00009989,-0.00019434,0.0
 0030433,0.00003521,0.00119464,-0.00076842,0.00017752,-0.00002713,-0.00
 004893,0.00021365,0.00004706,0.00032395,0.00013176,-0.45064203,0.13336
 543,-0.22790775,0.89117263,0.00007109,-0.00000498,0.00004149,0.0000107
 5,-0.00009765,0.00003464,0.00003576,-0.00009782,-0.00000832,0.00015048
 ,-0.00004899,0.00008718,-0.00004568,-0.00005361,-0.00000415,-0.0000260
 8,-0.00005323,-0.00003741,0.12930245,-0.08383858,0.07560319,-0.2099258
 1,0.17190664,-0.00024811,-0.00072750,-0.00059283,-0.00010271,0.0001650
 5,-0.00015671,0.00003896,0.00020258,0.00008730,0.00019195,-0.00045278,
 0.00098975,0.00017247,0.00040277,-0.00015454,0.00016640,-0.00023882,-0
 .00022231,-0.22791059,0.07798061,-0.19410648,0.15367043,-0.12277331,0.
 71817106,0.00002135,0.00042506,0.00040624,0.00001690,0.00000133,-0.000
 04787,0.00029872,-0.00051172,-0.00022654,-0.00005830,0.00016253,-0.000
 14436,0.00023933,0.00019385,-0.00015992,-0.00014258,-0.00001359,-0.000
 01132,-0.33996165,0.06008877,0.09546584,-0.02961872,0.00217512,0.04131
 077,0.38503148,-0.00020637,-0.00037153,-0.00025947,-0.00000456,0.00002
 220,0.00001774,-0.00020865,0.00026134,0.00013307,-0.00009737,0.0000175
 2,0.00016215,-0.00008672,-0.00007413,0.00004770,0.00004946,-0.00000988
 ,-0.00002025,0.05924856,-0.04690648,-0.01183217,0.00781445,0.00095202,
 -0.01023142,-0.06632864,0.03401410,0.00006402,-0.00006280,-0.00020022,
 -0.00005143,-0.00014015,0.00013083,-0.00016724,0.00025241,0.00003470,-
 0.00003760,-0.00010254,0.00007995,-0.00010719,-0.00010034,0.00007386,0
 .00008149,0.00006625,0.00006717,0.11434004,-0.01579329,-0.11512565,-0.
 00766699,0.00185736,0.00094951,-0.15705675,0.01939432,0.15149649,0.000
 05422,0.00015566,0.00004208,-0.00006922,-0.00003328,0.00004272,0.00005
 981,-0.00012111,-0.00007642,-0.00003130,-0.00001158,-0.00005183,0.0000
 4622,0.00005138,-0.00002577,0.00000039,0.00000814,0.00002853,-0.079539
 27,0.01570960,-0.03222252,0.00797815,0.00269101,-0.02882363,-0.0006033
 2,-0.00574712,0.04916305,0.07341836,-0.00032373,-0.00036685,-0.0000498
 7,0.00000844,0.00026324,-0.00024557,0.00001377,0.00001986,-0.00001433,
 0.00009129,0.00001596,-0.00016598,0.00000870,-0.00000823,0.00005233,-0
 .00000129,-0.00007498,-0.00009988,0.01875262,-0.04692854,0.05750336,-0
 .00508630,0.00095097,0.01183238,-0.00300680,0.00634105,-0.00489110,-0.
 01562535,0.03403466,0.00037988,0.00039883,-0.00023532,-0.00000944,-0.0
 0056760,0.00040017,-0.00007428,0.00007374,0.00009136,-0.00015657,0.000
 19146,0.00004834,-0.00012360,-0.00004930,-0.00011936,-0.00002267,0.000
 21817,0.00031514,-0.05109644,0.06017543,-0.37554325,0.02015373,0.00099
 349,-0.03663956,0.03199321,-0.00020798,-0.04627677,0.01831284,-0.06740
 103,0.46309800,0.00010499,0.00015626,0.00003711,0.00000100,-0.00006979
 ,0.00003300,0.00003770,-0.00006498,-0.00000586,-0.00009529,0.00008395,
 -0.00002095,-0.00000213,0.00000346,-0.00004470,-0.00003940,-0.00002359
 ,0.00000776,0.00808544,0.00233062,-0.02864797,-0.07945380,0.01561032,-
 0.03276500,0.00259396,-0.00127877,-0.00152814,-0.00392699,0.00432107,-
 0.00488334,0.07323780,-0.00003618,-0.00002622,-0.00003044,-0.00000300,
 0.00005655,-0.00002635,-0.00001806,0.00003780,0.00000447,-0.00004836,0
 .00004189,-0.00005718,0.00000314,-0.00000195,0.00002892,0.00001240,-0.
 00000329,-0.00003188,-0.00413569,0.00118674,0.01241434,0.01831100,-0.0
 4481216,0.05469834,0.00039764,-0.00366898,-0.00175947,0.00426132,0.009
 42180,0.00496718,-0.01551595,0.03198032,0.00032590,0.00060512,0.000341
 49,0.00004905,-0.00028699,0.00021262,0.00002736,-0.00020337,-0.0000607
 0,-0.00017987,0.00023333,-0.00051355,-0.00007881,-0.00017418,0.0000085
 5,-0.00012203,0.00019624,0.00021117,0.02089691,-0.00128008,-0.03610455
 ,-0.05211664,0.06003120,-0.37424833,-0.01446162,0.00168965,0.01161718,
 -0.00485114,0.00542474,-0.01673584,0.01875693,-0.06565837,0.46129398,0
 .00043956,0.00060467,0.00013562,-0.00002535,-0.00021026,0.00006548,0.0
 0019624,-0.00028466,-0.00006422,-0.00049405,0.00024290,0.00005134,0.00
 009835,0.00015844,-0.00020473,-0.00005044,-0.00014689,-0.00005015,-0.0
 2878406,0.00002012,0.04164580,-0.33963571,0.05995059,0.09429906,-0.017
 81717,0.00684572,0.00296675,0.00261294,0.00084757,-0.01447332,-0.00054
 329,-0.00322826,0.03175396,0.38400298,-0.00004432,-0.00002624,-0.00001
 732,-0.00000528,0.00003782,-0.00001796,-0.00002437,0.00005672,0.000010
 88,-0.00007401,0.00004168,-0.00001205,-0.00002087,-0.00000335,0.000025
 94,0.00002634,-0.00000251,-0.00001234,0.00878745,0.00118769,-0.0096910
 3,0.05662981,-0.04480262,-0.01085789,0.00641644,0.00942276,0.00127935,
 -0.00133867,-0.00366894,0.00120761,-0.00555259,0.00578752,-0.00057730,
 -0.06479993,0.03196946,-0.00015046,-0.00016143,0.00000821,0.00003013,0
 .00004374,0.00000406,-0.00007738,0.00008029,0.00001745,0.00020322,-0.0
 0003969,-0.00011306,-0.00007031,-0.00011696,0.00007230,-0.00001739,0.0
 0008699,0.00005217,-0.00789761,0.00265825,0.00077119,0.11364981,-0.015
 82538,-0.11407686,0.00293232,0.00110668,-0.00284705,-0.00153791,-0.001
 94505,0.01159709,0.04906116,-0.00454956,-0.04602203,-0.15612558,0.0186
 6212,0.15053652\\0.00000016,0.00000118,0.00000030,-0.00000170,0.000000
 22,0.00000038,-0.00000056,0.00000023,-0.00000165,0.00000272,-0.0000006
 1,0.00000150,0.00000037,-0.00000067,0.00000262,0.00000238,-0.00000050,
 -0.00000137,0.00000010,0.00000080,0.00000054,-0.00000197,-0.00000130,0
 .00000073,-0.00000028,0.00000224,-0.00000253,-0.00000230,-0.00000069,-
 0.00000020,0.00000081,-0.00000280,-0.00000088,0.00000026,0.00000192,0.
 00000058\\\@


 PATIENCE IS THE ABILITY TO IDLE YOUR MOTOR WHEN
 YOU FEEL LIKE STRIPPING YOUR GEARS.
 Job cpu time:       0 days 10 hours 40 minutes 49.2 seconds.
 File lengths (MBytes):  RWF=    218 Int=      0 D2E=      0 Chk=     17 Scr=      1
 Normal termination of Gaussian 09 at Wed Nov 16 22:56:32 2016.
