 Entering Gaussian System, Link 0=g09
 Initial command:
 /cluster/software/gaussian/gaussian-09-D.01/g09/l1.exe "/local/scratch/maxb2/Gau-11158.inp" -scrdir="/local/scratch/maxb2/"
 Entering Link 1 = /cluster/software/gaussian/gaussian-09-D.01/g09/l1.exe PID=     11159.
  
 Copyright (c) 1988,1990,1992,1993,1995,1998,2003,2009,2013,
            Gaussian, Inc.  All Rights Reserved.
  
 This is part of the Gaussian(R) 09 program.  It is based on
 the Gaussian(R) 03 system (copyright 2003, Gaussian, Inc.),
 the Gaussian(R) 98 system (copyright 1998, Gaussian, Inc.),
 the Gaussian(R) 94 system (copyright 1995, Gaussian, Inc.),
 the Gaussian 92(TM) system (copyright 1992, Gaussian, Inc.),
 the Gaussian 90(TM) system (copyright 1990, Gaussian, Inc.),
 the Gaussian 88(TM) system (copyright 1988, Gaussian, Inc.),
 the Gaussian 86(TM) system (copyright 1986, Carnegie Mellon
 University), and the Gaussian 82(TM) system (copyright 1983,
 Carnegie Mellon University). Gaussian is a federally registered
 trademark of Gaussian, Inc.
  
 This software contains proprietary and confidential information,
 including trade secrets, belonging to Gaussian, Inc.
  
 This software is provided under written license and may be
 used, copied, transmitted, or stored only in accord with that
 written license.
  
 The following legend is applicable only to US Government
 contracts under FAR:
  
                    RESTRICTED RIGHTS LEGEND
  
 Use, reproduction and disclosure by the US Government is
 subject to restrictions as set forth in subparagraphs (a)
 and (c) of the Commercial Computer Software - Restricted
 Rights clause in FAR 52.227-19.
  
 Gaussian, Inc.
 340 Quinnipiac St., Bldg. 40, Wallingford CT 06492
  
  
 ---------------------------------------------------------------
 Warning -- This program may not be used in any manner that
 competes with the business of Gaussian, Inc. or will provide
 assistance to any competitor of Gaussian, Inc.  The licensee
 of this program is prohibited from giving any competitor of
 Gaussian, Inc. access to this program.  By using this program,
 the user acknowledges that Gaussian, Inc. is engaged in the
 business of creating and licensing software in the field of
 computational chemistry and represents and warrants to the
 licensee that it is not a competitor of Gaussian, Inc. and that
 it will not use this program in any manner prohibited above.
 ---------------------------------------------------------------
  

 Cite this work as:
 Gaussian 09, Revision D.01,
 M. J. Frisch, G. W. Trucks, H. B. Schlegel, G. E. Scuseria, 
 M. A. Robb, J. R. Cheeseman, G. Scalmani, V. Barone, B. Mennucci, 
 G. A. Petersson, H. Nakatsuji, M. Caricato, X. Li, H. P. Hratchian, 
 A. F. Izmaylov, J. Bloino, G. Zheng, J. L. Sonnenberg, M. Hada, 
 M. Ehara, K. Toyota, R. Fukuda, J. Hasegawa, M. Ishida, T. Nakajima, 
 Y. Honda, O. Kitao, H. Nakai, T. Vreven, J. A. Montgomery, Jr., 
 J. E. Peralta, F. Ogliaro, M. Bearpark, J. J. Heyd, E. Brothers, 
 K. N. Kudin, V. N. Staroverov, T. Keith, R. Kobayashi, J. Normand, 
 K. Raghavachari, A. Rendell, J. C. Burant, S. S. Iyengar, J. Tomasi, 
 M. Cossi, N. Rega, J. M. Millam, M. Klene, J. E. Knox, J. B. Cross, 
 V. Bakken, C. Adamo, J. Jaramillo, R. Gomperts, R. E. Stratmann, 
 O. Yazyev, A. J. Austin, R. Cammi, C. Pomelli, J. W. Ochterski, 
 R. L. Martin, K. Morokuma, V. G. Zakrzewski, G. A. Voth, 
 P. Salvador, J. J. Dannenberg, S. Dapprich, A. D. Daniels, 
 O. Farkas, J. B. Foresman, J. V. Ortiz, J. Cioslowski, 
 and D. J. Fox, Gaussian, Inc., Wallingford CT, 2013.
 
 ******************************************
 Gaussian 09:  ES64L-G09RevD.01 24-Apr-2013
                16-Nov-2016 
 ******************************************
 %nprocshared=8
 Will use up to    8 processors via shared memory.
 %mem=6GB
 %chk=c2h4-c2f4-wb97xd-aug
 -----------------------------------------------------
 # opt freq=raman wb97xd/aug-cc-pvtz geom=connectivity
 -----------------------------------------------------
 1/14=-1,18=20,19=15,26=3,38=1,57=2/1,3;
 2/9=110,12=2,17=6,18=5,40=1/2;
 3/5=16,6=1,7=10,11=2,16=1,25=1,30=1,71=1,74=-58/1,2,3;
 4//1;
 5/5=2,38=5/2;
 6/7=2,8=2,9=2,10=2,28=1/1;
 7//1,2,3,16;
 1/14=-1,18=20,19=15,26=3/3(2);
 2/9=110/2;
 99//99;
 2/9=110/2;
 3/5=16,6=1,7=10,11=2,16=1,25=1,30=1,71=1,74=-58/1,2,3;
 4/5=5,16=3,69=1/1;
 5/5=2,38=5/2;
 7//1,2,3,16;
 1/14=-1,18=20,19=15,26=3/3(-5);
 2/9=110/2;
 6/7=2,8=2,9=2,10=2,19=2,28=1/1;
 99/9=1/99;
 -----
 Title
 -----
 Symbolic Z-matrix:
 Charge =  0 Multiplicity = 1
 C
 H                    1    B1
 H                    1    B2       2    A1
 C                    1    B3       3    A2       2    D1       0
 H                    4    B4       1    A3       3    D2       0
 H                    4    B5       1    A4       3    D3       0
 C                    1    B6       4    A5       6    D4       0
 C                    7    B7       1    A6       4    D5       0
 F                    7    B8       1    A7       4    D6       0
 F                    7    B9       1    A8       4    D7       0
 F                    8    B10      7    A9       1    D8       0
 F                    8    B11      7    A10      1    D9       0
       Variables:
  B1                    1.07                     
  B2                    1.07                     
  B3                    1.3552                   
  B4                    1.07                     
  B5                    1.07                     
  B6                    4.                       
  B7                    1.3552                   
  B8                    1.35                     
  B9                    1.35                     
  B10                   1.35                     
  B11                   1.35                     
  A1                  119.88653                  
  A2                  119.88653                  
  A3                  120.22695                  
  A4                  119.88653                  
  A5                   86.85591                  
  A6                   93.14409                  
  A7                   88.43394                  
  A8                   88.41777                  
  A9                  120.22695                  
  A10                 119.88653                  
  D1                 -180.                       
  D2                  180.                       
  D3                    0.                       
  D4                   90.                       
  D5                    0.                       
  D6                 -119.84925                  
  D7                  120.18942                  
  D8                  -90.                       
  D9                   90.                       
 
 Add virtual bond connecting atoms C7         and C1         Dist= 7.56D+00.
 Add virtual bond connecting atoms C7         and C4         Dist= 7.85D+00.
 Add virtual bond connecting atoms C8         and C4         Dist= 7.56D+00.
 Add virtual bond connecting atoms C8         and H5         Dist= 7.77D+00.
 Add virtual bond connecting atoms C8         and H6         Dist= 7.77D+00.

 GradGradGradGradGradGradGradGradGradGradGradGradGradGradGradGradGradGrad
 Berny optimization.
 Initialization pass.
                           ----------------------------
                           !    Initial Parameters    !
                           ! (Angstroms and Degrees)  !
 --------------------------                            --------------------------
 ! Name  Definition              Value          Derivative Info.                !
 --------------------------------------------------------------------------------
 ! R1    R(1,2)                  1.07           estimate D2E/DX2                !
 ! R2    R(1,3)                  1.07           estimate D2E/DX2                !
 ! R3    R(1,4)                  1.3552         estimate D2E/DX2                !
 ! R4    R(1,7)                  4.0            estimate D2E/DX2                !
 ! R5    R(4,5)                  1.07           estimate D2E/DX2                !
 ! R6    R(4,6)                  1.07           estimate D2E/DX2                !
 ! R7    R(4,7)                  4.1523         estimate D2E/DX2                !
 ! R8    R(4,8)                  4.0            estimate D2E/DX2                !
 ! R9    R(5,8)                  4.112          estimate D2E/DX2                !
 ! R10   R(6,8)                  4.1123         estimate D2E/DX2                !
 ! R11   R(7,8)                  1.3552         estimate D2E/DX2                !
 ! R12   R(7,9)                  1.35           estimate D2E/DX2                !
 ! R13   R(7,10)                 1.35           estimate D2E/DX2                !
 ! R14   R(8,11)                 1.35           estimate D2E/DX2                !
 ! R15   R(8,12)                 1.35           estimate D2E/DX2                !
 ! A1    A(2,1,3)              119.8865         estimate D2E/DX2                !
 ! A2    A(2,1,4)              120.2269         estimate D2E/DX2                !
 ! A3    A(2,1,7)               91.5822         estimate D2E/DX2                !
 ! A4    A(3,1,4)              119.8865         estimate D2E/DX2                !
 ! A5    A(3,1,7)               91.5661         estimate D2E/DX2                !
 ! A6    A(1,4,5)              120.2269         estimate D2E/DX2                !
 ! A7    A(1,4,6)              119.8865         estimate D2E/DX2                !
 ! A8    A(1,4,8)               93.1441         estimate D2E/DX2                !
 ! A9    A(5,4,6)              119.8865         estimate D2E/DX2                !
 ! A10   A(5,4,7)               97.9151         estimate D2E/DX2                !
 ! A11   A(6,4,7)               97.8337         estimate D2E/DX2                !
 ! A12   A(1,7,8)               93.1441         estimate D2E/DX2                !
 ! A13   A(1,7,9)               88.4339         estimate D2E/DX2                !
 ! A14   A(1,7,10)              88.4178         estimate D2E/DX2                !
 ! A15   A(4,7,9)               97.8337         estimate D2E/DX2                !
 ! A16   A(4,7,10)              97.9151         estimate D2E/DX2                !
 ! A17   A(8,7,9)              119.8865         estimate D2E/DX2                !
 ! A18   A(8,7,10)             120.2269         estimate D2E/DX2                !
 ! A19   A(9,7,10)             119.8865         estimate D2E/DX2                !
 ! A20   A(4,8,11)              91.5822         estimate D2E/DX2                !
 ! A21   A(4,8,12)              91.5661         estimate D2E/DX2                !
 ! A22   A(5,8,6)               26.031          estimate D2E/DX2                !
 ! A23   A(5,8,7)               94.4532         estimate D2E/DX2                !
 ! A24   A(5,8,11)              98.9271         estimate D2E/DX2                !
 ! A25   A(5,8,12)              76.4895         estimate D2E/DX2                !
 ! A26   A(6,8,7)               94.376          estimate D2E/DX2                !
 ! A27   A(6,8,11)              76.5066         estimate D2E/DX2                !
 ! A28   A(6,8,12)              99.066          estimate D2E/DX2                !
 ! A29   A(7,8,11)             120.2269         estimate D2E/DX2                !
 ! A30   A(7,8,12)             119.8865         estimate D2E/DX2                !
 ! A31   A(11,8,12)            119.8865         estimate D2E/DX2                !
 ! D1    D(2,1,4,5)              0.0            estimate D2E/DX2                !
 ! D2    D(2,1,4,6)            180.0            estimate D2E/DX2                !
 ! D3    D(2,1,4,8)             90.0            estimate D2E/DX2                !
 ! D4    D(3,1,4,5)            180.0            estimate D2E/DX2                !
 ! D5    D(3,1,4,6)              0.0            estimate D2E/DX2                !
 ! D6    D(3,1,4,8)            -90.0            estimate D2E/DX2                !
 ! D7    D(2,1,7,8)           -120.1894         estimate D2E/DX2                !
 ! D8    D(2,1,7,9)            119.9613         estimate D2E/DX2                !
 ! D9    D(2,1,7,10)             0.0            estimate D2E/DX2                !
 ! D10   D(3,1,7,8)            119.8493         estimate D2E/DX2                !
 ! D11   D(3,1,7,9)              0.0            estimate D2E/DX2                !
 ! D12   D(3,1,7,10)          -119.9613         estimate D2E/DX2                !
 ! D13   D(5,4,7,9)           -179.6663         estimate D2E/DX2                !
 ! D14   D(5,4,7,10)            58.5345         estimate D2E/DX2                !
 ! D15   D(6,4,7,9)            -57.8671         estimate D2E/DX2                !
 ! D16   D(6,4,7,10)          -179.6663         estimate D2E/DX2                !
 ! D17   D(1,4,8,11)           120.1894         estimate D2E/DX2                !
 ! D18   D(1,4,8,12)          -119.8493         estimate D2E/DX2                !
 ! D19   D(1,7,8,5)             13.0332         estimate D2E/DX2                !
 ! D20   D(1,7,8,6)            -13.0765         estimate D2E/DX2                !
 ! D21   D(1,7,8,11)           -90.0            estimate D2E/DX2                !
 ! D22   D(1,7,8,12)            90.0            estimate D2E/DX2                !
 ! D23   D(9,7,8,5)            103.0332         estimate D2E/DX2                !
 ! D24   D(9,7,8,6)             76.9235         estimate D2E/DX2                !
 ! D25   D(9,7,8,11)             0.0            estimate D2E/DX2                !
 ! D26   D(9,7,8,12)           180.0            estimate D2E/DX2                !
 ! D27   D(10,7,8,5)           -76.9668         estimate D2E/DX2                !
 ! D28   D(10,7,8,6)          -103.0765         estimate D2E/DX2                !
 ! D29   D(10,7,8,11)          180.0            estimate D2E/DX2                !
 ! D30   D(10,7,8,12)            0.0            estimate D2E/DX2                !
 --------------------------------------------------------------------------------
 Trust Radius=3.00D-01 FncErr=1.00D-07 GrdErr=1.00D-06
 Number of steps in this run=     86 maximum allowed number of steps=    100.
 GradGradGradGradGradGradGradGradGradGradGradGradGradGradGradGradGradGrad

                          Input orientation:                          
 ---------------------------------------------------------------------
 Center     Atomic      Atomic             Coordinates (Angstroms)
 Number     Number       Type             X           Y           Z
 ---------------------------------------------------------------------
      1          6           0        0.000000    0.000000    0.000000
      2          1           0        0.000000    0.000000    1.070000
      3          1           0        0.927705    0.000000   -0.533164
      4          6           0       -1.170944    0.000000   -0.682243
      5          1           0       -2.101801    0.000000   -0.154601
      6          1           0       -1.164587    0.000000   -1.752225
      7          6           0       -0.189560    3.993979   -0.110446
      8          6           0       -1.360505    3.993979   -0.792690
      9          9           0        0.980908    3.993979   -0.783129
     10          9           0       -0.189560    3.993979    1.239554
     11          9           0       -1.360505    3.993979   -2.142690
     12          9           0       -2.530974    3.993979   -0.120006
 ---------------------------------------------------------------------
                    Distance matrix (angstroms):
                    1          2          3          4          5
     1  C    0.000000
     2  H    1.070000   0.000000
     3  H    1.070000   1.852234   0.000000
     4  C    1.355200   2.107479   2.103938   0.000000
     5  H    2.107479   2.432532   3.053066   1.070000   0.000000
     6  H    2.103938   3.053066   2.421527   1.070000   1.852234
     7  C    4.000000   4.169083   4.168794   4.152341   4.428372
     8  C    4.293157   4.612207   4.610328   4.000000   4.112000
     9  F    4.186567   4.510891   4.002147   4.537898   5.084291
    10  F    4.186203   4.002068   4.510286   4.539635   4.642435
    11  F    4.732226   5.303227   4.876305   4.256842   4.522597
    12  F    4.729915   4.875840   5.299531   4.256484   4.017120
                    6          7          8          9         10
     6  H    0.000000
     7  C    4.426961   0.000000
     8  C    4.112294   1.355200   0.000000
     9  F    4.636180   1.350000   2.341433   0.000000
    10  F    5.084612   1.350000   2.345448   2.336931   0.000000
    11  F    4.017800   2.345448   1.350000   2.707512   3.579201
    12  F    4.525817   2.341433   1.350000   3.573940   2.707512
                   11         12
    11  F    0.000000
    12  F    2.336931   0.000000
 Stoichiometry    C4H4F4
 Framework group  C1[X(C4H4F4)]
 Deg. of freedom    30
 Full point group                 C1      NOp   1
 Largest Abelian subgroup         C1      NOp   1
 Largest concise Abelian subgroup C1      NOp   1
                         Standard orientation:                         
 ---------------------------------------------------------------------
 Center     Atomic      Atomic             Coordinates (Angstroms)
 Number     Number       Type             X           Y           Z
 ---------------------------------------------------------------------
      1          6           0       -3.062519    0.550552    0.000481
      2          1           0       -3.114158    1.088234   -0.923170
      3          1           0       -3.113822    1.079738    0.929045
      4          6           0       -2.932361   -0.798381   -0.001704
      5          1           0       -2.880530   -1.333050   -0.927093
      6          1           0       -2.881250   -1.330592    0.925140
      7          6           0        0.934068    0.715772    0.001164
      8          6           0        1.064226   -0.633162   -0.001022
      9          9           0        0.869340    1.383436    1.172716
     10          9           0        0.868915    1.394156   -1.164190
     11          9           0        1.129379   -1.311546    1.164332
     12          9           0        1.128953   -1.300826   -1.172574
 ---------------------------------------------------------------------
 Rotational constants (GHZ):      1.8478192      1.1023159      0.9764892
 Standard basis: Aug-CC-pVTZ (5D, 7F)
 There are   540 symmetry adapted cartesian basis functions of A   symmetry.
 There are   460 symmetry adapted basis functions of A   symmetry.
   460 basis functions,   684 primitive gaussians,   540 cartesian basis functions
    32 alpha electrons       32 beta electrons
       nuclear repulsion energy       365.9518417123 Hartrees.
 NAtoms=   12 NActive=   12 NUniq=   12 SFac= 1.00D+00 NAtFMM=   60 NAOKFM=F Big=F
 Integral buffers will be    131072 words long.
 Raffenetti 2 integral format.
 Two-electron integral symmetry is turned on.
 Nuclear repulsion after empirical dispersion term =      365.9484956170 Hartrees.
 One-electron integrals computed using PRISM.
 NBasis=   460 RedAO= T EigKep=  4.23D-06  NBF=   460
 NBsUse=   460 1.00D-06 EigRej= -1.00D+00 NBFU=   460
 ExpMin= 2.53D-02 ExpMax= 1.95D+04 ExpMxC= 6.65D+02 IAcc=3 IRadAn=         5 AccDes= 0.00D+00
 Harris functional with IExCor= 4639 and IRadAn=       5 diagonalized for initial guess.
 HarFok:  IExCor= 4639 AccDes= 0.00D+00 IRadAn=         5 IDoV= 1 UseB2=F ITyADJ=14
 ICtDFT=  3500011 ScaDFX=  1.000000  1.000000  1.000000  1.000000
 FoFCou: FMM=F IPFlag=           0 FMFlag=      100000 FMFlg1=           0
         NFxFlg=           0 DoJE=T BraDBF=F KetDBF=T FulRan=T
         wScrn=  0.000000 ICntrl=     500 IOpCl=  0 I1Cent=   200000004 NGrid=           0
         NMat0=    1 NMatS0=      1 NMatT0=    0 NMatD0=    1 NMtDS0=    0 NMtDT0=    0
 Petite list used in FoFCou.
 Requested convergence on RMS density matrix=1.00D-08 within 128 cycles.
 Requested convergence on MAX density matrix=1.00D-06.
 Requested convergence on             energy=1.00D-06.
 No special actions if energy rises.
 SCF Done:  E(RwB97XD) =  -554.150110492     A.U. after   11 cycles
            NFock= 11  Conv=0.90D-08     -V/T= 2.0060

 **********************************************************************

            Population analysis using the SCF density.

 **********************************************************************

 Orbital symmetries:
       Occupied  (A) (A) (A) (A) (A) (A) (A) (A) (A) (A) (A) (A)
                 (A) (A) (A) (A) (A) (A) (A) (A) (A) (A) (A) (A)
                 (A) (A) (A) (A) (A) (A) (A) (A)
       Virtual   (A) (A) (A) (A) (A) (A) (A) (A) (A) (A) (A) (A)
                 (A) (A) (A) (A) (A) (A) (A) (A) (A) (A) (A) (A)
                 (A) (A) (A) (A) (A) (A) (A) (A) (A) (A) (A) (A)
                 (A) (A) (A) (A) (A) (A) (A) (A) (A) (A) (A) (A)
                 (A) (A) (A) (A) (A) (A) (A) (A) (A) (A) (A) (A)
                 (A) (A) (A) (A) (A) (A) (A) (A) (A) (A) (A) (A)
                 (A) (A) (A) (A) (A) (A) (A) (A) (A) (A) (A) (A)
                 (A) (A) (A) (A) (A) (A) (A) (A) (A) (A) (A) (A)
                 (A) (A) (A) (A) (A) (A) (A) (A) (A) (A) (A) (A)
                 (A) (A) (A) (A) (A) (A) (A) (A) (A) (A) (A) (A)
                 (A) (A) (A) (A) (A) (A) (A) (A) (A) (A) (A) (A)
                 (A) (A) (A) (A) (A) (A) (A) (A) (A) (A) (A) (A)
                 (A) (A) (A) (A) (A) (A) (A) (A) (A) (A) (A) (A)
                 (A) (A) (A) (A) (A) (A) (A) (A) (A) (A) (A) (A)
                 (A) (A) (A) (A) (A) (A) (A) (A) (A) (A) (A) (A)
                 (A) (A) (A) (A) (A) (A) (A) (A) (A) (A) (A) (A)
                 (A) (A) (A) (A) (A) (A) (A) (A) (A) (A) (A) (A)
                 (A) (A) (A) (A) (A) (A) (A) (A) (A) (A) (A) (A)
                 (A) (A) (A) (A) (A) (A) (A) (A) (A) (A) (A) (A)
                 (A) (A) (A) (A) (A) (A) (A) (A) (A) (A) (A) (A)
                 (A) (A) (A) (A) (A) (A) (A) (A) (A) (A) (A) (A)
                 (A) (A) (A) (A) (A) (A) (A) (A) (A) (A) (A) (A)
                 (A) (A) (A) (A) (A) (A) (A) (A) (A) (A) (A) (A)
                 (A) (A) (A) (A) (A) (A) (A) (A) (A) (A) (A) (A)
                 (A) (A) (A) (A) (A) (A) (A) (A) (A) (A) (A) (A)
                 (A) (A) (A) (A) (A) (A) (A) (A) (A) (A) (A) (A)
                 (A) (A) (A) (A) (A) (A) (A) (A) (A) (A) (A) (A)
                 (A) (A) (A) (A) (A) (A) (A) (A) (A) (A) (A) (A)
                 (A) (A) (A) (A) (A) (A) (A) (A) (A) (A) (A) (A)
                 (A) (A) (A) (A) (A) (A) (A) (A) (A) (A) (A) (A)
                 (A) (A) (A) (A) (A) (A) (A) (A) (A) (A) (A) (A)
                 (A) (A) (A) (A) (A) (A) (A) (A) (A) (A) (A) (A)
                 (A) (A) (A) (A) (A) (A) (A) (A) (A) (A) (A) (A)
                 (A) (A) (A) (A) (A) (A) (A) (A) (A) (A) (A) (A)
                 (A) (A) (A) (A) (A) (A) (A) (A) (A) (A) (A) (A)
                 (A) (A) (A) (A) (A) (A) (A) (A)
 The electronic state is 1-A.
 Alpha  occ. eigenvalues --  -24.87705 -24.87687 -24.87664 -24.87646 -10.48785
 Alpha  occ. eigenvalues --  -10.48705 -10.29133 -10.29051  -1.40644  -1.39095
 Alpha  occ. eigenvalues --   -1.36276  -1.35144  -0.90625  -0.86365  -0.76199
 Alpha  occ. eigenvalues --   -0.70936  -0.70696  -0.68181  -0.66434  -0.64856
 Alpha  occ. eigenvalues --   -0.60607  -0.57793  -0.56941  -0.56632  -0.56249
 Alpha  occ. eigenvalues --   -0.55830  -0.53895  -0.53831  -0.50335  -0.45248
 Alpha  occ. eigenvalues --   -0.36123  -0.34708
 Alpha virt. eigenvalues --    0.03541   0.04323   0.04556   0.05148   0.05757
 Alpha virt. eigenvalues --    0.06330   0.07147   0.08092   0.08782   0.09858
 Alpha virt. eigenvalues --    0.10412   0.11575   0.11767   0.11880   0.12265
 Alpha virt. eigenvalues --    0.13046   0.13714   0.13777   0.14154   0.15681
 Alpha virt. eigenvalues --    0.15723   0.17078   0.18081   0.18331   0.18945
 Alpha virt. eigenvalues --    0.21786   0.22058   0.22482   0.23723   0.24093
 Alpha virt. eigenvalues --    0.24225   0.24904   0.26350   0.26859   0.28114
 Alpha virt. eigenvalues --    0.28306   0.29026   0.29836   0.29947   0.30712
 Alpha virt. eigenvalues --    0.31858   0.33335   0.33914   0.34156   0.34490
 Alpha virt. eigenvalues --    0.34749   0.35451   0.35626   0.36368   0.36649
 Alpha virt. eigenvalues --    0.37291   0.37937   0.38082   0.39530   0.40105
 Alpha virt. eigenvalues --    0.40428   0.40456   0.41716   0.42025   0.42187
 Alpha virt. eigenvalues --    0.43598   0.44581   0.45662   0.46214   0.46912
 Alpha virt. eigenvalues --    0.48129   0.48386   0.49626   0.50538   0.50857
 Alpha virt. eigenvalues --    0.52077   0.52149   0.53758   0.54213   0.55500
 Alpha virt. eigenvalues --    0.57049   0.57858   0.58058   0.60512   0.63064
 Alpha virt. eigenvalues --    0.63858   0.65042   0.65671   0.68566   0.68974
 Alpha virt. eigenvalues --    0.69393   0.70182   0.71680   0.74726   0.75479
 Alpha virt. eigenvalues --    0.76505   0.77130   0.77993   0.78443   0.80165
 Alpha virt. eigenvalues --    0.81793   0.82419   0.83873   0.84515   0.86733
 Alpha virt. eigenvalues --    0.87234   0.87541   0.88468   0.88888   0.90073
 Alpha virt. eigenvalues --    0.90582   0.91520   0.92282   0.92940   0.93586
 Alpha virt. eigenvalues --    0.93749   0.94646   0.96141   0.96759   0.96905
 Alpha virt. eigenvalues --    0.97401   0.97823   0.98461   1.01336   1.01468
 Alpha virt. eigenvalues --    1.02826   1.03030   1.03803   1.04793   1.05359
 Alpha virt. eigenvalues --    1.06260   1.06471   1.06651   1.07743   1.09266
 Alpha virt. eigenvalues --    1.10256   1.11467   1.11784   1.13045   1.13626
 Alpha virt. eigenvalues --    1.14504   1.16477   1.16991   1.17462   1.18447
 Alpha virt. eigenvalues --    1.19146   1.22173   1.22339   1.22727   1.24143
 Alpha virt. eigenvalues --    1.24694   1.25186   1.25658   1.26779   1.29592
 Alpha virt. eigenvalues --    1.29785   1.31348   1.31883   1.32453   1.36359
 Alpha virt. eigenvalues --    1.37370   1.39512   1.40673   1.40887   1.44475
 Alpha virt. eigenvalues --    1.46225   1.47421   1.48678   1.50097   1.50746
 Alpha virt. eigenvalues --    1.51765   1.51833   1.53173   1.54345   1.54428
 Alpha virt. eigenvalues --    1.57215   1.57709   1.58892   1.59214   1.60760
 Alpha virt. eigenvalues --    1.61524   1.63243   1.64569   1.65473   1.66622
 Alpha virt. eigenvalues --    1.68062   1.68170   1.70629   1.71277   1.73326
 Alpha virt. eigenvalues --    1.74048   1.75498   1.75937   1.80880   1.83162
 Alpha virt. eigenvalues --    1.83681   1.84140   1.84535   1.90857   1.94313
 Alpha virt. eigenvalues --    1.95661   1.96988   1.98132   1.98322   1.99534
 Alpha virt. eigenvalues --    2.03588   2.04322   2.09105   2.14979   2.18670
 Alpha virt. eigenvalues --    2.20613   2.23609   2.26482   2.30476   2.30904
 Alpha virt. eigenvalues --    2.33254   2.37438   2.41283   2.47838   2.48091
 Alpha virt. eigenvalues --    2.48482   2.52533   2.60495   2.60904   2.62170
 Alpha virt. eigenvalues --    2.63328   2.64142   2.66100   2.67334   2.68748
 Alpha virt. eigenvalues --    2.69242   2.71074   2.72031   2.73101   2.78632
 Alpha virt. eigenvalues --    2.79275   2.80267   2.80706   2.80908   2.82332
 Alpha virt. eigenvalues --    2.83210   2.85659   2.86619   2.87730   2.90473
 Alpha virt. eigenvalues --    2.90808   2.92042   2.93803   2.95794   2.98638
 Alpha virt. eigenvalues --    2.99570   3.01311   3.01957   3.04411   3.05244
 Alpha virt. eigenvalues --    3.07213   3.07831   3.08044   3.08477   3.09026
 Alpha virt. eigenvalues --    3.17280   3.19370   3.20226   3.20319   3.21202
 Alpha virt. eigenvalues --    3.21751   3.22487   3.22899   3.23140   3.25666
 Alpha virt. eigenvalues --    3.25965   3.26640   3.27052   3.28181   3.33235
 Alpha virt. eigenvalues --    3.35608   3.36168   3.37430   3.37646   3.40202
 Alpha virt. eigenvalues --    3.43589   3.45826   3.48049   3.48611   3.50072
 Alpha virt. eigenvalues --    3.53521   3.53633   3.53989   3.54186   3.56408
 Alpha virt. eigenvalues --    3.56753   3.60781   3.61130   3.62425   3.64370
 Alpha virt. eigenvalues --    3.64968   3.67525   3.70987   3.72423   3.74140
 Alpha virt. eigenvalues --    3.74719   3.74919   3.79887   3.80760   3.83074
 Alpha virt. eigenvalues --    3.83337   3.85291   3.87966   3.88642   3.90277
 Alpha virt. eigenvalues --    3.92670   3.92963   3.97280   3.99367   4.09834
 Alpha virt. eigenvalues --    4.10326   4.11031   4.13735   4.14212   4.19007
 Alpha virt. eigenvalues --    4.21992   4.24699   4.28721   4.32746   4.33492
 Alpha virt. eigenvalues --    4.34054   4.35295   4.36710   4.43671   4.48235
 Alpha virt. eigenvalues --    4.50943   4.51078   4.54231   4.62750   4.63499
 Alpha virt. eigenvalues --    4.63962   4.64339   4.65125   4.65646   4.71710
 Alpha virt. eigenvalues --    4.74768   4.75181   4.83530   4.84521   4.92017
 Alpha virt. eigenvalues --    4.94081   4.95245   4.99183   5.02781   5.03090
 Alpha virt. eigenvalues --    5.04675   5.05679   5.07950   5.11744   5.13564
 Alpha virt. eigenvalues --    5.22970   5.23448   5.30327   5.31142   5.32335
 Alpha virt. eigenvalues --    5.35044   5.37048   5.38044   5.38846   5.62008
 Alpha virt. eigenvalues --    5.77687   5.81960   6.07004   6.13411   6.26719
 Alpha virt. eigenvalues --    6.28037   6.34865   6.44524   6.45999   6.70936
 Alpha virt. eigenvalues --    6.78720   6.90919   8.37459   8.38474   8.39227
 Alpha virt. eigenvalues --    8.39309   8.43067   8.45211   8.45642   8.47810
 Alpha virt. eigenvalues --    8.55347   8.61757   8.65540   8.67496   8.67876
 Alpha virt. eigenvalues --    8.75780   8.76617   8.77001   8.77859   8.78339
 Alpha virt. eigenvalues --    8.78814   8.79564   8.79968   8.80057   8.83420
 Alpha virt. eigenvalues --    8.83527   8.84150   8.84311   8.87107   8.91780
 Alpha virt. eigenvalues --    8.92385   8.94092   8.98897   9.01050   9.01542
 Alpha virt. eigenvalues --    9.01622   9.01940   9.04856   9.06359   9.11255
 Alpha virt. eigenvalues --    9.11668   9.12201   9.27212   9.30245   9.30772
 Alpha virt. eigenvalues --    9.30965   9.37880   9.51263   9.53224   9.54079
 Alpha virt. eigenvalues --   11.73656  13.59647  14.45425  15.42020  16.54628
 Alpha virt. eigenvalues --   16.57345  16.73780  16.87818
          Condensed to atoms (all electrons):
               1          2          3          4          5          6
     1  C    5.808443   0.351452   0.355136   0.303307  -0.052627  -0.055340
     2  H    0.351452   0.419371  -0.064814  -0.055534  -0.033980   0.027258
     3  H    0.355136  -0.064814   0.421323  -0.057972   0.027168  -0.034953
     4  C    0.303307  -0.055534  -0.057972   5.842389   0.341569   0.344631
     5  H   -0.052627  -0.033980   0.027168   0.341569   0.426606  -0.068214
     6  H   -0.055340   0.027258  -0.034953   0.344631  -0.068214   0.429001
     7  C   -0.011728   0.001562   0.001602   0.006047  -0.000232  -0.000235
     8  C    0.011306   0.000003  -0.000028  -0.019806   0.002074   0.002060
     9  F    0.004930   0.006201  -0.009532   0.000197  -0.001743   0.002693
    10  F    0.005038  -0.009485   0.006214   0.000079   0.002666  -0.001759
    11  F   -0.001024  -0.001263   0.001909   0.005890   0.005762  -0.009198
    12  F   -0.001070   0.001906  -0.001279   0.005910  -0.009200   0.005798
               7          8          9         10         11         12
     1  C   -0.011728   0.011306   0.004930   0.005038  -0.001024  -0.001070
     2  H    0.001562   0.000003   0.006201  -0.009485  -0.001263   0.001906
     3  H    0.001602  -0.000028  -0.009532   0.006214   0.001909  -0.001279
     4  C    0.006047  -0.019806   0.000197   0.000079   0.005890   0.005910
     5  H   -0.000232   0.002074  -0.001743   0.002666   0.005762  -0.009200
     6  H   -0.000235   0.002060   0.002693  -0.001759  -0.009198   0.005798
     7  C    5.035866   0.260031   0.054253   0.054178  -0.012197  -0.012007
     8  C    0.260031   5.033887  -0.010752  -0.010885   0.056861   0.056691
     9  F    0.054253  -0.010752   9.366585  -0.110908  -0.004605   0.011912
    10  F    0.054178  -0.010885  -0.110908   9.366770   0.011728  -0.004586
    11  F   -0.012197   0.056861  -0.004605   0.011728   9.365374  -0.109560
    12  F   -0.012007   0.056691   0.011912  -0.004586  -0.109560   9.365367
 Mulliken charges:
               1
     1  C   -0.717822
     2  H    0.357321
     3  H    0.355227
     4  C   -0.716708
     5  H    0.360151
     6  H    0.358257
     7  C    0.622859
     8  C    0.618557
     9  F   -0.309232
    10  F   -0.309050
    11  F   -0.309678
    12  F   -0.309883
 Sum of Mulliken charges =   0.00000
 Mulliken charges with hydrogens summed into heavy atoms:
               1
     1  C   -0.005274
     4  C    0.001701
     7  C    0.622859
     8  C    0.618557
     9  F   -0.309232
    10  F   -0.309050
    11  F   -0.309678
    12  F   -0.309883
 Electronic spatial extent (au):  <R**2>=           1268.9200
 Charge=              0.0000 electrons
 Dipole moment (field-independent basis, Debye):
    X=             -0.1464    Y=              0.0029    Z=              0.0001  Tot=              0.1464
 Quadrupole moment (field-independent basis, Debye-Ang):
   XX=            -44.9102   YY=            -44.1735   ZZ=            -44.7641
   XY=             -0.0923   XZ=              0.0005   YZ=             -0.0087
 Traceless Quadrupole moment (field-independent basis, Debye-Ang):
   XX=             -0.2943   YY=              0.4425   ZZ=             -0.1482
   XY=             -0.0923   XZ=              0.0005   YZ=             -0.0087
 Octapole moment (field-independent basis, Debye-Ang**2):
  XXX=             50.2346  YYY=              0.6267  ZZZ=              0.0124  XYY=              4.9654
  XXY=              3.0747  XXZ=              0.0100  XZZ=              3.5896  YZZ=              0.1585
  YYZ=             -0.0240  XYZ=             -0.0052
 Hexadecapole moment (field-independent basis, Debye-Ang**3):
 XXXX=          -1059.7001 YYYY=           -336.6849 ZZZZ=           -206.0108 XXXY=            -15.2239
 XXXZ=             -0.0286 YYYX=             -3.2414 YYYZ=             -0.0353 ZZZX=             -0.0369
 ZZZY=             -0.0773 XXYY=           -205.2380 XXZZ=           -184.1036 YYZZ=            -90.9710
 XXYZ=             -0.0355 YYXZ=              0.0695 ZZXY=             -1.1845
 N-N= 3.659484956170D+02 E-N=-2.042626959098D+03  KE= 5.508611839954D+02
 Calling FoFJK, ICntrl=      2127 FMM=F ISym2X=0 I1Cent= 0 IOpClX= 0 NMat=1 NMatS=1 NMatT=0.
 ***** Axes restored to original set *****
 -------------------------------------------------------------------
 Center     Atomic                   Forces (Hartrees/Bohr)
 Number     Number              X              Y              Z
 -------------------------------------------------------------------
      1        6          -0.040370627    0.000621108   -0.023626380
      2        1           0.002979444   -0.000072826    0.008060731
      3        1           0.008678872   -0.000080949   -0.001170595
      4        6           0.040437634    0.000547680    0.023477882
      5        1          -0.008497160    0.000021955    0.001393020
      6        1          -0.003252956    0.000024099   -0.008148588
      7        6          -0.025985579   -0.000010692   -0.016015732
      8        6           0.026247720    0.000094296    0.016167724
      9        9          -0.024601248   -0.000307306    0.032494929
     10        9           0.015436358   -0.000304178   -0.038104401
     11        9          -0.015463910   -0.000268501    0.037878411
     12        9           0.024391454   -0.000264686   -0.032407000
 -------------------------------------------------------------------
 Cartesian Forces:  Max     0.040437634 RMS     0.019170026

 GradGradGradGradGradGradGradGradGradGradGradGradGradGradGradGradGradGrad
 Berny optimization.
 FormGI is forming the generalized inverse of G from B-inverse, IUseBI=4.
 Internal  Forces:  Max     0.039477820 RMS     0.011429887
 Search for a local minimum.
 Step number   1 out of a maximum of   86
 All quantities printed in internal units (Hartrees-Bohrs-Radians)
 Mixed Optimization -- RFO/linear search
 Second derivative matrix not updated -- first step.
 ITU=  0
     Eigenvalues ---    0.00562   0.00768   0.02973   0.02998   0.04068
     Eigenvalues ---    0.04918   0.05347   0.05919   0.06779   0.06928
     Eigenvalues ---    0.08170   0.08490   0.08989   0.10090   0.11201
     Eigenvalues ---    0.12859   0.14277   0.15786   0.18808   0.19401
     Eigenvalues ---    0.34593   0.35927   0.37230   0.37230   0.52048
     Eigenvalues ---    0.53247   0.55021   0.55021   0.55021   0.55021
 RFO step:  Lambda=-2.30453208D-02 EMin= 5.61849243D-03
 Linear search not attempted -- first point.
 Iteration  1 RMS(Cart)=  0.02819280 RMS(Int)=  0.00085642
 Iteration  2 RMS(Cart)=  0.00091024 RMS(Int)=  0.00009619
 Iteration  3 RMS(Cart)=  0.00000063 RMS(Int)=  0.00009619
 Variable       Old X    -DE/DX   Delta X   Delta X   Delta X     New X
                                 (Linear)    (Quad)   (Total)
    R1        2.02201   0.00807   0.00000   0.02040   0.02040   2.04241
    R2        2.02201   0.00811   0.00000   0.02052   0.02052   2.04252
    R3        2.56096  -0.03286   0.00000  -0.05945  -0.05944   2.50151
    R4        7.55890   0.00097   0.00000  -0.00977  -0.00980   7.54911
    R5        2.02201   0.00713   0.00000   0.02044   0.02049   2.04250
    R6        2.02201   0.00712   0.00000   0.02054   0.02059   2.04260
    R7        7.84679  -0.00558   0.00000  -0.02557  -0.02543   7.82136
    R8        7.55890  -0.00051   0.00000  -0.00516  -0.00529   7.55361
    R9        7.77055   0.00193   0.00000   0.00135   0.00134   7.77189
   R10        7.77111   0.00203   0.00000   0.00189   0.00187   7.77298
   R11        2.56096  -0.03948   0.00000  -0.07277  -0.07275   2.48821
   R12        2.55113  -0.03753   0.00000  -0.06546  -0.06546   2.48567
   R13        2.55113  -0.03811   0.00000  -0.06647  -0.06647   2.48466
   R14        2.55113  -0.03787   0.00000  -0.06607  -0.06607   2.48506
   R15        2.55113  -0.03729   0.00000  -0.06505  -0.06505   2.48608
    A1        2.09241  -0.00211   0.00000  -0.02037  -0.02037   2.07204
    A2        2.09836   0.00102   0.00000   0.00890   0.00890   2.10726
    A3        1.59841  -0.00027   0.00000   0.00082   0.00081   1.59923
    A4        2.09241   0.00109   0.00000   0.01147   0.01147   2.10388
    A5        1.59813  -0.00034   0.00000   0.00065   0.00066   1.59879
    A6        2.09836   0.00096   0.00000   0.00861   0.00859   2.10695
    A7        2.09241   0.00116   0.00000   0.01110   0.01108   2.10350
    A8        1.62567  -0.00188   0.00000  -0.00177  -0.00176   1.62391
    A9        2.09241  -0.00213   0.00000  -0.01971  -0.01968   2.07274
   A10        1.70894  -0.00173   0.00000  -0.00061  -0.00068   1.70826
   A11        1.70752  -0.00176   0.00000  -0.00041  -0.00048   1.70704
   A12        1.62567  -0.00145   0.00000   0.00212   0.00214   1.62781
   A13        1.54346   0.00065   0.00000  -0.00438  -0.00435   1.53911
   A14        1.54318   0.00054   0.00000  -0.00448  -0.00444   1.53874
   A15        1.70752   0.00025   0.00000   0.00488   0.00448   1.71200
   A16        1.70894   0.00010   0.00000   0.00437   0.00399   1.71293
   A17        2.09241   0.00601   0.00000   0.04507   0.04507   2.13748
   A18        2.09836   0.00535   0.00000   0.04105   0.04104   2.13940
   A19        2.09241  -0.01136   0.00000  -0.08612  -0.08611   2.00630
   A20        1.59841  -0.00005   0.00000   0.00272   0.00274   1.60115
   A21        1.59813   0.00004   0.00000   0.00314   0.00314   1.60127
   A22        0.45433   0.00123   0.00000   0.00195   0.00192   0.45625
   A23        1.64852   0.00298   0.00000   0.00330   0.00330   1.65182
   A24        1.72660  -0.00209   0.00000  -0.00864  -0.00893   1.71767
   A25        1.33499  -0.00085   0.00000   0.00039   0.00059   1.33559
   A26        1.64717   0.00289   0.00000   0.00322   0.00321   1.65038
   A27        1.33529  -0.00092   0.00000   0.00010   0.00027   1.33556
   A28        1.72903  -0.00210   0.00000  -0.00903  -0.00937   1.71966
   A29        2.09836   0.00948   0.00000   0.04490   0.04488   2.14324
   A30        2.09241   0.01038   0.00000   0.04924   0.04922   2.14163
   A31        2.09241  -0.01987   0.00000  -0.09414  -0.09410   1.99831
    D1        0.00000   0.00072   0.00000  -0.00040  -0.00042  -0.00042
    D2        3.14159  -0.00038   0.00000   0.00077   0.00080  -3.14080
    D3        1.57080   0.00013   0.00000  -0.00004  -0.00003   1.57076
    D4        3.14159   0.00037   0.00000  -0.00095  -0.00097   3.14062
    D5        0.00000  -0.00073   0.00000   0.00022   0.00025   0.00025
    D6       -1.57080  -0.00022   0.00000  -0.00058  -0.00058  -1.57138
    D7       -2.09770  -0.00075   0.00000  -0.00746  -0.00745  -2.10515
    D8        2.09372  -0.00680   0.00000  -0.05238  -0.05238   2.04134
    D9        0.00000   0.00464   0.00000   0.03345   0.03344   0.03344
   D10        2.09176   0.00139   0.00000   0.01288   0.01288   2.10465
   D11        0.00000  -0.00465   0.00000  -0.03205  -0.03205  -0.03205
   D12       -2.09372   0.00678   0.00000   0.05378   0.05377  -2.03995
   D13       -3.13577  -0.00446   0.00000  -0.03507  -0.03513   3.11228
   D14        1.02162   0.00727   0.00000   0.05217   0.05222   1.07384
   D15       -1.00997  -0.00753   0.00000  -0.05581  -0.05586  -1.06583
   D16       -3.13577   0.00419   0.00000   0.03143   0.03149  -3.10428
   D17        2.09770   0.00978   0.00000   0.04626   0.04625   2.14395
   D18       -2.09176  -0.01011   0.00000  -0.04774  -0.04772  -2.13948
   D19        0.22747   0.00055   0.00000   0.00053   0.00052   0.22799
   D20       -0.22823  -0.00079   0.00000  -0.00155  -0.00153  -0.22976
   D21       -1.57080  -0.00086   0.00000  -0.00098  -0.00101  -1.57181
   D22        1.57080   0.00071   0.00000   0.00026   0.00030   1.57109
   D23        1.79827   0.00079   0.00000  -0.00084  -0.00077   1.79749
   D24        1.34257  -0.00054   0.00000  -0.00292  -0.00282   1.33975
   D25        0.00000  -0.00061   0.00000  -0.00235  -0.00230  -0.00230
   D26        3.14159   0.00096   0.00000  -0.00111  -0.00099   3.14060
   D27       -1.34332   0.00047   0.00000   0.00224   0.00215  -1.34118
   D28       -1.79903  -0.00087   0.00000   0.00016   0.00010  -1.79892
   D29        3.14159  -0.00094   0.00000   0.00073   0.00062  -3.14097
   D30        0.00000   0.00063   0.00000   0.00197   0.00193   0.00193
         Item               Value     Threshold  Converged?
 Maximum Force            0.039478     0.000450     NO 
 RMS     Force            0.011430     0.000300     NO 
 Maximum Displacement     0.116049     0.001800     NO 
 RMS     Displacement     0.028309     0.001200     NO 
 Predicted change in Energy=-1.238878D-02
 GradGradGradGradGradGradGradGradGradGradGradGradGradGradGradGradGradGrad

                          Input orientation:                          
 ---------------------------------------------------------------------
 Center     Atomic      Atomic             Coordinates (Angstroms)
 Number     Number       Type             X           Y           Z
 ---------------------------------------------------------------------
      1          6           0       -0.013145    0.002736   -0.008081
      2          1           0       -0.003576    0.002847    1.072672
      3          1           0        0.930114    0.002904   -0.535826
      4          6           0       -1.156878    0.001791   -0.674543
      5          1           0       -2.101738    0.000719   -0.149699
      6          1           0       -1.162381    0.000943   -1.755424
      7          6           0       -0.204782    3.991372   -0.120350
      8          6           0       -1.343375    3.993200   -0.781648
      9          9           0        0.963190    3.988725   -0.725333
     10          9           0       -0.149030    3.988816    1.193288
     11          9           0       -1.404182    3.995074   -2.095278
     12          9           0       -2.514041    3.994748   -0.181417
 ---------------------------------------------------------------------
                    Distance matrix (angstroms):
                    1          2          3          4          5
     1  C    0.000000
     2  H    1.080796   0.000000
     3  H    1.080857   1.859850   0.000000
     4  C    1.323743   2.093529   2.091597   0.000000
     5  H    2.093389   2.428266   3.056341   1.080844   0.000000
     6  H    2.091400   3.056299   2.421975   1.080896   1.860308
     7  C    3.994815   4.167988   4.167551   4.138886   4.418667
     8  C    4.276881   4.599617   4.599091   3.997199   4.112709
     9  F    4.166028   4.478246   3.990461   4.515851   5.062542
    10  F    4.165404   3.990446   4.476816   4.516738   4.639138
    11  F    4.714884   5.285403   4.880394   4.245699   4.497414
    12  F    4.713882   4.879595   5.284186   4.246030   4.015379
                    6          7          8          9         10
     6  H    0.000000
     7  C    4.417464   0.000000
     8  C    4.113285   1.316704   0.000000
     9  F    4.634820   1.315359   2.307256   0.000000
    10  F    5.062107   1.314824   2.307997   2.217688   0.000000
    11  F    4.015850   2.310609   1.315039   2.735185   3.519959
    12  F    4.500551   2.310068   1.315575   3.519519   2.735529
                   11         12
    11  F    0.000000
    12  F    2.212386   0.000000
 Stoichiometry    C4H4F4
 Framework group  C1[X(C4H4F4)]
 Deg. of freedom    30
 Full point group                 C1      NOp   1
 Largest Abelian subgroup         C1      NOp   1
 Largest concise Abelian subgroup C1      NOp   1
                         Standard orientation:                         
 ---------------------------------------------------------------------
 Center     Atomic      Atomic             Coordinates (Angstroms)
 Number     Number       Type             X           Y           Z
 ---------------------------------------------------------------------
      1          6           0       -3.058811    0.527640   -0.001170
      2          1           0       -3.113033    1.076094   -0.930889
      3          1           0       -3.113086    1.075511    0.928961
      4          6           0       -2.929052   -0.789727    0.000631
      5          1           0       -2.875395   -1.340514   -0.927796
      6          1           0       -2.875905   -1.334820    0.932503
      7          6           0        0.932265    0.700444    0.000012
      8          6           0        1.064088   -0.609645   -0.000071
      9          9           0        0.859817    1.402788    1.109801
     10          9           0        0.859913    1.404780   -1.107886
     11          9           0        1.136193   -1.318394    1.105281
     12          9           0        1.135908   -1.316791   -1.107105
 ---------------------------------------------------------------------
 Rotational constants (GHZ):      1.9097195      1.1297723      0.9745777
 Standard basis: Aug-CC-pVTZ (5D, 7F)
 There are   540 symmetry adapted cartesian basis functions of A   symmetry.
 There are   460 symmetry adapted basis functions of A   symmetry.
   460 basis functions,   684 primitive gaussians,   540 cartesian basis functions
    32 alpha electrons       32 beta electrons
       nuclear repulsion energy       371.9692480564 Hartrees.
 NAtoms=   12 NActive=   12 NUniq=   12 SFac= 1.00D+00 NAtFMM=   60 NAOKFM=F Big=F
 Integral buffers will be    131072 words long.
 Raffenetti 2 integral format.
 Two-electron integral symmetry is turned on.
 Nuclear repulsion after empirical dispersion term =      371.9659232679 Hartrees.
 One-electron integrals computed using PRISM.
 NBasis=   460 RedAO= T EigKep=  4.12D-06  NBF=   460
 NBsUse=   460 1.00D-06 EigRej= -1.00D+00 NBFU=   460
 Initial guess from the checkpoint file:  "c2h4-c2f4-wb97xd-aug.chk"
 B after Tr=     0.000000    0.000000    0.000000
         Rot=    0.999998    0.001462    0.000032   -0.001520 Ang=   0.24 deg.
 ExpMin= 2.53D-02 ExpMax= 1.95D+04 ExpMxC= 6.65D+02 IAcc=3 IRadAn=         5 AccDes= 0.00D+00
 Harris functional with IExCor= 4639 and IRadAn=       5 diagonalized for initial guess.
 HarFok:  IExCor= 4639 AccDes= 0.00D+00 IRadAn=         5 IDoV= 1 UseB2=F ITyADJ=14
 ICtDFT=  3500011 ScaDFX=  1.000000  1.000000  1.000000  1.000000
 FoFCou: FMM=F IPFlag=           0 FMFlag=      100000 FMFlg1=           0
         NFxFlg=           0 DoJE=T BraDBF=F KetDBF=T FulRan=T
         wScrn=  0.000000 ICntrl=     500 IOpCl=  0 I1Cent=   200000004 NGrid=           0
         NMat0=    1 NMatS0=      1 NMatT0=    0 NMatD0=    1 NMtDS0=    0 NMtDT0=    0
 Petite list used in FoFCou.
 Requested convergence on RMS density matrix=1.00D-08 within 128 cycles.
 Requested convergence on MAX density matrix=1.00D-06.
 Requested convergence on             energy=1.00D-06.
 No special actions if energy rises.
 SCF Done:  E(RwB97XD) =  -554.163685162     A.U. after    9 cycles
            NFock=  9  Conv=0.95D-08     -V/T= 2.0051
 Calling FoFJK, ICntrl=      2127 FMM=F ISym2X=0 I1Cent= 0 IOpClX= 0 NMat=1 NMatS=1 NMatT=0.
 ***** Axes restored to original set *****
 -------------------------------------------------------------------
 Center     Atomic                   Forces (Hartrees/Bohr)
 Number     Number              X              Y              Z
 -------------------------------------------------------------------
      1        6          -0.004178624    0.000586969   -0.002532923
      2        1           0.002492710   -0.000044701    0.000848035
      3        1           0.002051295   -0.000037681    0.001910424
      4        6           0.004312146    0.000529363    0.002389432
      5        1          -0.001975964    0.000036247   -0.001799291
      6        1          -0.002730861    0.000035835   -0.000832354
      7        6          -0.000475206   -0.000293355   -0.000828666
      8        6          -0.000957790    0.000235539    0.000003964
      9        9          -0.001770428   -0.000214715    0.006631969
     10        9           0.004770344   -0.000226740   -0.004589012
     11        9          -0.003693450   -0.000310700    0.004383486
     12        9           0.002155829   -0.000296061   -0.005585063
 -------------------------------------------------------------------
 Cartesian Forces:  Max     0.006631969 RMS     0.002586164

 GradGradGradGradGradGradGradGradGradGradGradGradGradGradGradGradGradGrad
 Berny optimization.
 Using GEDIIS/GDIIS optimizer.
 FormGI is forming the generalized inverse of G from B-inverse, IUseBI=4.
 Internal  Forces:  Max     0.004840869 RMS     0.001632187
 Search for a local minimum.
 Step number   2 out of a maximum of   86
 All quantities printed in internal units (Hartrees-Bohrs-Radians)
 Mixed Optimization -- RFO/linear search
 Update second derivatives using D2CorX and points    1    2
 DE= -1.36D-02 DEPred=-1.24D-02 R= 1.10D+00
 TightC=F SS=  1.41D+00  RLast= 2.74D-01 DXNew= 5.0454D-01 8.2175D-01
 Trust test= 1.10D+00 RLast= 2.74D-01 DXMaxT set to 5.05D-01
 ITU=  1  0
 Use linear search instead of GDIIS.
     Eigenvalues ---    0.00562   0.00761   0.02991   0.03022   0.04060
     Eigenvalues ---    0.04910   0.05263   0.05904   0.06678   0.06820
     Eigenvalues ---    0.08093   0.08388   0.08756   0.09856   0.10942
     Eigenvalues ---    0.12634   0.14624   0.15744   0.18149   0.19419
     Eigenvalues ---    0.34605   0.35911   0.37207   0.37230   0.51837
     Eigenvalues ---    0.52845   0.55015   0.55021   0.55021   0.56838
 RFO step:  Lambda=-6.15821307D-04 EMin= 5.61934669D-03
 Quartic linear search produced a step of  0.14058.
 Iteration  1 RMS(Cart)=  0.01281778 RMS(Int)=  0.00008063
 Iteration  2 RMS(Cart)=  0.00007633 RMS(Int)=  0.00002140
 Iteration  3 RMS(Cart)=  0.00000000 RMS(Int)=  0.00002140
 Variable       Old X    -DE/DX   Delta X   Delta X   Delta X     New X
                                 (Linear)    (Quad)   (Total)
    R1        2.04241   0.00087   0.00287  -0.00027   0.00260   2.04501
    R2        2.04252   0.00086   0.00288  -0.00033   0.00256   2.04508
    R3        2.50151   0.00050  -0.00836   0.00878   0.00042   2.50194
    R4        7.54911  -0.00059  -0.00138  -0.03644  -0.03780   7.51130
    R5        2.04250   0.00094   0.00288  -0.00018   0.00272   2.04522
    R6        2.04260   0.00092   0.00289  -0.00023   0.00268   2.04528
    R7        7.82136  -0.00013  -0.00357  -0.02759  -0.03116   7.79020
    R8        7.55361  -0.00021  -0.00074  -0.02713  -0.02791   7.52570
    R9        7.77189  -0.00013   0.00019  -0.03018  -0.02999   7.74191
   R10        7.77298  -0.00011   0.00026  -0.03054  -0.03027   7.74271
   R11        2.48821   0.00281  -0.01023   0.01613   0.00590   2.49411
   R12        2.48567  -0.00462  -0.00920  -0.00066  -0.00986   2.47581
   R13        2.48466  -0.00438  -0.00934  -0.00002  -0.00937   2.47529
   R14        2.48506  -0.00421  -0.00929   0.00029  -0.00899   2.47607
   R15        2.48608  -0.00446  -0.00914  -0.00038  -0.00953   2.47655
    A1        2.07204  -0.00176  -0.00286  -0.01982  -0.02269   2.04936
    A2        2.10726   0.00084   0.00125   0.00909   0.01034   2.11760
    A3        1.59923   0.00003   0.00011   0.00015   0.00025   1.59948
    A4        2.10388   0.00091   0.00161   0.01073   0.01235   2.11623
    A5        1.59879   0.00002   0.00009   0.00000   0.00008   1.59886
    A6        2.10695   0.00099   0.00121   0.00889   0.01009   2.11704
    A7        2.10350   0.00111   0.00156   0.01067   0.01222   2.11571
    A8        1.62391   0.00018  -0.00025  -0.00101  -0.00124   1.62267
    A9        2.07274  -0.00210  -0.00277  -0.01956  -0.02231   2.05043
   A10        1.70826   0.00040  -0.00010   0.00226   0.00217   1.71043
   A11        1.70704   0.00042  -0.00007   0.00237   0.00232   1.70936
   A12        1.62781  -0.00002   0.00030   0.00166   0.00196   1.62977
   A13        1.53911  -0.00010  -0.00061  -0.00236  -0.00297   1.53614
   A14        1.53874  -0.00012  -0.00062  -0.00248  -0.00310   1.53563
   A15        1.71200   0.00043   0.00063   0.00157   0.00214   1.71414
   A16        1.71293   0.00040   0.00056   0.00151   0.00201   1.71495
   A17        2.13748   0.00185   0.00634   0.00994   0.01627   2.15376
   A18        2.13940   0.00172   0.00577   0.00943   0.01520   2.15459
   A19        2.00630  -0.00357  -0.01211  -0.01937  -0.03148   1.97482
   A20        1.60115   0.00017   0.00038   0.00014   0.00055   1.60170
   A21        1.60127   0.00020   0.00044   0.00029   0.00076   1.60203
   A22        0.45625  -0.00007   0.00027  -0.00092  -0.00069   0.45556
   A23        1.65182   0.00003   0.00046   0.00010   0.00057   1.65239
   A24        1.71767  -0.00058  -0.00126  -0.00317  -0.00449   1.71318
   A25        1.33559   0.00008   0.00008  -0.00075  -0.00061   1.33497
   A26        1.65038   0.00003   0.00045   0.00035   0.00081   1.65119
   A27        1.33556   0.00006   0.00004  -0.00093  -0.00084   1.33472
   A28        1.71966  -0.00060  -0.00132  -0.00333  -0.00473   1.71493
   A29        2.14324   0.00233   0.00631   0.00657   0.01287   2.15611
   A30        2.14163   0.00251   0.00692   0.00689   0.01380   2.15544
   A31        1.99831  -0.00484  -0.01323  -0.01345  -0.02668   1.97164
    D1       -0.00042  -0.00003  -0.00006   0.00313   0.00308   0.00266
    D2       -3.14080   0.00014   0.00011  -0.00185  -0.00175   3.14064
    D3        1.57076   0.00004   0.00000   0.00068   0.00069   1.57145
    D4        3.14062  -0.00013  -0.00014   0.00179   0.00166  -3.14091
    D5        0.00025   0.00003   0.00003  -0.00320  -0.00318  -0.00293
    D6       -1.57138  -0.00006  -0.00008  -0.00066  -0.00074  -1.57212
    D7       -2.10515  -0.00078  -0.00105  -0.00874  -0.00978  -2.11494
    D8        2.04134  -0.00263  -0.00736  -0.01858  -0.02594   2.01540
    D9        0.03344   0.00093   0.00470   0.00059   0.00529   0.03873
   D10        2.10465   0.00097   0.00181   0.01111   0.01292   2.11757
   D11       -0.03205  -0.00087  -0.00451   0.00127  -0.00323  -0.03528
   D12       -2.03995   0.00269   0.00756   0.02044   0.02799  -2.01195
   D13        3.11228  -0.00083  -0.00494  -0.00089  -0.00584   3.10644
   D14        1.07384   0.00267   0.00734   0.01848   0.02582   1.09965
   D15       -1.06583  -0.00281  -0.00785  -0.02007  -0.02792  -1.09375
   D16       -3.10428   0.00069   0.00443  -0.00070   0.00374  -3.10053
   D17        2.14395   0.00239   0.00650   0.00693   0.01343   2.15737
   D18       -2.13948  -0.00244  -0.00671  -0.00653  -0.01323  -2.15272
   D19        0.22799  -0.00005   0.00007  -0.00052  -0.00046   0.22753
   D20       -0.22976   0.00002  -0.00021   0.00040   0.00020  -0.22956
   D21       -1.57181   0.00008  -0.00014   0.00172   0.00158  -1.57022
   D22        1.57109  -0.00010   0.00004  -0.00180  -0.00176   1.56933
   D23        1.79749  -0.00008  -0.00011  -0.00170  -0.00182   1.79568
   D24        1.33975  -0.00001  -0.00040  -0.00079  -0.00115   1.33859
   D25       -0.00230   0.00006  -0.00032   0.00054   0.00023  -0.00207
   D26        3.14060  -0.00013  -0.00014  -0.00299  -0.00311   3.13748
   D27       -1.34118   0.00001   0.00030   0.00084   0.00111  -1.34006
   D28       -1.79892   0.00008   0.00001   0.00176   0.00178  -1.79715
   D29       -3.14097   0.00015   0.00009   0.00308   0.00316  -3.13781
   D30        0.00193  -0.00004   0.00027  -0.00044  -0.00018   0.00174
         Item               Value     Threshold  Converged?
 Maximum Force            0.004841     0.000450     NO 
 RMS     Force            0.001632     0.000300     NO 
 Maximum Displacement     0.039949     0.001800     NO 
 RMS     Displacement     0.012809     0.001200     NO 
 Predicted change in Energy=-6.266766D-04
 GradGradGradGradGradGradGradGradGradGradGradGradGradGradGradGradGradGrad

                          Input orientation:                          
 ---------------------------------------------------------------------
 Center     Atomic      Atomic             Coordinates (Angstroms)
 Number     Number       Type             X           Y           Z
 ---------------------------------------------------------------------
      1          6           0       -0.013080    0.013042   -0.008349
      2          1           0        0.007559    0.013453    1.073625
      3          1           0        0.937874    0.013782   -0.524939
      4          6           0       -1.156922    0.009538   -0.675060
      5          1           0       -2.108359    0.009430   -0.159204
      6          1           0       -1.175529    0.010018   -1.757214
      7          6           0       -0.203878    3.981694   -0.120218
      8          6           0       -1.345458    3.986047   -0.782581
      9          9           0        0.968846    3.976143   -0.704307
     10          9           0       -0.127890    3.976086    1.187431
     11          9           0       -1.423460    3.987529   -2.090535
     12          9           0       -2.519526    3.987111   -0.200289
 ---------------------------------------------------------------------
                    Distance matrix (angstroms):
                    1          2          3          4          5
     1  C    0.000000
     2  H    1.082171   0.000000
     3  H    1.082211   1.849566   0.000000
     4  C    1.323967   2.100936   2.100172   0.000000
     5  H    2.100706   2.448877   3.068113   1.082285   0.000000
     6  H    2.099958   3.068120   2.446423   1.082314   1.850353
     7  C    3.974810   4.149326   4.148701   4.122398   4.405389
     8  C    4.261388   4.588863   4.588994   3.982428   4.096840
     9  F    4.141824   4.448374   3.966540   4.500411   5.049866
    10  F    4.141109   3.966581   4.446113   4.501253   4.633578
    11  F    4.703320   5.277595   4.880333   4.230724   4.474863
    12  F    4.702375   4.878420   5.276965   4.231216   3.999087
                    6          7          8          9         10
     6  H    0.000000
     7  C    4.404324   0.000000
     8  C    4.097266   1.319828   0.000000
     9  F    4.630022   1.310142   2.315648   0.000000
    10  F    5.049572   1.309867   2.315926   2.186664   0.000000
    11  F    3.999146   2.317232   1.310279   2.764939   3.524726
    12  F    4.477456   2.317038   1.310534   3.524612   2.765106
                   11         12
    11  F    0.000000
    12  F    2.185037   0.000000
 Stoichiometry    C4H4F4
 Framework group  C1[X(C4H4F4)]
 Deg. of freedom    30
 Full point group                 C1      NOp   1
 Largest Abelian subgroup         C1      NOp   1
 Largest concise Abelian subgroup C1      NOp   1
                         Standard orientation:                         
 ---------------------------------------------------------------------
 Center     Atomic      Atomic             Coordinates (Angstroms)
 Number     Number       Type             X           Y           Z
 ---------------------------------------------------------------------
      1          6           0       -3.045508    0.517772   -0.001239
      2          1           0       -3.102445    1.075959   -0.926593
      3          1           0       -3.102515    1.077919    0.922972
      4          6           0       -2.913447   -0.799590    0.001053
      5          1           0       -2.855731   -1.360456   -0.922765
      6          1           0       -2.855796   -1.356027    0.927583
      7          6           0        0.924933    0.704072    0.000140
      8          6           0        1.064387   -0.608368   -0.000192
      9          9           0        0.845484    1.420646    1.094069
     10          9           0        0.845527    1.421970   -1.092595
     11          9           0        1.139883   -1.328574    1.091794
     12          9           0        1.139584   -1.327455   -1.093243
 ---------------------------------------------------------------------
 Rotational constants (GHZ):      1.9048938      1.1442333      0.9746277
 Standard basis: Aug-CC-pVTZ (5D, 7F)
 There are   540 symmetry adapted cartesian basis functions of A   symmetry.
 There are   460 symmetry adapted basis functions of A   symmetry.
   460 basis functions,   684 primitive gaussians,   540 cartesian basis functions
    32 alpha electrons       32 beta electrons
       nuclear repulsion energy       372.5667755609 Hartrees.
 NAtoms=   12 NActive=   12 NUniq=   12 SFac= 1.00D+00 NAtFMM=   60 NAOKFM=F Big=F
 Integral buffers will be    131072 words long.
 Raffenetti 2 integral format.
 Two-electron integral symmetry is turned on.
 Nuclear repulsion after empirical dispersion term =      372.5634212888 Hartrees.
 One-electron integrals computed using PRISM.
 NBasis=   460 RedAO= T EigKep=  4.16D-06  NBF=   460
 NBsUse=   460 1.00D-06 EigRej= -1.00D+00 NBFU=   460
 Initial guess from the checkpoint file:  "c2h4-c2f4-wb97xd-aug.chk"
 B after Tr=     0.000000    0.000000    0.000000
         Rot=    0.999998    0.000099   -0.000003   -0.001993 Ang=   0.23 deg.
 ExpMin= 2.53D-02 ExpMax= 1.95D+04 ExpMxC= 6.65D+02 IAcc=3 IRadAn=         5 AccDes= 0.00D+00
 Harris functional with IExCor= 4639 and IRadAn=       5 diagonalized for initial guess.
 HarFok:  IExCor= 4639 AccDes= 0.00D+00 IRadAn=         5 IDoV= 1 UseB2=F ITyADJ=14
 ICtDFT=  3500011 ScaDFX=  1.000000  1.000000  1.000000  1.000000
 FoFCou: FMM=F IPFlag=           0 FMFlag=      100000 FMFlg1=           0
         NFxFlg=           0 DoJE=T BraDBF=F KetDBF=T FulRan=T
         wScrn=  0.000000 ICntrl=     500 IOpCl=  0 I1Cent=   200000004 NGrid=           0
         NMat0=    1 NMatS0=      1 NMatT0=    0 NMatD0=    1 NMtDS0=    0 NMtDT0=    0
 Petite list used in FoFCou.
 Requested convergence on RMS density matrix=1.00D-08 within 128 cycles.
 Requested convergence on MAX density matrix=1.00D-06.
 Requested convergence on             energy=1.00D-06.
 No special actions if energy rises.
 SCF Done:  E(RwB97XD) =  -554.164258143     A.U. after    9 cycles
            NFock=  9  Conv=0.43D-08     -V/T= 2.0050
 Calling FoFJK, ICntrl=      2127 FMM=F ISym2X=0 I1Cent= 0 IOpClX= 0 NMat=1 NMatS=1 NMatT=0.
 ***** Axes restored to original set *****
 -------------------------------------------------------------------
 Center     Atomic                   Forces (Hartrees/Bohr)
 Number     Number              X              Y              Z
 -------------------------------------------------------------------
      1        6          -0.002346194    0.000410128   -0.001417459
      2        1           0.000676567   -0.000013837    0.000081478
      3        1           0.000428223   -0.000000667    0.000618045
      4        6           0.002429760    0.000885698    0.001358886
      5        1          -0.000389425   -0.000080330   -0.000650771
      6        1          -0.000828759   -0.000085350   -0.000007270
      7        6          -0.002974406   -0.000477330   -0.001999732
      8        6           0.002348737    0.000037210    0.001624569
      9        9           0.001018340   -0.000121398   -0.000575871
     10        9          -0.000031308   -0.000131800    0.001319562
     11        9           0.000452013   -0.000216484   -0.001287544
     12        9          -0.000783548   -0.000205839    0.000936106
 -------------------------------------------------------------------
 Cartesian Forces:  Max     0.002974406 RMS     0.001134535

 GradGradGradGradGradGradGradGradGradGradGradGradGradGradGradGradGradGrad
 Berny optimization.
 Using GEDIIS/GDIIS optimizer.
 FormGI is forming the generalized inverse of G from B-inverse, IUseBI=4.
 Internal  Forces:  Max     0.002222912 RMS     0.000460387
 Search for a local minimum.
 Step number   3 out of a maximum of   86
 All quantities printed in internal units (Hartrees-Bohrs-Radians)
 Mixed Optimization -- En-DIIS/RFO-DIIS
 Update second derivatives using D2CorX and points    1    2    3
 DE= -5.73D-04 DEPred=-6.27D-04 R= 9.14D-01
 TightC=F SS=  1.41D+00  RLast= 1.15D-01 DXNew= 8.4853D-01 3.4531D-01
 Trust test= 9.14D-01 RLast= 1.15D-01 DXMaxT set to 5.05D-01
 ITU=  1  1  0
 Use linear search instead of GDIIS.
     Eigenvalues ---    0.00538   0.00765   0.02984   0.03010   0.04038
     Eigenvalues ---    0.04910   0.05204   0.05891   0.06633   0.06755
     Eigenvalues ---    0.07587   0.08354   0.08703   0.09532   0.11723
     Eigenvalues ---    0.12553   0.14680   0.15732   0.19402   0.19845
     Eigenvalues ---    0.34614   0.35911   0.37202   0.37230   0.52315
     Eigenvalues ---    0.54975   0.55021   0.55021   0.55915   0.59191
 RFO step:  Lambda=-9.67153207D-05 EMin= 5.37805200D-03
 Quartic linear search produced a step of  0.00673.
 Iteration  1 RMS(Cart)=  0.00911867 RMS(Int)=  0.00000551
 Iteration  2 RMS(Cart)=  0.00000487 RMS(Int)=  0.00000193
 Iteration  3 RMS(Cart)=  0.00000000 RMS(Int)=  0.00000193
 Variable       Old X    -DE/DX   Delta X   Delta X   Delta X     New X
                                 (Linear)    (Quad)   (Total)
    R1        2.04501   0.00010   0.00002   0.00047   0.00049   2.04549
    R2        2.04508   0.00008   0.00002   0.00043   0.00045   2.04553
    R3        2.50194  -0.00139   0.00000  -0.00293  -0.00293   2.49901
    R4        7.51130  -0.00038  -0.00025  -0.04760  -0.04785   7.46346
    R5        2.04522   0.00002   0.00002   0.00024   0.00026   2.04548
    R6        2.04528   0.00001   0.00002   0.00020   0.00022   2.04550
    R7        7.79020  -0.00054  -0.00021  -0.04324  -0.04345   7.74676
    R8        7.52570  -0.00028  -0.00019  -0.04079  -0.04098   7.48472
    R9        7.74191   0.00002  -0.00020  -0.03668  -0.03688   7.70502
   R10        7.74271   0.00003  -0.00020  -0.03669  -0.03689   7.70582
   R11        2.49411  -0.00222   0.00004  -0.00414  -0.00410   2.49001
   R12        2.47581   0.00117  -0.00007   0.00137   0.00131   2.47711
   R13        2.47529   0.00131  -0.00006   0.00166   0.00160   2.47689
   R14        2.47607   0.00126  -0.00006   0.00159   0.00153   2.47760
   R15        2.47655   0.00112  -0.00006   0.00131   0.00124   2.47779
    A1        2.04936  -0.00049  -0.00015  -0.00733  -0.00748   2.04188
    A2        2.11760   0.00023   0.00007   0.00316   0.00323   2.12083
    A3        1.59948  -0.00001   0.00000  -0.00002  -0.00002   1.59946
    A4        2.11623   0.00026   0.00008   0.00416   0.00425   2.12048
    A5        1.59886  -0.00002   0.00000  -0.00018  -0.00018   1.59868
    A6        2.11704   0.00028   0.00007   0.00328   0.00335   2.12039
    A7        2.11571   0.00033   0.00008   0.00427   0.00435   2.12007
    A8        1.62267  -0.00019  -0.00001  -0.00131  -0.00132   1.62136
    A9        2.05043  -0.00061  -0.00015  -0.00755  -0.00770   2.04273
   A10        1.71043   0.00009   0.00001   0.00293   0.00295   1.71338
   A11        1.70936   0.00009   0.00002   0.00300   0.00302   1.71238
   A12        1.62977  -0.00002   0.00001   0.00167   0.00169   1.63146
   A13        1.53614  -0.00001  -0.00002  -0.00106  -0.00108   1.53505
   A14        1.53563  -0.00002  -0.00002  -0.00116  -0.00119   1.53445
   A15        1.71414  -0.00011   0.00001  -0.00006  -0.00004   1.71409
   A16        1.71495  -0.00012   0.00001  -0.00009  -0.00008   1.71487
   A17        2.15376  -0.00001   0.00011   0.00101   0.00112   2.15488
   A18        2.15459  -0.00006   0.00010   0.00047   0.00058   2.15517
   A19        1.97482   0.00007  -0.00021  -0.00148  -0.00170   1.97312
   A20        1.60170  -0.00013   0.00000  -0.00040  -0.00040   1.60130
   A21        1.60203  -0.00012   0.00001  -0.00030  -0.00029   1.60174
   A22        0.45556  -0.00008   0.00000   0.00118   0.00118   0.45674
   A23        1.65239   0.00020   0.00000   0.00012   0.00013   1.65252
   A24        1.71318  -0.00012  -0.00003  -0.00051  -0.00055   1.71263
   A25        1.33497  -0.00013   0.00000  -0.00168  -0.00168   1.33329
   A26        1.65119   0.00020   0.00001   0.00017   0.00018   1.65136
   A27        1.33472  -0.00014  -0.00001  -0.00179  -0.00180   1.33293
   A28        1.71493  -0.00012  -0.00003  -0.00057  -0.00060   1.71433
   A29        2.15611  -0.00035   0.00009  -0.00097  -0.00088   2.15523
   A30        2.15544  -0.00028   0.00009  -0.00054  -0.00045   2.15498
   A31        1.97164   0.00063  -0.00018   0.00151   0.00133   1.97297
    D1        0.00266  -0.00005   0.00002  -0.00055  -0.00053   0.00213
    D2        3.14064   0.00009  -0.00001   0.00131   0.00129  -3.14126
    D3        1.57145   0.00002   0.00000   0.00035   0.00036   1.57180
    D4       -3.14091  -0.00009   0.00001  -0.00127  -0.00125   3.14103
    D5       -0.00293   0.00006  -0.00002   0.00059   0.00056  -0.00237
    D6       -1.57212  -0.00002   0.00000  -0.00037  -0.00037  -1.57249
    D7       -2.11494  -0.00021  -0.00007  -0.00279  -0.00286  -2.11779
    D8        2.01540  -0.00020  -0.00017  -0.00375  -0.00392   2.01148
    D9        0.03873  -0.00027   0.00004  -0.00238  -0.00234   0.03639
   D10        2.11757   0.00028   0.00009   0.00456   0.00464   2.12221
   D11       -0.03528   0.00029  -0.00002   0.00360   0.00358  -0.03171
   D12       -2.01195   0.00022   0.00019   0.00497   0.00516  -2.00680
   D13        3.10644   0.00028  -0.00004   0.00203   0.00199   3.10843
   D14        1.09965   0.00026   0.00017   0.00360   0.00377   1.10343
   D15       -1.09375  -0.00031  -0.00019  -0.00438  -0.00457  -1.09832
   D16       -3.10053  -0.00033   0.00003  -0.00281  -0.00278  -3.10332
   D17        2.15737  -0.00032   0.00009  -0.00057  -0.00048   2.15689
   D18       -2.15272   0.00030  -0.00009   0.00090   0.00081  -2.15190
   D19        0.22753  -0.00005   0.00000   0.00048   0.00048   0.22801
   D20       -0.22956   0.00003   0.00000  -0.00071  -0.00071  -0.23027
   D21       -1.57022   0.00004   0.00001   0.00126   0.00127  -1.56895
   D22        1.56933  -0.00005  -0.00001  -0.00141  -0.00143   1.56791
   D23        1.79568  -0.00007  -0.00001   0.00037   0.00036   1.79604
   D24        1.33859   0.00000  -0.00001  -0.00082  -0.00083   1.33776
   D25       -0.00207   0.00002   0.00000   0.00115   0.00115  -0.00092
   D26        3.13748  -0.00008  -0.00002  -0.00153  -0.00155   3.13594
   D27       -1.34006   0.00000   0.00001   0.00075   0.00075  -1.33931
   D28       -1.79715   0.00007   0.00001  -0.00045  -0.00044  -1.79758
   D29       -3.13781   0.00009   0.00002   0.00152   0.00154  -3.13627
   D30        0.00174  -0.00001   0.00000  -0.00115  -0.00115   0.00059
         Item               Value     Threshold  Converged?
 Maximum Force            0.002223     0.000450     NO 
 RMS     Force            0.000460     0.000300     NO 
 Maximum Displacement     0.025722     0.001800     NO 
 RMS     Displacement     0.009120     0.001200     NO 
 Predicted change in Energy=-4.893641D-05
 GradGradGradGradGradGradGradGradGradGradGradGradGradGradGradGradGradGrad

                          Input orientation:                          
 ---------------------------------------------------------------------
 Center     Atomic      Atomic             Coordinates (Angstroms)
 Number     Number       Type             X           Y           Z
 ---------------------------------------------------------------------
      1          6           0       -0.014305    0.026139   -0.009176
      2          1           0        0.009712    0.026881    1.072986
      3          1           0        0.939101    0.027394   -0.521727
      4          6           0       -1.156727    0.020890   -0.675234
      5          1           0       -2.110064    0.019111   -0.162610
      6          1           0       -1.179923    0.019841   -1.757414
      7          6           0       -0.204579    3.969462   -0.120866
      8          6           0       -1.344450    3.975745   -0.781834
      9          9           0        0.969253    3.962663   -0.704265
     10          9           0       -0.127451    3.962536    1.187557
     11          9           0       -1.421697    3.976852   -2.090643
     12          9           0       -2.518692    3.976360   -0.198413
 ---------------------------------------------------------------------
                    Distance matrix (angstroms):
                    1          2          3          4          5
     1  C    0.000000
     2  H    1.082428   0.000000
     3  H    1.082448   1.845772   0.000000
     4  C    1.322418   2.101639   2.101452   0.000000
     5  H    2.101379   2.453611   3.070251   1.082422   0.000000
     6  H    2.101200   3.070252   2.453006   1.082430   1.846230
     7  C    3.949491   4.124943   4.124148   4.099406   4.386101
     8  C    4.238594   4.568111   4.568560   3.960743   4.077322
     9  F    4.116645   4.423768   3.939616   4.478640   5.032612
    10  F    4.115847   3.939711   4.420919   4.479506   4.615659
    11  F    4.682029   5.259254   4.861387   4.209897   4.455881
    12  F    4.681027   4.858772   5.258821   4.210469   3.978452
                    6          7          8          9         10
     6  H    0.000000
     7  C    4.385098   0.000000
     8  C    4.077744   1.317659   0.000000
     9  F    4.612366   1.310832   2.315040   0.000000
    10  F    5.032434   1.310713   2.315117   2.186722   0.000000
    11  F    3.978371   2.315481   1.311087   2.763853   3.524468
    12  F    4.458344   2.315422   1.311191   3.524462   2.763899
                   11         12
    11  F    0.000000
    12  F    2.187220   0.000000
 Stoichiometry    C4H4F4
 Framework group  C1[X(C4H4F4)]
 Deg. of freedom    30
 Full point group                 C1      NOp   1
 Largest Abelian subgroup         C1      NOp   1
 Largest concise Abelian subgroup C1      NOp   1
                         Standard orientation:                         
 ---------------------------------------------------------------------
 Center     Atomic      Atomic             Coordinates (Angstroms)
 Number     Number       Type             X           Y           Z
 ---------------------------------------------------------------------
      1          6           0       -3.027180    0.513330   -0.001291
      2          1           0       -3.084914    1.074367   -0.925172
      3          1           0       -3.084959    1.077669    0.920597
      4          6           0       -2.895051   -0.802468    0.001290
      5          1           0       -2.837803   -1.366765   -0.920625
      6          1           0       -2.837695   -1.362839    0.925600
      7          6           0        0.917731    0.703460    0.000252
      8          6           0        1.060835   -0.606405   -0.000287
      9          9           0        0.835816    1.421198    1.094064
     10          9           0        0.835823    1.422354   -1.092657
     11          9           0        1.136987   -1.326197    1.092896
     12          9           0        1.136637   -1.325126   -1.094324
 ---------------------------------------------------------------------
 Rotational constants (GHZ):      1.9057316      1.1548529      0.9828439
 Standard basis: Aug-CC-pVTZ (5D, 7F)
 There are   540 symmetry adapted cartesian basis functions of A   symmetry.
 There are   460 symmetry adapted basis functions of A   symmetry.
   460 basis functions,   684 primitive gaussians,   540 cartesian basis functions
    32 alpha electrons       32 beta electrons
       nuclear repulsion energy       373.0548150011 Hartrees.
 NAtoms=   12 NActive=   12 NUniq=   12 SFac= 1.00D+00 NAtFMM=   60 NAOKFM=F Big=F
 Integral buffers will be    131072 words long.
 Raffenetti 2 integral format.
 Two-electron integral symmetry is turned on.
 Nuclear repulsion after empirical dispersion term =      373.0514198937 Hartrees.
 One-electron integrals computed using PRISM.
 NBasis=   460 RedAO= T EigKep=  4.13D-06  NBF=   460
 NBsUse=   460 1.00D-06 EigRej= -1.00D+00 NBFU=   460
 Initial guess from the checkpoint file:  "c2h4-c2f4-wb97xd-aug.chk"
 B after Tr=     0.000000    0.000000    0.000000
         Rot=    1.000000    0.000022   -0.000004   -0.000871 Ang=   0.10 deg.
 ExpMin= 2.53D-02 ExpMax= 1.95D+04 ExpMxC= 6.65D+02 IAcc=3 IRadAn=         5 AccDes= 0.00D+00
 Harris functional with IExCor= 4639 and IRadAn=       5 diagonalized for initial guess.
 HarFok:  IExCor= 4639 AccDes= 0.00D+00 IRadAn=         5 IDoV= 1 UseB2=F ITyADJ=14
 ICtDFT=  3500011 ScaDFX=  1.000000  1.000000  1.000000  1.000000
 FoFCou: FMM=F IPFlag=           0 FMFlag=      100000 FMFlg1=           0
         NFxFlg=           0 DoJE=T BraDBF=F KetDBF=T FulRan=T
         wScrn=  0.000000 ICntrl=     500 IOpCl=  0 I1Cent=   200000004 NGrid=           0
         NMat0=    1 NMatS0=      1 NMatT0=    0 NMatD0=    1 NMtDS0=    0 NMtDT0=    0
 Petite list used in FoFCou.
 Requested convergence on RMS density matrix=1.00D-08 within 128 cycles.
 Requested convergence on MAX density matrix=1.00D-06.
 Requested convergence on             energy=1.00D-06.
 No special actions if energy rises.
 SCF Done:  E(RwB97XD) =  -554.164336645     A.U. after    8 cycles
            NFock=  8  Conv=0.31D-08     -V/T= 2.0050
 Calling FoFJK, ICntrl=      2127 FMM=F ISym2X=0 I1Cent= 0 IOpClX= 0 NMat=1 NMatS=1 NMatT=0.
 ***** Axes restored to original set *****
 -------------------------------------------------------------------
 Center     Atomic                   Forces (Hartrees/Bohr)
 Number     Number              X              Y              Z
 -------------------------------------------------------------------
      1        6          -0.000242039    0.000420656   -0.000152649
      2        1           0.000132690    0.000015906   -0.000004923
      3        1           0.000063078    0.000028796    0.000138063
      4        6           0.000343801    0.000755907    0.000178350
      5        1          -0.000113845   -0.000035416   -0.000163265
      6        1          -0.000214383   -0.000039041   -0.000013383
      7        6           0.000113501   -0.000531591   -0.000047298
[...]
    -- Stationary point found.
                           ----------------------------
                           !   Optimized Parameters   !
                           ! (Angstroms and Degrees)  !
 --------------------------                            --------------------------
 ! Name  Definition              Value          Derivative Info.                !
 --------------------------------------------------------------------------------
 ! R1    R(1,2)                  1.0822         -DE/DX =    0.0                 !
 ! R2    R(1,3)                  1.0823         -DE/DX =    0.0                 !
 ! R3    R(1,4)                  1.3221         -DE/DX =    0.0                 !
 ! R4    R(1,7)                  3.5212         -DE/DX =    0.0                 !
 ! R5    R(4,5)                  1.0826         -DE/DX =    0.0                 !
 ! R6    R(4,6)                  1.0826         -DE/DX =    0.0                 !
 ! R7    R(4,7)                  3.3642         -DE/DX =    0.0                 !
 ! R8    R(4,8)                  3.5021         -DE/DX =    0.0                 !
 ! R9    R(5,8)                  3.4848         -DE/DX =    0.0                 !
 ! R10   R(6,8)                  3.543          -DE/DX =    0.0                 !
 ! R11   R(7,8)                  1.3173         -DE/DX =    0.0                 !
 ! R12   R(7,9)                  1.3108         -DE/DX =    0.0                 !
 ! R13   R(7,10)                 1.3102         -DE/DX =    0.0                 !
 ! R14   R(8,11)                 1.3125         -DE/DX =    0.0                 !
 ! R15   R(8,12)                 1.3121         -DE/DX =    0.0                 !
 ! A1    A(2,1,3)              116.8754         -DE/DX =    0.0                 !
 ! A2    A(2,1,4)              121.57           -DE/DX =    0.0                 !
 ! A3    A(2,1,7)              104.5299         -DE/DX =    0.0                 !
 ! A4    A(3,1,4)              121.5538         -DE/DX =    0.0                 !
 ! A5    A(3,1,7)               93.5951         -DE/DX =    0.0                 !
 ! A6    A(1,4,5)              121.5904         -DE/DX =    0.0                 !
 ! A7    A(1,4,6)              121.5738         -DE/DX =    0.0                 !
 ! A8    A(1,4,8)              106.0024         -DE/DX =    0.0                 !
 ! A9    A(5,4,6)              116.8357         -DE/DX =    0.0                 !
 ! A10   A(5,4,7)               98.0036         -DE/DX =    0.0                 !
 ! A11   A(6,4,7)               86.6215         -DE/DX =    0.0                 !
 ! A12   A(1,7,8)              105.1908         -DE/DX =    0.0                 !
 ! A13   A(1,7,9)               82.9238         -DE/DX =    0.0                 !
 ! A14   A(1,7,10)              79.9933         -DE/DX =    0.0                 !
 ! A15   A(4,7,9)               86.9519         -DE/DX =    0.0                 !
 ! A16   A(4,7,10)              98.1887         -DE/DX =    0.0                 !
 ! A17   A(8,7,9)              123.373          -DE/DX =    0.0                 !
 ! A18   A(8,7,10)             123.4482         -DE/DX =    0.0                 !
 ! A19   A(9,7,10)             113.1765         -DE/DX =    0.0                 !
 ! A20   A(4,8,11)              93.4123         -DE/DX =    0.0                 !
 ! A21   A(4,8,12)             104.4175         -DE/DX =    0.0                 !
 ! A22   A(5,8,6)               30.4168         -DE/DX =    0.0                 !
 ! A23   A(5,8,7)               87.6546         -DE/DX =    0.0                 !
 ! A24   A(5,8,11)              93.9904         -DE/DX =    0.0                 !
 ! A25   A(5,8,12)              87.8836         -DE/DX =    0.0                 !
 ! A26   A(6,8,7)               76.1922         -DE/DX =    0.0                 !
 ! A27   A(6,8,11)              77.6013         -DE/DX =    0.0                 !
 ! A28   A(6,8,12)             117.8062         -DE/DX =    0.0                 !
 ! A29   A(7,8,11)             123.4146         -DE/DX =    0.0                 !
 ! A30   A(7,8,12)             123.4943         -DE/DX =    0.0                 !
 ! A31   A(11,8,12)            113.0862         -DE/DX =    0.0                 !
 ! D1    D(2,1,4,5)             -0.2665         -DE/DX =    0.0                 !
 ! D2    D(2,1,4,6)            179.8582         -DE/DX =    0.0                 !
 ! D3    D(2,1,4,8)             87.9125         -DE/DX =    0.0                 !
 ! D4    D(3,1,4,5)           -179.9466         -DE/DX =    0.0                 !
 ! D5    D(3,1,4,6)              0.178          -DE/DX =    0.0                 !
 ! D6    D(3,1,4,8)            -91.7677         -DE/DX =    0.0                 !
 ! D7    D(2,1,7,8)            -95.7418         -DE/DX =    0.0                 !
 ! D8    D(2,1,7,9)            141.5287         -DE/DX =    0.0                 !
 ! D9    D(2,1,7,10)            26.4024         -DE/DX =    0.0                 !
 ! D10   D(3,1,7,8)            145.2986         -DE/DX =    0.0                 !
 ! D11   D(3,1,7,9)             22.5692         -DE/DX =    0.0                 !
 ! D12   D(3,1,7,10)           -92.5571         -DE/DX =    0.0                 !
 ! D13   D(5,4,7,9)           -160.0702         -DE/DX =    0.0                 !
 ! D14   D(5,4,7,10)            86.943          -DE/DX =    0.0                 !
 ! D15   D(6,4,7,9)            -43.4312         -DE/DX =    0.0                 !
 ! D16   D(6,4,7,10)          -156.418          -DE/DX =    0.0                 !
 ! D17   D(1,4,8,11)           147.3472         -DE/DX =    0.0                 !
 ! D18   D(1,4,8,12)           -97.7605         -DE/DX =    0.0                 !
 ! D19   D(1,7,8,5)              1.9273         -DE/DX =    0.0                 !
 ! D20   D(1,7,8,6)            -26.586          -DE/DX =    0.0                 !
 ! D21   D(1,7,8,11)           -91.3069         -DE/DX =    0.0                 !
 ! D22   D(1,7,8,12)            87.8315         -DE/DX =    0.0                 !
 ! D23   D(9,7,8,5)             93.4171         -DE/DX =    0.0                 !
 ! D24   D(9,7,8,6)             64.9037         -DE/DX =    0.0                 !
 ! D25   D(9,7,8,11)             0.1829         -DE/DX =    0.0                 !
 ! D26   D(9,7,8,12)           179.3212         -DE/DX =    0.0                 !
 ! D27   D(10,7,8,5)           -85.9849         -DE/DX =    0.0                 !
 ! D28   D(10,7,8,6)          -114.4982         -DE/DX =    0.0                 !
 ! D29   D(10,7,8,11)         -179.2191         -DE/DX =    0.0                 !
 ! D30   D(10,7,8,12)           -0.0807         -DE/DX =    0.0                 !
 --------------------------------------------------------------------------------
 GradGradGradGradGradGradGradGradGradGradGradGradGradGradGradGradGradGrad

 1\1\GINC-TC-NODE162\Freq\RwB97XD\Aug-CC-pVTZ\C4H4F4\MAXB2\17-Nov-2016\
 0\\#N Geom=AllCheck Guess=TCheck SCRF=Check GenChk RwB97XD/Aug-CC-pVTZ
  Freq\\Title\\0,1\C,-0.0178599184,0.143776377,0.148352022\H,-0.2462593
 21,-0.0199554931,1.1934692332\H,1.0262199192,0.1122337499,-0.135061884
 2\C,-0.9690261652,0.3775602333,-0.7396387506\H,-2.0134599456,0.4100844
 839,-0.456662897\H,-0.7404436478,0.5435916749,-1.7846968859\C,-0.25545
 61252,3.6317321822,-0.2719326589\C,-1.4751570078,3.8428171424,-0.72258
 52072\F,0.7799251679,3.4450204917,-1.0538733541\F,0.0439954771,3.57584
 35956,1.00233279\F,-1.7769538652,3.8839669592,-1.9992033879\F,-2.51534
 75388,4.017202813,0.0578614035\\Version=ES64L-G09RevD.01\State=1-A\HF=
 -554.1654728\RMSD=1.839e-09\RMSF=1.111e-05\ZeroPoint=0.0746976\Thermal
 =0.0847104\Dipole=0.0311338,-0.0627019,0.0207478\DipoleDeriv=0.0473959
 ,-0.0108448,-0.061214,-0.0069909,-0.3135277,-0.0477887,-0.0584758,-0.0
 546969,0.0486491,0.0419468,-0.0006874,0.0511903,0.0042814,0.1492853,0.
 0264356,0.0097323,0.0393936,-0.0661766,-0.0643707,0.0127016,0.0157646,
 -0.003445,0.1539026,0.0158493,0.0569254,0.0148595,0.0396116,0.0300203,
 -0.0150145,-0.0664154,-0.0116221,-0.2903115,-0.0488701,-0.067451,-0.05
 22361,0.0251216,-0.0692839,0.0232201,0.01399,0.0171164,0.1533548,0.014
 9597,0.052394,0.0131701,0.0387819,0.0360658,-0.0016545,0.0468776,0.004
 5908,0.1505248,0.0425603,0.0065296,0.0472555,-0.0632029,1.1319917,-0.1
 819916,-0.0570521,-0.1967713,0.2109596,0.0038716,-0.0563366,0.0184811,
 1.2673455,1.2057943,-0.2601588,-0.039032,-0.1525623,0.1224611,0.022783
 9,-0.0491102,-0.0007108,1.3121919,-0.8323719,0.1440719,0.2410563,0.134
 427,-0.1050766,-0.0370847,0.4174082,-0.0743692,-0.3902642,-0.3276372,0
 .0505011,-0.1889291,0.0484399,-0.0884736,0.0255636,-0.3635578,0.055770
 9,-0.8952216,-0.3421561,0.0636686,-0.1964985,0.0372196,-0.0625158,0.02
 56373,-0.3709286,0.085264,-0.9168349,-0.857395,0.1761883,0.2402624,0.1
 253166,-0.0805828,-0.0439178,0.4228704,-0.0921816,-0.4000014\Polar=62.
 5992403,-4.7988723,48.9786531,6.8241468,-2.523082,56.0739358\PolarDeri
 v=-0.6383071,-0.4674668,7.0116136,3.6112308,-0.2466257,4.4524881,-0.99
 43291,3.7813348,-4.4537831,-0.3561526,3.0716028,0.3390538,4.6908055,-0
 .3346281,5.923151,3.1061927,1.0425506,-0.9879585,0.6731432,-0.407276,-
 0.2974617,1.1466622,0.2046914,-1.4511725,-0.3182865,-0.2761904,-0.1613
 8,-0.0677988,0.5028668,-1.2484645,1.1235692,-0.0878877,1.4465425,-0.01
 6405,-1.688541,8.4032563,8.456513,-0.9061863,1.2054601,-0.3852219,-0.0
 422255,1.1944,-0.3144575,0.2725946,0.1518484,-0.1126398,-0.2603619,-0.
 2915547,-1.740657,0.0039433,-0.2732049,1.2720213,-0.3962017,0.4327171,
 0.5201439,0.1272225,-6.9065678,-3.5526036,0.0668005,-4.4638491,-0.0683
 049,-3.9941722,4.0844442,-0.0833347,-3.0837611,-1.3617597,-4.663387,0.
 0592601,-5.4631967,-3.1015153,-1.3655504,0.6822914,-7.9986205,0.165535
 6,-1.1989796,0.413941,0.0284263,-1.143863,0.2016226,-0.2331917,-0.1721
 996,0.2026583,0.331237,0.1965306,1.757063,0.1436701,0.2610553,-1.20670
 14,0.2294973,-0.394881,-0.6244671,0.22853,0.325978,-1.0718589,-0.09132
 09,1.4352224,0.2122833,0.3349055,0.2117506,0.1224289,-0.3717296,1.1152
 883,-1.0593186,0.0489901,-1.4116851,0.1237776,0.934293,-7.9488507,7.57
 99672,0.4167206,5.5825491,2.7996376,-0.2345806,0.1425817,0.74838,6.274
 6791,-4.0159353,-0.1883085,2.1486806,0.4127289,2.4206069,-0.1934816,2.
 1100679,1.349209,-0.086327,0.3620911,-7.717786,0.1260786,-5.7859361,-2
 .8634101,0.3210305,-0.1433116,0.5459706,-6.1300825,4.4166369,0.5582278
 ,-2.4473493,0.4427035,-2.4569186,0.3683983,-2.4577763,-1.3769012,0.502
 2909,-0.3584171,4.8856105,-0.4428962,0.6373447,-1.335306,-0.0312634,1.
 9797385,-0.5097234,0.2602153,0.1855514,0.0481532,-0.8999027,-0.2598033
 ,-1.5628065,-0.0340098,-0.592264,2.0269148,-0.2913276,-2.6389873,1.815
 5383,-0.2916199,-0.0516543,1.4071778,0.0023502,0.7382345,-0.3151213,-0
 .3027492,0.0964267,0.0150007,0.9015789,0.1282427,1.5502571,0.078379,0.
 5669005,0.9072012,0.2598007,5.9910047,-1.9632634,0.4702666,-0.0836698,
 -1.4959795,0.1789481,-0.7913843,0.2337257,0.3423685,-0.2797864,0.04597
 32,-0.7850581,0.2012219,-1.4812767,0.2562173,-0.5760674,-0.9413825,0.3
 883004,-6.2004498,-4.9884719,0.9810913,-0.4386762,1.3257306,-0.1562309
 ,-1.9490847,0.5782406,-0.3297119,-0.0635738,-0.1842077,0.8921968,0.325
 8126,1.4220627,-0.3088512,0.4664772,-2.1424112,0.4712148,2.6581838\Hyp
 erPolar=4.9055397,-13.9515955,-3.1275836,-25.5566429,-0.4997732,-2.630
 6178,-3.3916997,1.090838,-15.4602004,1.3894059\PG=C01 [X(C4H4F4)]\NIma
 g=0\\0.76381326,-0.06944986,0.14624558,0.10647404,-0.11711769,0.736571
 50,-0.07440323,-0.00892787,0.06539862,0.06909704,-0.00804594,-0.046720
 19,0.04318297,0.00787892,0.03413234,0.06026450,0.04382175,-0.31911278,
 -0.06322557,-0.04942762,0.33931765,-0.31825721,0.00855209,0.07358890,-
 0.00223712,0.00057906,-0.00083411,0.33918761,0.00744222,-0.04061506,0.
 00147629,-0.00418784,0.00329699,0.00121043,-0.01046820,0.02735567,0.07
 872062,0.00105630,-0.08146958,0.02610583,-0.00091181,-0.00350188,-0.07
 802188,-0.00260965,0.07607856,-0.36120773,0.06501939,-0.22884066,0.008
 82613,-0.00148038,0.00720934,-0.01869254,0.00631947,-0.02379275,0.7630
 2737,0.06559432,-0.06820523,0.06771124,0.00428341,0.00554546,0.0036355
 1,0.00045053,0.00624896,0.00134887,-0.06977760,0.14579227,-0.22877866,
 0.06718952,-0.32840871,-0.02538775,0.00630030,-0.01717992,0.00868743,-
 0.00122380,0.00969011,0.10695117,-0.11766245,0.73542595,-0.01882205,0.
 00038367,0.00873435,0.00120324,-0.00069321,-0.00043369,-0.00110064,0.0
 0165777,-0.00308945,-0.31739210,0.00857356,0.07333485,0.33845645,0.006
 41779,0.00608701,-0.00129421,-0.00082842,-0.00859122,-0.00170698,0.001
 66385,0.01223135,0.00284769,0.00744202,-0.04025814,0.00151404,-0.01044
 891,0.02732987,-0.02382281,0.00131952,0.00973722,0.00008137,-0.0017643
 2,0.00096270,-0.00303758,0.00285232,-0.00173231,0.07843706,0.00098076,
 -0.08136735,-0.07774731,-0.00259119,0.07590193,0.00889075,0.00430525,-
 0.02536734,-0.00246446,0.00176136,-0.00298908,0.00118581,-0.00084678,0
 .00008064,-0.07433638,-0.00910217,0.06527034,-0.00232840,-0.00408712,0
 .02607571,0.06910505,-0.00158090,0.00542410,0.00627322,0.00175934,0.01
 222917,0.00255156,-0.00070674,-0.00862323,-0.00174627,-0.00807107,-0.0
 4675314,0.04358738,0.00057356,0.00312600,-0.00082397,0.00801751,0.0346
 0208,0.00713453,0.00359934,-0.01728775,-0.00299126,0.00257795,-0.00041
 285,-0.00041836,-0.00171328,0.00095588,0.06014894,0.04401015,-0.318156
 15,-0.00082740,0.00118055,-0.00348428,-0.06310156,-0.04967227,0.338534
 89,-0.00001525,0.00062762,-0.00024670,-0.00014226,-0.00004000,0.000072
 10,-0.00060268,0.00071012,0.00006893,-0.00032931,0.00016194,-0.0006031
 8,-0.00069203,-0.00065452,0.00038499,0.00043079,0.00000002,0.00011449,
 0.97312805,0.00025084,-0.00170907,0.00019540,0.00004381,-0.00001327,-0
 .00001646,0.00023054,-0.00021386,-0.00004497,0.00056242,-0.00167690,0.
 00030874,0.00027184,0.00042137,-0.00016097,-0.00015561,-0.00005658,-0.
 00007244,-0.15539988,0.13559449,-0.00070955,0.00008392,-0.00029230,0.0
 0038567,0.00084515,-0.00056720,0.00013697,-0.00015089,0.00021849,0.000
 01059,-0.00012181,0.00018444,0.00011327,0.00007593,-0.00008152,-0.0001
 1857,-0.00065575,-0.00084922,0.12880437,-0.02300636,0.69100587,-0.0007
 0494,-0.00169601,-0.00044247,0.00010159,0.00024924,0.00003559,-0.00025
 007,0.00032839,0.00003230,0.00137347,-0.00073705,0.00025438,-0.0000980
 2,-0.00021579,0.00019796,-0.00007632,0.00038371,0.00034198,-0.54142317
 ,0.09219359,-0.17700110,0.97439122,-0.00005522,-0.00048658,-0.00016580
 ,-0.00001041,-0.00002140,-0.00003355,-0.00000968,-0.00004776,-0.000015
 61,0.00060605,-0.00120893,0.00042543,-0.00005509,-0.00014147,0.0000298
 4,0.00001107,-0.00004955,-0.00011513,0.08468890,-0.05191615,0.02954742
 ,-0.14853607,0.12912522,0.00009559,-0.00064446,-0.00072844,-0.00018772
 ,0.00015624,-0.00025078,-0.00001745,0.00021538,0.00001581,-0.00059829,
 -0.00023112,0.00110586,0.00021627,0.00032566,0.00027616,0.00075738,-0.
 00050345,-0.00042573,-0.17658419,0.03238086,-0.12905243,0.12941045,-0.
 01990234,0.68498373,-0.00000170,0.00020773,0.00018945,0.00012739,0.000
 09801,-0.00012028,0.00034452,-0.00042300,-0.00000500,-0.00037196,0.000
 20115,0.00020793,0.00040742,0.00026323,-0.00022517,-0.00024700,-0.0001
 2231,-0.00020744,-0.30444557,0.04810028,0.12790957,-0.02243826,0.00499
 023,0.04640029,0.33128047,-0.00018896,-0.00003022,-0.00010229,-0.00007
 457,-0.00005575,0.00005059,-0.00021162,0.00019945,0.00002760,-0.000413
 33,-0.00012193,0.00004499,-0.00011223,-0.00021964,0.00009894,0.0001036
 8,0.00010223,0.00015732,0.05058057,-0.04342138,-0.02356629,0.00266161,
 -0.00061582,-0.00875062,-0.05585905,0.03141262,-0.00004345,-0.00006768
 ,0.00003235,-0.00010680,-0.00017148,0.00015368,-0.00015565,0.00022636,
 -0.00010993,0.00020325,-0.00017365,-0.00033478,-0.00023299,-0.00019609
 ,0.00020084,0.00014589,0.00022981,0.00030195,0.14672619,-0.02586982,-0
 .15964165,-0.00416341,0.00033716,-0.00544698,-0.18741413,0.03380771,0.
 21477548,0.00011398,0.00015246,0.00023545,-0.00004577,-0.00009242,0.00
 004599,0.00011830,-0.00016360,-0.00008023,-0.00006922,0.00020530,-0.00
 009339,0.00011550,0.00010440,-0.00005894,-0.00009535,0.00004484,0.0000
 8356,-0.10999289,0.01377342,-0.08903494,0.00515302,-0.00046686,-0.0376
 7926,0.01324421,-0.00163812,0.03950563,0.09900092,-0.00027226,-0.00019
 199,-0.00023444,0.00006456,0.00016487,-0.00010840,-0.00004649,0.000110
 37,0.00004975,-0.00008096,0.00024003,-0.00017639,-0.00004799,-0.000062
 64,0.00001490,0.00000928,-0.00006190,-0.00004984,0.01522328,-0.0375291
 3,0.01836302,-0.00221396,0.00043623,0.00601128,-0.00148186,0.00530471,
 -0.00737984,-0.01449242,0.02388658,0.00063605,0.00040131,0.00035760,-0
 .00018526,-0.00054749,0.00032042,0.00006045,-0.00010881,-0.00010925,-0
 .00026262,0.00050434,-0.00017215,0.00008440,0.00008165,-0.00015866,-0.
 00013392,0.00026072,0.00040026,-0.10821477,0.01901346,-0.36192456,0.01
 322071,-0.00144332,-0.03381320,0.02092113,-0.00334757,-0.05966586,0.09
 408754,-0.01787608,0.45579471,0.00018397,0.00025549,0.00015511,-0.0000
 1193,-0.00010258,0.00003958,0.00008090,-0.00012232,-0.00000904,-0.0001
 5216,0.00006471,-0.00001076,0.00002885,0.00006360,-0.00014849,-0.00012
 251,-0.00003199,-0.00000958,0.00552379,-0.00167810,-0.03736034,-0.1101
 3776,0.01253073,-0.08886098,-0.00048461,-0.00028713,0.00057416,-0.0071
 0298,0.00333708,-0.00759550,0.09891716,-0.00006869,0.00012483,0.000040
 44,0.00001354,0.00001165,0.00001893,-0.00000779,0.00001982,-0.00000595
 ,0.00001252,0.00017389,-0.00020161,-0.00004245,0.00002954,-0.00001263,
 -0.00006587,0.00004632,0.00006638,-0.00024683,0.00046413,0.00656909,0.
 01229589,-0.03475315,0.01210580,-0.00077848,-0.00323888,0.00007044,0.0
 0317414,0.01109016,0.00112207,-0.01284103,0.02147494,0.00024734,0.0006
 2447,0.00060657,0.00005098,-0.00024893,0.00018992,0.00013133,-0.000267
 52,-0.00004909,0.00008001,0.00001799,-0.00061255,0.00002722,-0.0000438
 4,-0.00024541,-0.00047871,0.00028612,0.00023574,0.01427357,-0.00497114
 ,-0.03324862,-0.10882014,0.01686905,-0.35843826,-0.01253337,0.00281977
 ,0.01417101,-0.00761097,0.00182809,-0.01520060,0.09379780,-0.01305943,
 0.45178049,0.00041016,0.00057005,0.00012124,-0.00005061,-0.00011207,-0
 .00006438,0.00022313,-0.00024623,-0.00000997,-0.00067556,0.00008192,0.
 00016764,0.00022179,0.00027986,-0.00013679,0.00005801,-0.00026597,-0.0
 0026788,-0.02143948,0.00180685,0.04686406,-0.30589076,0.04630635,0.127
 04793,-0.01741491,0.00543913,0.00496131,-0.00043973,0.00000173,-0.0126
 1820,0.01327729,-0.00144496,0.02083496,0.33172067,-0.00004335,0.000076
 83,0.00003488,-0.00001447,0.00002135,0.00000425,-0.00002554,0.00003731
 ,0.00000405,-0.00013852,0.00022365,-0.00010615,-0.00006052,0.00004796,
 0.00005681,0.00004938,0.00001450,0.00003127,0.00434877,0.00005634,-0.0
 0798343,0.04528646,-0.04032065,-0.02116324,0.00480405,0.01068460,-0.00
 081293,-0.00060113,-0.00338729,0.00193972,-0.00118847,0.00455675,-0.00
 385462,-0.05241666,0.02798864,-0.00021820,-0.00026630,-0.00000570,0.00
 006189,0.00000903,0.00008103,-0.00012006,0.00009317,0.00001318,0.00045
 397,-0.00001982,-0.00017476,-0.00017950,-0.00019320,-0.00000932,-0.000
 14078,0.00021289,0.00018726,-0.00479580,0.00224370,-0.00575130,0.14693
 375,-0.02553315,-0.15822575,0.00487703,-0.00124015,-0.00443610,0.00059
 957,-0.00044204,0.01417129,0.03942805,-0.00671353,-0.05918922,-0.18689
 992,0.03184939,0.21333939\\-0.00000367,-0.00000964,-0.00001598,0.00001
 678,-0.00000654,-0.00000791,0.00000228,0.,-0.00002346,-0.00000355,0.00
 000305,-0.00000099,0.00000533,0.00000174,0.00000083,-0.00002051,0.0000
 0624,-0.00000781,-0.00001281,0.00000152,0.00001122,0.00000393,0.000002
 92,0.00001820,0.00000494,0.00000127,-0.00001455,0.00001480,-0.00000697
 ,-0.00000080,-0.00001727,0.00000794,0.00001345,0.00000975,-0.00000154,
 0.00002779\\\@


 A people that values its privileges above its principles soon loses both.
 -- Dwight D. Eisenhower
 Job cpu time:       0 days 10 hours 22 minutes 42.2 seconds.
 File lengths (MBytes):  RWF=    218 Int=      0 D2E=      0 Chk=     17 Scr=      1
 Normal termination of Gaussian 09 at Thu Nov 17 04:08:47 2016.
