 Entering Gaussian System, Link 0=g09
 Initial command:
 /cluster/software/gaussian/gaussian-09-D.01/g09/l1.exe "/local/scratch/maxb2/Gau-9260.inp" -scrdir="/local/scratch/maxb2/"
 Entering Link 1 = /cluster/software/gaussian/gaussian-09-D.01/g09/l1.exe PID=      9261.
  
 Copyright (c) 1988,1990,1992,1993,1995,1998,2003,2009,2013,
            Gaussian, Inc.  All Rights Reserved.
  
 This is part of the Gaussian(R) 09 program.  It is based on
 the Gaussian(R) 03 system (copyright 2003, Gaussian, Inc.),
 the Gaussian(R) 98 system (copyright 1998, Gaussian, Inc.),
 the Gaussian(R) 94 system (copyright 1995, Gaussian, Inc.),
 the Gaussian 92(TM) system (copyright 1992, Gaussian, Inc.),
 the Gaussian 90(TM) system (copyright 1990, Gaussian, Inc.),
 the Gaussian 88(TM) system (copyright 1988, Gaussian, Inc.),
 the Gaussian 86(TM) system (copyright 1986, Carnegie Mellon
 University), and the Gaussian 82(TM) system (copyright 1983,
 Carnegie Mellon University). Gaussian is a federally registered
 trademark of Gaussian, Inc.
  
 This software contains proprietary and confidential information,
 including trade secrets, belonging to Gaussian, Inc.
  
 This software is provided under written license and may be
 used, copied, transmitted, or stored only in accord with that
 written license.
  
 The following legend is applicable only to US Government
 contracts under FAR:
  
                    RESTRICTED RIGHTS LEGEND
  
 Use, reproduction and disclosure by the US Government is
 subject to restrictions as set forth in subparagraphs (a)
 and (c) of the Commercial Computer Software - Restricted
 Rights clause in FAR 52.227-19.
  
 Gaussian, Inc.
 340 Quinnipiac St., Bldg. 40, Wallingford CT 06492
  
  
 ---------------------------------------------------------------
 Warning -- This program may not be used in any manner that
 competes with the business of Gaussian, Inc. or will provide
 assistance to any competitor of Gaussian, Inc.  The licensee
 of this program is prohibited from giving any competitor of
 Gaussian, Inc. access to this program.  By using this program,
 the user acknowledges that Gaussian, Inc. is engaged in the
 business of creating and licensing software in the field of
 computational chemistry and represents and warrants to the
 licensee that it is not a competitor of Gaussian, Inc. and that
 it will not use this program in any manner prohibited above.
 ---------------------------------------------------------------
  

 Cite this work as:
 Gaussian 09, Revision D.01,
 M. J. Frisch, G. W. Trucks, H. B. Schlegel, G. E. Scuseria, 
 M. A. Robb, J. R. Cheeseman, G. Scalmani, V. Barone, B. Mennucci, 
 G. A. Petersson, H. Nakatsuji, M. Caricato, X. Li, H. P. Hratchian, 
 A. F. Izmaylov, J. Bloino, G. Zheng, J. L. Sonnenberg, M. Hada, 
 M. Ehara, K. Toyota, R. Fukuda, J. Hasegawa, M. Ishida, T. Nakajima, 
 Y. Honda, O. Kitao, H. Nakai, T. Vreven, J. A. Montgomery, Jr., 
 J. E. Peralta, F. Ogliaro, M. Bearpark, J. J. Heyd, E. Brothers, 
 K. N. Kudin, V. N. Staroverov, T. Keith, R. Kobayashi, J. Normand, 
 K. Raghavachari, A. Rendell, J. C. Burant, S. S. Iyengar, J. Tomasi, 
 M. Cossi, N. Rega, J. M. Millam, M. Klene, J. E. Knox, J. B. Cross, 
 V. Bakken, C. Adamo, J. Jaramillo, R. Gomperts, R. E. Stratmann, 
 O. Yazyev, A. J. Austin, R. Cammi, C. Pomelli, J. W. Ochterski, 
 R. L. Martin, K. Morokuma, V. G. Zakrzewski, G. A. Voth, 
 P. Salvador, J. J. Dannenberg, S. Dapprich, A. D. Daniels, 
 O. Farkas, J. B. Foresman, J. V. Ortiz, J. Cioslowski, 
 and D. J. Fox, Gaussian, Inc., Wallingford CT, 2013.
 
 ******************************************
 Gaussian 09:  ES64L-G09RevD.01 24-Apr-2013
                30-Sep-2016 
 ******************************************
 %nosave
 %mem=6GB
 %nprocshared=2
 Will use up to    2 processors via shared memory.
 %chk=HNC180CISDfc
 ----------------------------------------
 # opt=tight freq CISD(fc)/6-311++g** gfp
 ----------------------------------------
 1/7=10,18=20,19=15,38=1/1,3;
 2/9=110,12=2,17=6,18=5,40=1/2;
 3/5=4,6=6,7=1111,11=9,16=1,24=100,25=1,30=1,71=1/1,2,3;
 4//1;
 5/5=2,38=5/2;
 8/6=4,9=120000,10=2/1,4;
 9/15=1/13;
 11/28=-4,29=200,42=3/11;
 10/5=3/2;
 6/7=2,8=2,9=2,10=2/1;
 7/12=6/1,2,3,16;
 1/7=10,18=20,19=15/3(2);
 2/9=110/2;
 99//99;
 2/9=110/2;
 3/5=4,6=6,7=1111,11=9,16=1,25=1,30=1,71=1/1,2,3;
 4/5=5,16=3,69=1/1;
 5/5=2,38=5/2;
 8/6=4,9=120000,10=2/1,4;
 9/15=1/13;
 11/28=-4,29=200,42=3/11;
 10/5=3/2;
 7/12=6/1,2,3,16;
 1/7=10,18=20,19=15/3(-9);
 2/9=110/2;
 6/7=2,8=2,9=2,10=2/1;
 99//99;
 -------
 HNC-HCN
 -------
 Symbolic Z-matrix:
 Charge =  0 Multiplicity = 1
 N
 C                    1    B1
 H                    2    B2       1    A1
       Variables:
  B1                    1.                       
  B2                    1.                       
  A1                  180.                       
 

 GradGradGradGradGradGradGradGradGradGradGradGradGradGradGradGradGradGrad
 Berny optimization.
 Initialization pass.
                           ----------------------------
                           !    Initial Parameters    !
                           ! (Angstroms and Degrees)  !
 --------------------------                            --------------------------
 ! Name  Definition              Value          Derivative Info.                !
 --------------------------------------------------------------------------------
 ! R1    R(1,2)                  1.0            estimate D2E/DX2                !
 ! R2    R(2,3)                  1.0            estimate D2E/DX2                !
 ! A1    L(1,2,3,-1,-1)        180.0            estimate D2E/DX2                !
 ! A2    L(1,2,3,-2,-2)        180.0            estimate D2E/DX2                !
 --------------------------------------------------------------------------------
 Trust Radius=3.00D-01 FncErr=1.00D-07 GrdErr=1.00D-07
 Number of steps in this run=     20 maximum allowed number of steps=    100.
 GradGradGradGradGradGradGradGradGradGradGradGradGradGradGradGradGradGrad

                          Input orientation:                          
 ---------------------------------------------------------------------
 Center     Atomic      Atomic             Coordinates (Angstroms)
 Number     Number       Type             X           Y           Z
 ---------------------------------------------------------------------
      1          7           0        0.000000    0.000000    0.000000
      2          6           0        0.000000    0.000000    1.000000
      3          1           0        0.000000    0.000000    2.000000
 ---------------------------------------------------------------------
                    Distance matrix (angstroms):
                    1          2          3
     1  N    0.000000
     2  C    1.000000   0.000000
     3  H    2.000000   1.000000   0.000000
 Stoichiometry    CHN
 Framework group  C*V[C*(HCN)]
 Deg. of freedom     2
 Full point group                 C*V     NOp   4
 Largest Abelian subgroup         C2V     NOp   4
 Largest concise Abelian subgroup C1      NOp   1
                         Standard orientation:                         
 ---------------------------------------------------------------------
 Center     Atomic      Atomic             Coordinates (Angstroms)
 Number     Number       Type             X           Y           Z
 ---------------------------------------------------------------------
      1          7           0        0.000000    0.000000    0.571429
      2          6           0        0.000000    0.000000   -0.428571
      3          1           0        0.000000    0.000000   -1.428571
 ---------------------------------------------------------------------
 Rotational constants (GHZ):      0.0000000     57.6999809     57.6999809
 Standard basis: 6-311++G(d,p) (5D, 7F)
 AO basis set (Overlap normalization):
 Atom N1       Shell     1 S   6     bf    1 -     1          0.000000000000          0.000000000000          1.079843504506
      0.6293480000D+04  0.1969788147D-02
      0.9490440000D+03  0.1496128592D-01
      0.2187760000D+03  0.7350053084D-01
      0.6369160000D+02  0.2489367658D+00
      0.1882820000D+02  0.6024594331D+00
      0.2720230000D+01  0.2562017589D+00
 Atom N1       Shell     2 SP   3    bf    2 -     5          0.000000000000          0.000000000000          1.079843504506
      0.3063310000D+02  0.1119060795D+00  0.3831191864D-01
      0.7026140000D+01  0.9216666549D+00  0.2374031155D+00
      0.2112050000D+01 -0.2569191826D-02  0.8175923978D+00
 Atom N1       Shell     3 SP   1    bf    6 -     9          0.000000000000          0.000000000000          1.079843504506
      0.6840090000D+00  0.1000000000D+01  0.1000000000D+01
 Atom N1       Shell     4 SP   1    bf   10 -    13          0.000000000000          0.000000000000          1.079843504506
      0.2008780000D+00  0.1000000000D+01  0.1000000000D+01
 Atom N1       Shell     5 SP   1    bf   14 -    17          0.000000000000          0.000000000000          1.079843504506
      0.6390000000D-01  0.1000000000D+01  0.1000000000D+01
 Atom N1       Shell     6 D   1     bf   18 -    22          0.000000000000          0.000000000000          1.079843504506
      0.9130000000D+00  0.1000000000D+01
 Atom C2       Shell     7 S   6     bf   23 -    23          0.000000000000          0.000000000000         -0.809882628380
      0.4563240000D+04  0.1966650249D-02
      0.6820240000D+03  0.1523060193D-01
      0.1549730000D+03  0.7612690966D-01
      0.4445530000D+02  0.2608010331D+00
      0.1302900000D+02  0.6164620782D+00
      0.1827730000D+01  0.2210060280D+00
 Atom C2       Shell     8 SP   3    bf   24 -    27          0.000000000000          0.000000000000         -0.809882628380
      0.2096420000D+02  0.1146600807D+00  0.4024869267D-01
      0.4803310000D+01  0.9199996477D+00  0.2375939567D+00
      0.1459330000D+01 -0.3030682134D-02  0.8158538515D+00
 Atom C2       Shell     9 SP   1    bf   28 -    31          0.000000000000          0.000000000000         -0.809882628380
      0.4834560000D+00  0.1000000000D+01  0.1000000000D+01
 Atom C2       Shell    10 SP   1    bf   32 -    35          0.000000000000          0.000000000000         -0.809882628380
      0.1455850000D+00  0.1000000000D+01  0.1000000000D+01
 Atom C2       Shell    11 SP   1    bf   36 -    39          0.000000000000          0.000000000000         -0.809882628380
      0.4380000000D-01  0.1000000000D+01  0.1000000000D+01
 Atom C2       Shell    12 D   1     bf   40 -    44          0.000000000000          0.000000000000         -0.809882628380
      0.6260000000D+00  0.1000000000D+01
 Atom H3       Shell    13 S   3     bf   45 -    45          0.000000000000          0.000000000000         -2.699608761265
      0.3386500000D+02  0.2549381454D-01
      0.5094790000D+01  0.1903731086D+00
      0.1158790000D+01  0.8521614860D+00
 Atom H3       Shell    14 S   1     bf   46 -    46          0.000000000000          0.000000000000         -2.699608761265
      0.3258400000D+00  0.1000000000D+01
 Atom H3       Shell    15 S   1     bf   47 -    47          0.000000000000          0.000000000000         -2.699608761265
      0.1027410000D+00  0.1000000000D+01
 Atom H3       Shell    16 S   1     bf   48 -    48          0.000000000000          0.000000000000         -2.699608761265
      0.3600000000D-01  0.1000000000D+01
 Atom H3       Shell    17 P   1     bf   49 -    51          0.000000000000          0.000000000000         -2.699608761265
      0.7500000000D+00  0.1000000000D+01
 There are    29 symmetry adapted cartesian basis functions of A1  symmetry.
 There are     2 symmetry adapted cartesian basis functions of A2  symmetry.
 There are    11 symmetry adapted cartesian basis functions of B1  symmetry.
 There are    11 symmetry adapted cartesian basis functions of B2  symmetry.
 There are    27 symmetry adapted basis functions of A1  symmetry.
 There are     2 symmetry adapted basis functions of A2  symmetry.
 There are    11 symmetry adapted basis functions of B1  symmetry.
 There are    11 symmetry adapted basis functions of B2  symmetry.
    51 basis functions,    81 primitive gaussians,    53 cartesian basis functions
     7 alpha electrons        7 beta electrons
       nuclear repulsion energy        27.2526262424 Hartrees.
 NAtoms=    3 NActive=    3 NUniq=    3 SFac= 1.00D+00 NAtFMM=   60 NAOKFM=F Big=F
 Integral buffers will be    131072 words long.
 Raffenetti 1 integral format.
 Two-electron integral symmetry is turned on.
 One-electron integrals computed using PRISM.
 NBasis=    51 RedAO= T EigKep=  1.36D-03  NBF=    27     2    11    11
 NBsUse=    51 1.00D-06 EigRej= -1.00D+00 NBFU=    27     2    11    11
 ExpMin= 3.60D-02 ExpMax= 6.29D+03 ExpMxC= 9.49D+02 IAcc=3 IRadAn=         5 AccDes= 0.00D+00
 Harris functional with IExCor=  205 and IRadAn=       5 diagonalized for initial guess.
 HarFok:  IExCor=  205 AccDes= 0.00D+00 IRadAn=         5 IDoV= 1 UseB2=F ITyADJ=14
 ICtDFT=  3500011 ScaDFX=  1.000000  1.000000  1.000000  1.000000
 FoFCou: FMM=F IPFlag=           0 FMFlag=      100000 FMFlg1=           0
         NFxFlg=           0 DoJE=T BraDBF=F KetDBF=T FulRan=T
         wScrn=  0.000000 ICntrl=     500 IOpCl=  0 I1Cent=   200000004 NGrid=           0
         NMat0=    1 NMatS0=      1 NMatT0=    0 NMatD0=    1 NMtDS0=    0 NMtDT0=    0
 Petite list used in FoFCou.
 Initial guess orbital symmetries:
       Occupied  (SG) (SG) (SG) (SG) (PI) (PI) (SG)
       Virtual   (PI) (PI) (SG) (SG) (PI) (PI) (SG) (SG) (PI) (PI)
                 (SG) (SG) (SG) (PI) (PI) (SG) (SG) (PI) (PI) (SG)
                 (SG) (DLTA) (DLTA) (PI) (PI) (SG) (PI) (PI) (DLTA)
                 (DLTA) (SG) (SG) (PI) (PI) (SG) (PI) (PI) (SG)
                 (SG) (PI) (PI) (SG) (SG) (SG)
 The electronic state of the initial guess is 1-SG.
 Keep R1 ints in memory in symmetry-blocked form, NReq=1746683.
 Requested convergence on RMS density matrix=1.00D-08 within 128 cycles.
 Requested convergence on MAX density matrix=1.00D-06.
 Requested convergence on             energy=1.00D-06.
 No special actions if energy rises.
 SCF Done:  E(RHF) =  -92.8403099216     A.U. after   10 cycles
            NFock= 10  Conv=0.53D-08     -V/T= 1.9882
 ExpMin= 3.60D-02 ExpMax= 6.29D+03 ExpMxC= 9.49D+02 IAcc=3 IRadAn=         5 AccDes= 0.00D+00
 HarFok:  IExCor=  205 AccDes= 0.00D+00 IRadAn=         5 IDoV=-2 UseB2=F ITyADJ=14
 ICtDFT= 12500011 ScaDFX=  1.000000  1.000000  1.000000  1.000000
 Range of M.O.s used for correlation:     3    51
 NBasis=    51 NAE=     7 NBE=     7 NFC=     2 NFV=     0
 NROrb=     49 NOA=     5 NOB=     5 NVA=    44 NVB=    44

 **** Warning!!: The largest alpha MO coefficient is  0.11889594D+02

 Semi-Direct transformation.
 ModeAB=           2 MOrb=             5 LenV=     805105396
 LASXX=        74437 LTotXX=       74437 LenRXX=       74437
 LTotAB=       80677 MaxLAS=      350595 LenRXY=      350595
 NonZer=      370440 LenScr=     1111040 LnRSAI=           0
 LnScr1=           0 LExtra=           0 Total=      1536072
 MaxDsk=          -1 SrtSym=           F ITran=            4
 JobTyp=0 Pass  1:  I=   1 to   5.
 (rs|ai) integrals will be sorted in core.
 Spin components of T(2) and E(2):
     alpha-alpha T2 =       0.1105226939D-01 E2=     -0.3474290277D-01
     alpha-beta  T2 =       0.6468148541D-01 E2=     -0.2050936195D+00
     beta-beta   T2 =       0.1105226939D-01 E2=     -0.3474290277D-01
 ANorm=    0.1042490299D+01
 E2 =    -0.2745794250D+00 EUMP2 =    -0.93114889346643D+02
 Keep R2 and R3 ints in memory in symmetry-blocked form, NReq=1705586.
 Iterations=  50 Convergence= 0.100D-07
 Iteration Nr.   1
 **********************
 DD1Dir will call FoFMem   1 times, MxPair=        30
 NAB=    15 NAA=     0 NBB=     0.
 E3=       -0.77572193D-02        EUMP3=      -0.93122646566D+02
 DE(CI)=     -0.26017653     E(CI)=       -93.100486454    
 NORM(A)=   0.10383560D+01
 Iteration Nr.   2
 **********************
 DD1Dir will call FoFMem   1 times, MxPair=        30
 NAB=    15 NAA=     0 NBB=     0.
 DE(CI)=     -0.26787376     E(CI)=       -93.108183686    
 NORM(A)=   0.10411871D+01
 Iteration Nr.   3
 **********************
 DD1Dir will call FoFMem   1 times, MxPair=        30
 NAB=    15 NAA=     0 NBB=     0.
 DE(CI)=     -0.26847939     E(CI)=       -93.108789311    
 NORM(A)=   0.10417563D+01
 Iteration Nr.   4
 **********************
 DD1Dir will call FoFMem   1 times, MxPair=        30
 NAB=    15 NAA=     0 NBB=     0.
 DE(CI)=     -0.26888529     E(CI)=       -93.109195207    
 NORM(A)=   0.10418777D+01
 Iteration Nr.   5
 **********************
 DD1Dir will call FoFMem   1 times, MxPair=        30
 NAB=    15 NAA=     0 NBB=     0.
 DE(CI)=     -0.26891270     E(CI)=       -93.109222617    
 NORM(A)=   0.10418735D+01
 Iteration Nr.   6
 **********************
 DD1Dir will call FoFMem   1 times, MxPair=        30
 NAB=    15 NAA=     0 NBB=     0.
 DE(CI)=     -0.26891062     E(CI)=       -93.109220547    
 NORM(A)=   0.10418709D+01
 Iteration Nr.   7
 **********************
 DD1Dir will call FoFMem   1 times, MxPair=        30
 NAB=    15 NAA=     0 NBB=     0.
 DE(CI)=     -0.26890964     E(CI)=       -93.109219559    
 NORM(A)=   0.10418720D+01
 Iteration Nr.   8
 **********************
 DD1Dir will call FoFMem   1 times, MxPair=        30
 NAB=    15 NAA=     0 NBB=     0.
 DE(CI)=     -0.26890988     E(CI)=       -93.109219799    
 NORM(A)=   0.10418721D+01
 Iteration Nr.   9
 **********************
 DD1Dir will call FoFMem   1 times, MxPair=        30
 NAB=    15 NAA=     0 NBB=     0.
 DE(CI)=     -0.26890996     E(CI)=       -93.109219878    
 NORM(A)=   0.10418721D+01
 Iteration Nr.  10
 **********************
 DD1Dir will call FoFMem   1 times, MxPair=        30
 NAB=    15 NAA=     0 NBB=     0.
 DE(CI)=     -0.26890994     E(CI)=       -93.109219863    
 NORM(A)=   0.10418721D+01
 Iteration Nr.  11
 **********************
 DD1Dir will call FoFMem   1 times, MxPair=        30
 NAB=    15 NAA=     0 NBB=     0.
 DE(CI)=     -0.26890995     E(CI)=       -93.109219868    
 NORM(A)=   0.10418721D+01
 ***************************************************************
 Largest amplitude= 4.17D-02
 Discarding MO integrals.
          IDoAtm=111
          Differentiating once with respect to electric field.
                with respect to dipole field.
          Differentiating once with respect to nuclear coordinates.
 Keep R1 ints in memory in symmetry-blocked form, NReq=1726980.
          There are     1 degrees of freedom in the 1st order CPHF.  IDoFFX=0 NUNeed=     1.
 LinEq1:  Iter=  0 NonCon=     1 RMS=4.71D-03 Max=2.53D-02 NDo=     1
 AX will form     1 AO Fock derivatives at one time.
 LinEq1:  Iter=  1 NonCon=     1 RMS=1.09D-03 Max=6.46D-03 NDo=     1
 LinEq1:  Iter=  2 NonCon=     1 RMS=2.39D-04 Max=1.32D-03 NDo=     1
 LinEq1:  Iter=  3 NonCon=     1 RMS=3.46D-05 Max=2.64D-04 NDo=     1
 LinEq1:  Iter=  4 NonCon=     1 RMS=4.89D-06 Max=2.61D-05 NDo=     1
 LinEq1:  Iter=  5 NonCon=     1 RMS=2.12D-06 Max=1.09D-05 NDo=     1
 LinEq1:  Iter=  6 NonCon=     1 RMS=2.90D-07 Max=1.36D-06 NDo=     1
 LinEq1:  Iter=  7 NonCon=     1 RMS=2.95D-08 Max=1.90D-07 NDo=     1
 LinEq1:  Iter=  8 NonCon=     1 RMS=2.97D-09 Max=1.55D-08 NDo=     1
 LinEq1:  Iter=  9 NonCon=     1 RMS=2.18D-10 Max=1.82D-09 NDo=     1
 LinEq1:  Iter= 10 NonCon=     0 RMS=1.97D-11 Max=1.39D-10 NDo=     1
 Linear equations converged to 1.000D-10 1.000D-09 after    10 iterations.
 End of Minotr F.D. properties file   721 does not exist.
 End of Minotr F.D. properties file   722 does not exist.
 End of Minotr F.D. properties file   788 does not exist.

 **********************************************************************

            Population analysis using the SCF density.

 **********************************************************************

 Orbital symmetries:
       Occupied  (SG) (SG) (SG) (SG) (SG) (PI) (PI)
       Virtual   (SG) (SG) (PI) (PI) (SG) (PI) (PI) (SG) (SG) (PI)
                 (PI) (SG) (SG) (PI) (PI) (SG) (SG) (SG) (PI) (PI)
                 (PI) (PI) (DLTA) (DLTA) (SG) (SG) (PI) (PI) (SG)
                 (DLTA) (DLTA) (SG) (PI) (PI) (SG) (PI) (PI) (SG)
                 (SG) (PI) (PI) (SG) (SG) (SG)
 The electronic state is 1-SG.
 Alpha  occ. eigenvalues --  -15.54607 -11.23453  -1.31232  -0.81725  -0.57160
 Alpha  occ. eigenvalues --   -0.55261  -0.55261
 Alpha virt. eigenvalues --    0.03686   0.08838   0.09217   0.09217   0.16510
 Alpha virt. eigenvalues --    0.20414   0.20414   0.21618   0.30332   0.30638
 Alpha virt. eigenvalues --    0.30638   0.35131   0.55987   0.71048   0.71048
 Alpha virt. eigenvalues --    0.73690   0.99844   1.00638   1.07706   1.07706
 Alpha virt. eigenvalues --    1.47805   1.47805   1.48321   1.48321   1.50343
 Alpha virt. eigenvalues --    1.55023   2.24905   2.24905   2.46313   2.46360
 Alpha virt. eigenvalues --    2.46360   2.79062   3.09986   3.09986   3.25696
 Alpha virt. eigenvalues --    3.35783   3.35783   3.46501   4.24878   4.52563
 Alpha virt. eigenvalues --    4.52563   5.29982  25.85014  37.66943
          Condensed to atoms (all electrons):
               1          2          3
     1  N    6.721346   0.752832  -0.033488
     2  C    0.752832   4.583417   0.416703
     3  H   -0.033488   0.416703   0.423144
 Mulliken charges:
               1
     1  N   -0.440690
     2  C    0.247048
     3  H    0.193641
 Sum of Mulliken charges =   0.00000
 Mulliken charges with hydrogens summed into heavy atoms:
               1
     1  N   -0.440690
     2  C    0.440690
 Electronic spatial extent (au):  <R**2>=             43.4510
 Charge=              0.0000 electrons
 Dipole moment (field-independent basis, Debye):
    X=              0.0000    Y=              0.0000    Z=             -3.1112  Tot=              3.1112
 Quadrupole moment (field-independent basis, Debye-Ang):
   XX=            -11.1594   YY=            -11.1594   ZZ=            -10.0497
   XY=              0.0000   XZ=              0.0000   YZ=              0.0000
 Traceless Quadrupole moment (field-independent basis, Debye-Ang):
   XX=             -0.3699   YY=             -0.3699   ZZ=              0.7398
   XY=              0.0000   XZ=              0.0000   YZ=              0.0000
 Octapole moment (field-independent basis, Debye-Ang**2):
  XXX=              0.0000  YYY=              0.0000  ZZZ=             -6.8525  XYY=              0.0000
  XXY=              0.0000  XXZ=             -0.5022  XZZ=              0.0000  YZZ=              0.0000
  YYZ=             -0.5022  XYZ=              0.0000
 Hexadecapole moment (field-independent basis, Debye-Ang**3):
 XXXX=            -10.5832 YYYY=            -10.5832 ZZZZ=            -30.8769 XXXY=              0.0000
 XXXZ=              0.0000 YYYX=              0.0000 YYYZ=              0.0000 ZZZX=              0.0000
 ZZZY=              0.0000 XXYY=             -3.5277 XXZZ=             -7.6418 YYZZ=             -7.6418
 XXYZ=              0.0000 YYXZ=              0.0000 ZZXY=              0.0000
 N-N= 2.725262624238D+01 E-N=-2.729590381460D+02  KE= 9.394713962298D+01
 Symmetry A1   KE= 8.814154274862D+01
 Symmetry A2   KE= 0.000000000000D+00
 Symmetry B1   KE= 2.902798437180D+00
 Symmetry B2   KE= 2.902798437180D+00
 Calling FoFJK, ICntrl=  10002127 FMM=F ISym2X=1 I1Cent= 0 IOpClX= 0 NMat=1 NMatS=1 NMatT=0.
 ***** Axes restored to original set *****
 -------------------------------------------------------------------
 Center     Atomic                   Forces (Hartrees/Bohr)
 Number     Number              X              Y              Z
 -------------------------------------------------------------------
      1        7           0.000000000    0.000000000   -0.609657821
      2        6           0.000000000    0.000000000    0.551706464
      3        1           0.000000000    0.000000000    0.057951358
 -------------------------------------------------------------------
 Cartesian Forces:  Max     0.609657821 RMS     0.274756668

 GradGradGradGradGradGradGradGradGradGradGradGradGradGradGradGradGradGrad
 Berny optimization.
 FormGI is forming the generalized inverse of G from B-inverse, IUseBI=4.
 Internal  Forces:  Max     0.609657821 RMS     0.306202963
 Search for a local minimum.
 Step number   1 out of a maximum of   20
 All quantities printed in internal units (Hartrees-Bohrs-Radians)
 Mixed Optimization -- RFO/linear search
 Second derivative matrix not updated -- first step.
 The second derivative matrix:
                          R1        R2        A1        A2
           R1           3.32740
           R2           0.00000   0.47688
           A1           0.00000   0.00000   0.01425
           A2           0.00000   0.00000   0.00000   0.01425
 ITU=  0
     Eigenvalues ---    0.01425   0.01425   0.47688   3.32740
 RFO step:  Lambda=-1.13699342D-01 EMin= 1.42535752D-02
 Linear search not attempted -- first point.
 Iteration  1 RMS(Cart)=  0.09865987 RMS(Int)=  0.00000000
 Iteration  2 RMS(Cart)=  0.00000000 RMS(Int)=  0.00000000
 ClnCor:  largest displacement from symmetrization is 4.44D-16 for atom     3.
 Variable       Old X    -DE/DX   Delta X   Delta X   Delta X     New X
                                 (Linear)    (Quad)   (Total)
    R1        1.88973   0.60966   0.00000   0.17717   0.17717   2.06690
    R2        1.88973   0.05795   0.00000   0.09813   0.09813   1.98785
    A1        3.14159   0.00000   0.00000   0.00000   0.00000   3.14159
    A2        3.14159   0.00000   0.00000   0.00000   0.00000   3.14159
         Item               Value     Threshold  Converged?
 Maximum Force            0.609658     0.000015     NO 
 RMS     Force            0.306203     0.000010     NO 
 Maximum Displacement     0.150822     0.000060     NO 
 RMS     Displacement     0.098660     0.000040     NO 
 Predicted change in Energy=-5.918152D-02
 GradGradGradGradGradGradGradGradGradGradGradGradGradGradGradGradGradGrad

                          Input orientation:                          
 ---------------------------------------------------------------------
 Center     Atomic      Atomic             Coordinates (Angstroms)
 Number     Number       Type             X           Y           Z
 ---------------------------------------------------------------------
      1          7           0        0.000000    0.000000   -0.079811
      2          6           0        0.000000    0.000000    1.013943
      3          1           0        0.000000    0.000000    2.065869
 ---------------------------------------------------------------------
                    Distance matrix (angstroms):
                    1          2          3
     1  N    0.000000
     2  C    1.093754   0.000000
     3  H    2.145680   1.051926   0.000000
 Stoichiometry    CHN
 Framework group  C*V[C*(HCN)]
 Deg. of freedom     2
 Full point group                 C*V     NOp   4
 Largest Abelian subgroup         C2V     NOp   4
 Largest concise Abelian subgroup C1      NOp   1
                         Standard orientation:                         
 ---------------------------------------------------------------------
 Center     Atomic      Atomic             Coordinates (Angstroms)
 Number     Number       Type             X           Y           Z
 ---------------------------------------------------------------------
      1          7           0        0.000000    0.000000    0.622015
      2          6           0        0.000000    0.000000   -0.471739
      3          1           0        0.000000    0.000000   -1.523665
 ---------------------------------------------------------------------
 Rotational constants (GHZ):      0.0000000     48.8611001     48.8611001
 Standard basis: 6-311++G(d,p) (5D, 7F)
 There are    29 symmetry adapted cartesian basis functions of A1  symmetry.
 There are     2 symmetry adapted cartesian basis functions of A2  symmetry.
 There are    11 symmetry adapted cartesian basis functions of B1  symmetry.
 There are    11 symmetry adapted cartesian basis functions of B2  symmetry.
 There are    27 symmetry adapted basis functions of A1  symmetry.
 There are     2 symmetry adapted basis functions of A2  symmetry.
 There are    11 symmetry adapted basis functions of B1  symmetry.
 There are    11 symmetry adapted basis functions of B2  symmetry.
    51 basis functions,    81 primitive gaussians,    53 cartesian basis functions
     7 alpha electrons        7 beta electrons
       nuclear repulsion energy        25.0650334115 Hartrees.
 NAtoms=    3 NActive=    3 NUniq=    3 SFac= 1.00D+00 NAtFMM=   60 NAOKFM=F Big=F
 Integral buffers will be    131072 words long.
 Raffenetti 1 integral format.
 Two-electron integral symmetry is turned on.
 One-electron integrals computed using PRISM.
 NBasis=    51 RedAO= T EigKep=  2.11D-03  NBF=    27     2    11    11
 NBsUse=    51 1.00D-06 EigRej= -1.00D+00 NBFU=    27     2    11    11
 Initial guess from the checkpoint file:  "HNC180CISDfc.chk"
 B after Tr=     0.000000    0.000000    0.000000
         Rot=    1.000000    0.000000    0.000000    0.000000 Ang=   0.00 deg.
 Initial guess orbital symmetries:
       Occupied  (SG) (SG) (SG) (SG) (SG) (PI) (PI)
       Virtual   (SG) (SG) (SG) (SG) (SG) (SG) (SG) (DLTA) (SG)
                 (SG) (SG) (DLTA) (SG) (SG) (SG) (SG) (SG) (SG)
                 (SG) (SG) (SG) (SG) (DLTA) (DLTA) (PI) (PI) (PI)
                 (PI) (PI) (PI) (PI) (PI) (PI) (PI) (PI) (PI) (PI)
                 (PI) (PI) (PI) (PI) (PI) (PI) (PI)
 ExpMin= 3.60D-02 ExpMax= 6.29D+03 ExpMxC= 9.49D+02 IAcc=3 IRadAn=         5 AccDes= 0.00D+00
 Harris functional with IExCor=  205 and IRadAn=       5 diagonalized for initial guess.
 HarFok:  IExCor=  205 AccDes= 0.00D+00 IRadAn=         5 IDoV= 1 UseB2=F ITyADJ=14
 ICtDFT=  3500011 ScaDFX=  1.000000  1.000000  1.000000  1.000000
 FoFCou: FMM=F IPFlag=           0 FMFlag=      100000 FMFlg1=           0
         NFxFlg=           0 DoJE=T BraDBF=F KetDBF=T FulRan=T
         wScrn=  0.000000 ICntrl=     500 IOpCl=  0 I1Cent=   200000004 NGrid=           0
         NMat0=    1 NMatS0=      1 NMatT0=    0 NMatD0=    1 NMtDS0=    0 NMtDT0=    0
 Petite list used in FoFCou.
 Keep R1 ints in memory in symmetry-blocked form, NReq=1746638.
 Requested convergence on RMS density matrix=1.00D-08 within 128 cycles.
 Requested convergence on MAX density matrix=1.00D-06.
 Requested convergence on             energy=1.00D-06.
 No special actions if energy rises.
 SCF Done:  E(RHF) =  -92.8981530444     A.U. after   11 cycles
            NFock= 11  Conv=0.24D-08     -V/T= 1.9978
 ExpMin= 3.60D-02 ExpMax= 6.29D+03 ExpMxC= 9.49D+02 IAcc=3 IRadAn=         5 AccDes= 0.00D+00
 HarFok:  IExCor=  205 AccDes= 0.00D+00 IRadAn=         5 IDoV=-2 UseB2=F ITyADJ=14
 ICtDFT= 12500011 ScaDFX=  1.000000  1.000000  1.000000  1.000000
 Range of M.O.s used for correlation:     3    51
 NBasis=    51 NAE=     7 NBE=     7 NFC=     2 NFV=     0
 NROrb=     49 NOA=     5 NOB=     5 NVA=    44 NVB=    44

 **** Warning!!: The largest alpha MO coefficient is  0.10204161D+02

 Semi-Direct transformation.
 ModeAB=           2 MOrb=             5 LenV=     805105455
 LASXX=        74437 LTotXX=       74437 LenRXX=       74437
 LTotAB=       80677 MaxLAS=      350595 LenRXY=      350595
 NonZer=      370440 LenScr=     1111040 LnRSAI=           0
 LnScr1=           0 LExtra=           0 Total=      1536072
 MaxDsk=          -1 SrtSym=           F ITran=            4
 JobTyp=0 Pass  1:  I=   1 to   5.
 (rs|ai) integrals will be sorted in core.
 Spin components of T(2) and E(2):
     alpha-alpha T2 =       0.1301876432D-01 E2=     -0.3699954237D-01
     alpha-beta  T2 =       0.7539911553D-01 E2=     -0.2170768471D+00
     beta-beta   T2 =       0.1301876432D-01 E2=     -0.3699954237D-01
 ANorm=    0.1049493518D+01
 E2 =    -0.2910759318D+00 EUMP2 =    -0.93189228976238D+02
 Keep R2 and R3 ints in memory in symmetry-blocked form, NReq=1705586.
 Iterations=  50 Convergence= 0.100D-07
 Iteration Nr.   1
 **********************
 DD1Dir will call FoFMem   1 times, MxPair=        30
 NAB=    15 NAA=     0 NBB=     0.
 E3=       -0.29671182D-02        EUMP3=      -0.93192196094D+02
 DE(CI)=     -0.26766089     E(CI)=       -93.165813935    
 NORM(A)=   0.10421780D+01
 Iteration Nr.   2
 **********************
 DD1Dir will call FoFMem   1 times, MxPair=        30
 NAB=    15 NAA=     0 NBB=     0.
 DE(CI)=     -0.27855374     E(CI)=       -93.176706785    
 NORM(A)=   0.10458978D+01
 Iteration Nr.   3
 **********************
 DD1Dir will call FoFMem   1 times, MxPair=        30
 NAB=    15 NAA=     0 NBB=     0.
 DE(CI)=     -0.27894551     E(CI)=       -93.177098557    
 NORM(A)=   0.10467086D+01
 Iteration Nr.   4
 **********************
 DD1Dir will call FoFMem   1 times, MxPair=        30
 NAB=    15 NAA=     0 NBB=     0.
 DE(CI)=     -0.27952721     E(CI)=       -93.177680256    
 NORM(A)=   0.10469605D+01
 Iteration Nr.   5
 **********************
 DD1Dir will call FoFMem   1 times, MxPair=        30
 NAB=    15 NAA=     0 NBB=     0.
 DE(CI)=     -0.27958795     E(CI)=       -93.177740999    
 NORM(A)=   0.10469574D+01
 Iteration Nr.   6
 **********************
 DD1Dir will call FoFMem   1 times, MxPair=        30
 NAB=    15 NAA=     0 NBB=     0.
 DE(CI)=     -0.27958449     E(CI)=       -93.177737539    
 NORM(A)=   0.10469492D+01
 Iteration Nr.   7
 **********************
 DD1Dir will call FoFMem   1 times, MxPair=        30
 NAB=    15 NAA=     0 NBB=     0.
 DE(CI)=     -0.27958179     E(CI)=       -93.177734836    
 NORM(A)=   0.10469516D+01
 Iteration Nr.   8
 **********************
 DD1Dir will call FoFMem   1 times, MxPair=        30
 NAB=    15 NAA=     0 NBB=     0.
 DE(CI)=     -0.27958229     E(CI)=       -93.177735339    
 NORM(A)=   0.10469518D+01
 Iteration Nr.   9
 **********************
 DD1Dir will call FoFMem   1 times, MxPair=        30
 NAB=    15 NAA=     0 NBB=     0.
 DE(CI)=     -0.27958250     E(CI)=       -93.177735540    
 NORM(A)=   0.10469519D+01
 Iteration Nr.  10
 **********************
 DD1Dir will call FoFMem   1 times, MxPair=        30
 NAB=    15 NAA=     0 NBB=     0.
 DE(CI)=     -0.27958245     E(CI)=       -93.177735493    
 NORM(A)=   0.10469518D+01
 Iteration Nr.  11
 **********************
 DD1Dir will call FoFMem   1 times, MxPair=        30
 NAB=    15 NAA=     0 NBB=     0.
 DE(CI)=     -0.27958246     E(CI)=       -93.177735505    
 NORM(A)=   0.10469519D+01
 Iteration Nr.  12
 **********************
 DD1Dir will call FoFMem   1 times, MxPair=        30
 NAB=    15 NAA=     0 NBB=     0.
 DE(CI)=     -0.27958246     E(CI)=       -93.177735507    
 NORM(A)=   0.10469519D+01
 ***************************************************************
 Largest amplitude= 3.81D-02
 Discarding MO integrals.
          IDoAtm=111
          Differentiating once with respect to electric field.
                with respect to dipole field.
          Differentiating once with respect to nuclear coordinates.
 Keep R1 ints in memory in symmetry-blocked form, NReq=1726921.
          There are     1 degrees of freedom in the 1st order CPHF.  IDoFFX=0 NUNeed=     1.
 LinEq1:  Iter=  0 NonCon=     1 RMS=5.68D-03 Max=3.17D-02 NDo=     1
 AX will form     1 AO Fock derivatives at one time.
 LinEq1:  Iter=  1 NonCon=     1 RMS=1.39D-03 Max=9.26D-03 NDo=     1
 LinEq1:  Iter=  2 NonCon=     1 RMS=2.87D-04 Max=1.46D-03 NDo=     1
 LinEq1:  Iter=  3 NonCon=     1 RMS=9.44D-05 Max=7.00D-04 NDo=     1
 LinEq1:  Iter=  4 NonCon=     1 RMS=3.53D-05 Max=2.67D-04 NDo=     1
 LinEq1:  Iter=  5 NonCon=     1 RMS=4.76D-06 Max=2.21D-05 NDo=     1
 LinEq1:  Iter=  6 NonCon=     1 RMS=5.12D-07 Max=2.75D-06 NDo=     1
 LinEq1:  Iter=  7 NonCon=     1 RMS=5.81D-08 Max=3.14D-07 NDo=     1
 LinEq1:  Iter=  8 NonCon=     1 RMS=5.43D-09 Max=2.99D-08 NDo=     1
 LinEq1:  Iter=  9 NonCon=     1 RMS=3.21D-10 Max=2.73D-09 NDo=     1
 LinEq1:  Iter= 10 NonCon=     0 RMS=2.00D-11 Max=1.20D-10 NDo=     1
 Linear equations converged to 1.000D-10 1.000D-09 after    10 iterations.
 End of Minotr F.D. properties file   721 does not exist.
 End of Minotr F.D. properties file   722 does not exist.
 End of Minotr F.D. properties file   788 does not exist.
 Calling FoFJK, ICntrl=  10002127 FMM=F ISym2X=1 I1Cent= 0 IOpClX= 0 NMat=1 NMatS=1 NMatT=0.
 ***** Axes restored to original set *****
 -------------------------------------------------------------------
 Center     Atomic                   Forces (Hartrees/Bohr)
 Number     Number              X              Y              Z
 -------------------------------------------------------------------
      1        7           0.000000000    0.000000000   -0.168238240
      2        6           0.000000000    0.000000000    0.158683535
      3        1           0.000000000    0.000000000    0.009554706
 -------------------------------------------------------------------
 Cartesian Forces:  Max     0.168238240 RMS     0.077154867

 GradGradGradGradGradGradGradGradGradGradGradGradGradGradGradGradGradGrad
 Berny optimization.
 Using GEDIIS/GDIIS optimizer.
 Internal  Forces:  Max     0.168238240 RMS     0.084254670
 Search for a local minimum.
 Step number   2 out of a maximum of   20
 All quantities printed in internal units (Hartrees-Bohrs-Radians)
 Mixed Optimization -- RFO/linear search
 Update second derivatives using D2CorX and points    1    2
 DE= -6.85D-02 DEPred=-5.92D-02 R= 1.16D+00
 TightC=F SS=  1.41D+00  RLast= 2.03D-01 DXNew= 5.0454D-01 6.0758D-01
 Trust test= 1.16D+00 RLast= 2.03D-01 DXMaxT set to 5.05D-01
 The second derivative matrix:
                          R1        R2        A1        A2
           R1           2.48900
           R2           0.00453   0.48504
           A1           0.00000   0.00000   0.01425
           A2           0.00000   0.00000   0.00000   0.01425
 ITU=  1  0
 Use linear search instead of GDIIS.
     Eigenvalues ---    0.01425   0.01425   0.48503   2.48901
 RFO step:  Lambda=-1.56801140D-03 EMin= 1.42535752D-02
 Quartic linear search produced a step of  0.60510.
 Iteration  1 RMS(Cart)=  0.07629690 RMS(Int)=  0.00000000
 Iteration  2 RMS(Cart)=  0.00000000 RMS(Int)=  0.00000000
 ClnCor:  largest displacement from symmetrization is 5.55D-17 for atom     1.
 Variable       Old X    -DE/DX   Delta X   Delta X   Delta X     New X
                                 (Linear)    (Quad)   (Total)
    R1        2.06690   0.16824   0.10721  -0.00606   0.10114   2.16804
    R2        1.98785   0.00955   0.05938   0.05514   0.11452   2.10237
    A1        3.14159   0.00000   0.00000   0.00000   0.00000   3.14159
    A2        3.14159   0.00000   0.00000   0.00000   0.00000   3.14159
         Item               Value     Threshold  Converged?
 Maximum Force            0.168238     0.000015     NO 
 RMS     Force            0.084255     0.000010     NO 
 Maximum Displacement     0.110060     0.000060     NO 
 RMS     Displacement     0.076297     0.000040     NO 
 Predicted change in Energy=-2.146156D-03
 GradGradGradGradGradGradGradGradGradGradGradGradGradGradGradGradGradGrad

                          Input orientation:                          
 ---------------------------------------------------------------------
 Center     Atomic      Atomic             Coordinates (Angstroms)
 Number     Number       Type             X           Y           Z
 ---------------------------------------------------------------------
      1          7           0        0.000000    0.000000   -0.135694
      2          6           0        0.000000    0.000000    1.011584
      3          1           0        0.000000    0.000000    2.124110
 ---------------------------------------------------------------------
                    Distance matrix (angstroms):
                    1          2          3
     1  N    0.000000
     2  C    1.147278   0.000000
     3  H    2.259803   1.112526   0.000000
 Stoichiometry    CHN
 Framework group  C*V[C*(HCN)]
 Deg. of freedom     2
 Full point group                 C*V     NOp   4
 Largest Abelian subgroup         C2V     NOp   4
 Largest concise Abelian subgroup C1      NOp   1
                         Standard orientation:                         
 ---------------------------------------------------------------------
 Center     Atomic      Atomic             Coordinates (Angstroms)
 Number     Number       Type             X           Y           Z
 ---------------------------------------------------------------------
      1          7           0        0.000000    0.000000    0.653105
      2          6           0        0.000000    0.000000   -0.494173
      3          1           0        0.000000    0.000000   -1.606699
 ---------------------------------------------------------------------
 Rotational constants (GHZ):      0.0000000     44.2895466     44.2895466
 Standard basis: 6-311++G(d,p) (5D, 7F)
 There are    29 symmetry adapted cartesian basis functions of A1  symmetry.
 There are     2 symmetry adapted cartesian basis functions of A2  symmetry.
 There are    11 symmetry adapted cartesian basis functions of B1  symmetry.
 There are    11 symmetry adapted cartesian basis functions of B2  symmetry.
 There are    27 symmetry adapted basis functions of A1  symmetry.
 There are     2 symmetry adapted basis functions of A2  symmetry.
 There are    11 symmetry adapted basis functions of B1  symmetry.
 There are    11 symmetry adapted basis functions of B2  symmetry.
    51 basis functions,    81 primitive gaussians,    53 cartesian basis functions
     7 alpha electrons        7 beta electrons
       nuclear repulsion energy        23.8654424730 Hartrees.
 NAtoms=    3 NActive=    3 NUniq=    3 SFac= 1.00D+00 NAtFMM=   60 NAOKFM=F Big=F
 Integral buffers will be    131072 words long.
 Raffenetti 1 integral format.
 Two-electron integral symmetry is turned on.
 One-electron integrals computed using PRISM.
 NBasis=    51 RedAO= T EigKep=  2.72D-03  NBF=    27     2    11    11
 NBsUse=    51 1.00D-06 EigRej= -1.00D+00 NBFU=    27     2    11    11
 Initial guess from the checkpoint file:  "HNC180CISDfc.chk"
 B after Tr=     0.000000    0.000000    0.000000
         Rot=    1.000000    0.000000    0.000000    0.000000 Ang=   0.00 deg.
 Initial guess orbital symmetries:
       Occupied  (SG) (SG) (SG) (SG) (SG) (PI) (PI)
       Virtual   (SG) (SG) (SG) (SG) (SG) (SG) (SG) (DLTA) (SG)
                 (SG) (SG) (DLTA) (SG) (SG) (SG) (SG) (SG) (SG)
                 (SG) (SG) (SG) (SG) (DLTA) (DLTA) (PI) (PI) (PI)
                 (PI) (PI) (PI) (PI) (PI) (PI) (PI) (PI) (PI) (PI)
                 (PI) (PI) (PI) (PI) (PI) (PI) (PI)
 ExpMin= 3.60D-02 ExpMax= 6.29D+03 ExpMxC= 9.49D+02 IAcc=3 IRadAn=         5 AccDes= 0.00D+00
 Harris functional with IExCor=  205 and IRadAn=       5 diagonalized for initial guess.
 HarFok:  IExCor=  205 AccDes= 0.00D+00 IRadAn=         5 IDoV= 1 UseB2=F ITyADJ=14
 ICtDFT=  3500011 ScaDFX=  1.000000  1.000000  1.000000  1.000000
 FoFCou: FMM=F IPFlag=           0 FMFlag=      100000 FMFlg1=           0
         NFxFlg=           0 DoJE=T BraDBF=F KetDBF=T FulRan=T
         wScrn=  0.000000 ICntrl=     500 IOpCl=  0 I1Cent=   200000004 NGrid=           0
         NMat0=    1 NMatS0=      1 NMatT0=    0 NMatD0=    1 NMtDS0=    0 NMtDT0=    0
 Petite list used in FoFCou.
 Keep R1 ints in memory in symmetry-blocked form, NReq=1746609.
 Requested convergence on RMS density matrix=1.00D-08 within 128 cycles.
 Requested convergence on MAX density matrix=1.00D-06.
 Requested convergence on             energy=1.00D-06.
 No special actions if energy rises.
 SCF Done:  E(RHF) =  -92.8983436299     A.U. after   10 cycles
            NFock= 10  Conv=0.22D-08     -V/T= 2.0024
 ExpMin= 3.60D-02 ExpMax= 6.29D+03 ExpMxC= 9.49D+02 IAcc=3 IRadAn=         5 AccDes= 0.00D+00
 HarFok:  IExCor=  205 AccDes= 0.00D+00 IRadAn=         5 IDoV=-2 UseB2=F ITyADJ=14
 ICtDFT= 12500011 ScaDFX=  1.000000  1.000000  1.000000  1.000000
 Range of M.O.s used for correlation:     3    51
 NBasis=    51 NAE=     7 NBE=     7 NFC=     2 NFV=     0
 NROrb=     49 NOA=     5 NOB=     5 NVA=    44 NVB=    44
 Semi-Direct transformation.
 ModeAB=           2 MOrb=             5 LenV=     805105484
 LASXX=        74437 LTotXX=       74437 LenRXX=       74437
 LTotAB=       80677 MaxLAS=      350595 LenRXY=      350595
 NonZer=      370440 LenScr=     1111040 LnRSAI=           0
 LnScr1=           0 LExtra=           0 Total=      1536072
 MaxDsk=          -1 SrtSym=           F ITran=            4
 JobTyp=0 Pass  1:  I=   1 to   5.
 (rs|ai) integrals will be sorted in core.
 Spin components of T(2) and E(2):
     alpha-alpha T2 =       0.1443824922D-01 E2=     -0.3855084883D-01
     alpha-beta  T2 =       0.8315636108D-01 E2=     -0.2251920252D+00
     beta-beta   T2 =       0.1443824922D-01 E2=     -0.3855084883D-01
 ANorm=    0.1054529686D+01
 E2 =    -0.3022937229D+00 EUMP2 =    -0.93200637352787D+02
 Keep R2 and R3 ints in memory in symmetry-blocked form, NReq=1705586.
 Iterations=  50 Convergence= 0.100D-07
 Iteration Nr.   1
 **********************
 DD1Dir will call FoFMem   1 times, MxPair=        30
 NAB=    15 NAA=     0 NBB=     0.
 E3=        0.97161494D-03        EUMP3=      -0.93199665738D+02
 DE(CI)=     -0.27192166     E(CI)=       -93.170265287    
 NORM(A)=   0.10447027D+01
 Iteration Nr.   2
 **********************
 DD1Dir will call FoFMem   1 times, MxPair=        30
 NAB=    15 NAA=     0 NBB=     0.
 DE(CI)=     -0.28543396     E(CI)=       -93.183777588    
 NORM(A)=   0.10490869D+01
 Iteration Nr.   3
 **********************
 DD1Dir will call FoFMem   1 times, MxPair=        30
 NAB=    15 NAA=     0 NBB=     0.
 DE(CI)=     -0.28561355     E(CI)=       -93.183957180    
 NORM(A)=   0.10500669D+01
 Iteration Nr.   4
 **********************
 DD1Dir will call FoFMem   1 times, MxPair=        30
 NAB=    15 NAA=     0 NBB=     0.
 DE(CI)=     -0.28632431     E(CI)=       -93.184667941    
 NORM(A)=   0.10504442D+01
 Iteration Nr.   5
 **********************
 DD1Dir will call FoFMem   1 times, MxPair=        30
 NAB=    15 NAA=     0 NBB=     0.
 DE(CI)=     -0.28641706     E(CI)=       -93.184760689    
 NORM(A)=   0.10504484D+01
 Iteration Nr.   6
 **********************
 DD1Dir will call FoFMem   1 times, MxPair=        30
 NAB=    15 NAA=     0 NBB=     0.
 DE(CI)=     -0.28641372     E(CI)=       -93.184757347    
 NORM(A)=   0.10504328D+01
 Iteration Nr.   7
 **********************
 DD1Dir will call FoFMem   1 times, MxPair=        30
 NAB=    15 NAA=     0 NBB=     0.
 DE(CI)=     -0.28640874     E(CI)=       -93.184752374    
 NORM(A)=   0.10504362D+01
 Iteration Nr.   8
 **********************
 DD1Dir will call FoFMem   1 times, MxPair=        30
 NAB=    15 NAA=     0 NBB=     0.
 DE(CI)=     -0.28640957     E(CI)=       -93.184753200    
 NORM(A)=   0.10504369D+01
 Iteration Nr.   9
 **********************
 DD1Dir will call FoFMem   1 times, MxPair=        30
 NAB=    15 NAA=     0 NBB=     0.
 DE(CI)=     -0.28640988     E(CI)=       -93.184753510    
 NORM(A)=   0.10504369D+01
 Iteration Nr.  10
 **********************
 DD1Dir will call FoFMem   1 times, MxPair=        30
 NAB=    15 NAA=     0 NBB=     0.
 DE(CI)=     -0.28640981     E(CI)=       -93.184753437    
 NORM(A)=   0.10504369D+01
 Iteration Nr.  11
 **********************
 DD1Dir will call FoFMem   1 times, MxPair=        30
 NAB=    15 NAA=     0 NBB=     0.
 DE(CI)=     -0.28640983     E(CI)=       -93.184753456    
 NORM(A)=   0.10504369D+01
 Iteration Nr.  12
 **********************
 DD1Dir will call FoFMem   1 times, MxPair=        30
 NAB=    15 NAA=     0 NBB=     0.
 DE(CI)=     -0.28640983     E(CI)=       -93.184753460    
 NORM(A)=   0.10504369D+01
 ***************************************************************
 Largest amplitude= 4.35D-02
 Discarding MO integrals.
          IDoAtm=111
          Differentiating once with respect to electric field.
                with respect to dipole field.
          Differentiating once with respect to nuclear coordinates.
 Keep R1 ints in memory in symmetry-blocked form, NReq=1726900.
          There are     1 degrees of freedom in the 1st order CPHF.  IDoFFX=0 NUNeed=     1.
 LinEq1:  Iter=  0 NonCon=     1 RMS=6.30D-03 Max=3.55D-02 NDo=     1
 AX will form     1 AO Fock derivatives at one time.
 LinEq1:  Iter=  1 NonCon=     1 RMS=1.60D-03 Max=1.15D-02 NDo=     1
 LinEq1:  Iter=  2 NonCon=     1 RMS=3.53D-04 Max=2.01D-03 NDo=     1
 LinEq1:  Iter=  3 NonCon=     1 RMS=1.96D-04 Max=1.48D-03 NDo=     1
 LinEq1:  Iter=  4 NonCon=     1 RMS=4.97D-05 Max=3.64D-04 NDo=     1
 LinEq1:  Iter=  5 NonCon=     1 RMS=6.78D-06 Max=3.55D-05 NDo=     1
 LinEq1:  Iter=  6 NonCon=     1 RMS=7.73D-07 Max=4.80D-06 NDo=     1
 LinEq1:  Iter=  7 NonCon=     1 RMS=8.76D-08 Max=4.52D-07 NDo=     1
 LinEq1:  Iter=  8 NonCon=     1 RMS=8.07D-09 Max=4.51D-08 NDo=     1
 LinEq1:  Iter=  9 NonCon=     1 RMS=4.99D-10 Max=3.31D-09 NDo=     1
 LinEq1:  Iter= 10 NonCon=     0 RMS=4.04D-11 Max=3.67D-10 NDo=     1
 Linear equations converged to 1.000D-10 1.000D-09 after    10 iterations.
 End of Minotr F.D. properties file   721 does not exist.
 End of Minotr F.D. properties file   722 does not exist.
 End of Minotr F.D. properties file   788 does not exist.
 Calling FoFJK, ICntrl=  10002127 FMM=F ISym2X=1 I1Cent= 0 IOpClX= 0 NMat=1 NMatS=1 NMatT=0.
 ***** Axes restored to original set *****
 -------------------------------------------------------------------
 Center     Atomic                   Forces (Hartrees/Bohr)
 Number     Number              X              Y              Z
 -------------------------------------------------------------------
      1        7           0.000000000    0.000000000   -0.008575803
      2        6           0.000000000    0.000000000    0.041515112
      3        1           0.000000000    0.000000000   -0.032939309
 -------------------------------------------------------------------
 Cartesian Forces:  Max     0.041515112 RMS     0.017894900

 GradGradGradGradGradGradGradGradGradGradGradGradGradGradGradGradGradGrad
 Berny optimization.
 Using GEDIIS/GDIIS optimizer.
 Internal  Forces:  Max     0.032939309 RMS     0.017018684
 Search for a local minimum.
 Step number   3 out of a maximum of   20
 All quantities printed in internal units (Hartrees-Bohrs-Radians)
 Mixed Optimization -- RFO/linear search
 Update second derivatives using D2CorX and points    1    2    3
 DE= -7.02D-03 DEPred=-2.15D-03 R= 3.27D+00
 TightC=F SS=  1.41D+00  RLast= 1.53D-01 DXNew= 8.4853D-01 4.5837D-01
 Trust test= 3.27D+00 RLast= 1.53D-01 DXMaxT set to 5.05D-01
 The second derivative matrix:
                          R1        R2        A1        A2
           R1           1.70725
           R2          -0.11367   0.47146
           A1           0.00000   0.00000   0.01425
           A2           0.00000   0.00000   0.00000   0.01425
 ITU=  1  1  0
 Use linear search instead of GDIIS.
     Eigenvalues ---    0.01425   0.01425   0.46110   1.71762
 RFO step:  Lambda=-2.08521178D-03 EMin= 1.42535752D-02
 Quartic linear search produced a step of -0.16027.
 Iteration  1 RMS(Cart)=  0.03073872 RMS(Int)=  0.00000000
 Iteration  2 RMS(Cart)=  0.00000000 RMS(Int)=  0.00000000
 ClnCor:  largest displacement from symmetrization is 0.00D+00 for atom     0.
 Variable       Old X    -DE/DX   Delta X   Delta X   Delta X     New X
                                 (Linear)    (Quad)   (Total)
    R1        2.16804   0.00858  -0.01621   0.01506  -0.00115   2.16689
    R2        2.10237  -0.03294  -0.01835  -0.05636  -0.07471   2.02765
    A1        3.14159   0.00000   0.00000   0.00000   0.00000   3.14159
    A2        3.14159   0.00000   0.00000   0.00000   0.00000   3.14159
         Item               Value     Threshold  Converged?
 Maximum Force            0.032939     0.000015     NO 
 RMS     Force            0.017019     0.000010     NO 
 Maximum Displacement     0.050192     0.000060     NO 
 RMS     Displacement     0.030739     0.000040     NO 
 Predicted change in Energy=-1.143912D-03
 GradGradGradGradGradGradGradGradGradGradGradGradGradGradGradGradGradGrad

                          Input orientation:                          
 ---------------------------------------------------------------------
 Center     Atomic      Atomic             Coordinates (Angstroms)
 Number     Number       Type             X           Y           Z
 ---------------------------------------------------------------------
      1          7           0        0.000000    0.000000   -0.122110
      2          6           0        0.000000    0.000000    1.024561
      3          1           0        0.000000    0.000000    2.097549
 ---------------------------------------------------------------------
                    Distance matrix (angstroms):
                    1          2          3
     1  N    0.000000
     2  C    1.146671   0.000000
     3  H    2.219660   1.072989   0.000000
 Stoichiometry    CHN
 Framework group  C*V[C*(HCN)]
 Deg. of freedom     2
 Full point group                 C*V     NOp   4
 Largest Abelian subgroup         C2V     NOp   4
 Largest concise Abelian subgroup C1      NOp   1
                         Standard orientation:                         
 ---------------------------------------------------------------------
 Center     Atomic      Atomic             Coordinates (Angstroms)
 Number     Number       Type             X           Y           Z
 ---------------------------------------------------------------------
      1          7           0        0.000000    0.000000    0.649978
      2          6           0        0.000000    0.000000   -0.496694
      3          1           0        0.000000    0.000000   -1.569682
 ---------------------------------------------------------------------
 Rotational constants (GHZ):      0.0000000     44.8448389     44.8448389
 Standard basis: 6-311++G(d,p) (5D, 7F)
 There are    29 symmetry adapted cartesian basis functions of A1  symmetry.
 There are     2 symmetry adapted cartesian basis functions of A2  symmetry.
 There are    11 symmetry adapted cartesian basis functions of B1  symmetry.
 There are    11 symmetry adapted cartesian basis functions of B2  symmetry.
 There are    27 symmetry adapted basis functions of A1  symmetry.
 There are     2 symmetry adapted basis functions of A2  symmetry.
 There are    11 symmetry adapted basis functions of B1  symmetry.
 There are    11 symmetry adapted basis functions of B2  symmetry.
    51 basis functions,    81 primitive gaussians,    53 cartesian basis functions
     7 alpha electrons        7 beta electrons
       nuclear repulsion energy        24.0104916464 Hartrees.
 NAtoms=    3 NActive=    3 NUniq=    3 SFac= 1.00D+00 NAtFMM=   60 NAOKFM=F Big=F
 Integral buffers will be    131072 words long.
 Raffenetti 1 integral format.
 Two-electron integral symmetry is turned on.
 One-electron integrals computed using PRISM.
 NBasis=    51 RedAO= T EigKep=  2.63D-03  NBF=    27     2    11    11
 NBsUse=    51 1.00D-06 EigRej= -1.00D+00 NBFU=    27     2    11    11
 Initial guess from the checkpoint file:  "HNC180CISDfc.chk"
 B after Tr=     0.000000    0.000000    0.000000
         Rot=    1.000000    0.000000    0.000000    0.000000 Ang=   0.00 deg.
 Initial guess orbital symmetries:
       Occupied  (SG) (SG) (SG) (SG) (SG) (PI) (PI)
       Virtual   (SG) (SG) (SG) (SG) (SG) (SG) (SG) (DLTA) (SG)
                 (SG) (SG) (DLTA) (SG) (SG) (SG) (SG) (SG) (SG)
                 (SG) (SG) (SG) (SG) (DLTA) (DLTA) (PI) (PI) (PI)
                 (PI) (PI) (PI) (PI) (PI) (PI) (PI) (PI) (PI) (PI)
                 (PI) (PI) (PI) (PI) (PI) (PI) (PI)
 ExpMin= 3.60D-02 ExpMax= 6.29D+03 ExpMxC= 9.49D+02 IAcc=3 IRadAn=         5 AccDes= 0.00D+00
 Harris functional with IExCor=  205 and IRadAn=       5 diagonalized for initial guess.
 HarFok:  IExCor=  205 AccDes= 0.00D+00 IRadAn=         5 IDoV= 1 UseB2=F ITyADJ=14
 ICtDFT=  3500011 ScaDFX=  1.000000  1.000000  1.000000  1.000000
 FoFCou: FMM=F IPFlag=           0 FMFlag=      100000 FMFlg1=           0
         NFxFlg=           0 DoJE=T BraDBF=F KetDBF=T FulRan=T
         wScrn=  0.000000 ICntrl=     500 IOpCl=  0 I1Cent=   200000004 NGrid=           0
         NMat0=    1 NMatS0=      1 NMatT0=    0 NMatD0=    1 NMtDS0=    0 NMtDT0=    0
 Petite list used in FoFCou.
 Keep R1 ints in memory in symmetry-blocked form, NReq=1746609.
 Requested convergence on RMS density matrix=1.00D-08 within 128 cycles.
 Requested convergence on MAX density matrix=1.00D-06.
 Requested convergence on             energy=1.00D-06.
 No special actions if energy rises.
 SCF Done:  E(RHF) =  -92.9002979786     A.U. after    9 cycles
            NFock=  9  Conv=0.62D-08     -V/T= 2.0017
 ExpMin= 3.60D-02 ExpMax= 6.29D+03 ExpMxC= 9.49D+02 IAcc=3 IRadAn=         5 AccDes= 0.00D+00
 HarFok:  IExCor=  205 AccDes= 0.00D+00 IRadAn=         5 IDoV=-2 UseB2=F ITyADJ=14
 ICtDFT= 12500011 ScaDFX=  1.000000  1.000000  1.000000  1.000000
 Range of M.O.s used for correlation:     3    51
 NBasis=    51 NAE=     7 NBE=     7 NFC=     2 NFV=     0
 NROrb=     49 NOA=     5 NOB=     5 NVA=    44 NVB=    44
 Semi-Direct transformation.
 ModeAB=           2 MOrb=             5 LenV=     805105484
 LASXX=        74437 LTotXX=       74437 LenRXX=       74437
 LTotAB=       80677 MaxLAS=      350595 LenRXY=      350595
 NonZer=      370440 LenScr=     1111040 LnRSAI=           0
 LnScr1=           0 LExtra=           0 Total=      1536072
 MaxDsk=          -1 SrtSym=           F ITran=            4
 JobTyp=0 Pass  1:  I=   1 to   5.
 (rs|ai) integrals will be sorted in core.
 Spin components of T(2) and E(2):
     alpha-alpha T2 =       0.1437746387D-01 E2=     -0.3850312455D-01
     alpha-beta  T2 =       0.8255736451D-01 E2=     -0.2246580150D+00
     beta-beta   T2 =       0.1437746387D-01 E2=     -0.3850312455D-01
 ANorm=    0.1054187978D+01
 E2 =    -0.3016642641D+00 EUMP2 =    -0.93201962242685D+02
 Keep R2 and R3 ints in memory in symmetry-blocked form, NReq=1705586.
 Iterations=  50 Convergence= 0.100D-07
 Iteration Nr.   1
 **********************
 DD1Dir will call FoFMem   1 times, MxPair=        30
 NAB=    15 NAA=     0 NBB=     0.
 E3=        0.90161117D-03        EUMP3=      -0.93201060632D+02
 DE(CI)=     -0.27160406     E(CI)=       -93.171902038    
 NORM(A)=   0.10444226D+01
 Iteration Nr.   2
 **********************
 DD1Dir will call FoFMem   1 times, MxPair=        30
 NAB=    15 NAA=     0 NBB=     0.
 DE(CI)=     -0.28498666     E(CI)=       -93.185284642    
 NORM(A)=   0.10487385D+01
 Iteration Nr.   3
 **********************
 DD1Dir will call FoFMem   1 times, MxPair=        30
 NAB=    15 NAA=     0 NBB=     0.
 DE(CI)=     -0.28515613     E(CI)=       -93.185454105    
 NORM(A)=   0.10496968D+01
 Iteration Nr.   4
 **********************
 DD1Dir will call FoFMem   1 times, MxPair=        30
 NAB=    15 NAA=     0 NBB=     0.
 DE(CI)=     -0.28585349     E(CI)=       -93.186151465    
 NORM(A)=   0.10500685D+01
 Iteration Nr.   5
 **********************
 DD1Dir will call FoFMem   1 times, MxPair=        30
 NAB=    15 NAA=     0 NBB=     0.
 DE(CI)=     -0.28594567     E(CI)=       -93.186243650    
 NORM(A)=   0.10500697D+01
 Iteration Nr.   6
 **********************
 DD1Dir will call FoFMem   1 times, MxPair=        30
 NAB=    15 NAA=     0 NBB=     0.
 DE(CI)=     -0.28594104     E(CI)=       -93.186239018    
 NORM(A)=   0.10500549D+01
 Iteration Nr.   7
 **********************
 DD1Dir will call FoFMem   1 times, MxPair=        30
 NAB=    15 NAA=     0 NBB=     0.
 DE(CI)=     -0.28593649     E(CI)=       -93.186234471    
 NORM(A)=   0.10500584D+01
 Iteration Nr.   8
 **********************
 DD1Dir will call FoFMem   1 times, MxPair=        30
 NAB=    15 NAA=     0 NBB=     0.
 DE(CI)=     -0.28593733     E(CI)=       -93.186235312    
 NORM(A)=   0.10500590D+01
 Iteration Nr.   9
 **********************
 DD1Dir will call FoFMem   1 times, MxPair=        30
 NAB=    15 NAA=     0 NBB=     0.
 DE(CI)=     -0.28593762     E(CI)=       -93.186235596    
 NORM(A)=   0.10500591D+01
 Iteration Nr.  10
 **********************
 DD1Dir will call FoFMem   1 times, MxPair=        30
 NAB=    15 NAA=     0 NBB=     0.
 DE(CI)=     -0.28593754     E(CI)=       -93.186235521    
 NORM(A)=   0.10500590D+01
 Iteration Nr.  11
 **********************
 DD1Dir will call FoFMem   1 times, MxPair=        30
 NAB=    15 NAA=     0 NBB=     0.
 DE(CI)=     -0.28593756     E(CI)=       -93.186235537    
 NORM(A)=   0.10500590D+01
 Iteration Nr.  12
 **********************
 DD1Dir will call FoFMem   1 times, MxPair=        30
 NAB=    15 NAA=     0 NBB=     0.
 DE(CI)=     -0.28593756     E(CI)=       -93.186235541    
 NORM(A)=   0.10500590D+01
 ***************************************************************
 Largest amplitude= 4.37D-02
 Discarding MO integrals.
          IDoAtm=111
          Differentiating once with respect to electric field.
                with respect to dipole field.
          Differentiating once with respect to nuclear coordinates.
 Keep R1 ints in memory in symmetry-blocked form, NReq=1726900.
          There are     1 degrees of freedom in the 1st order CPHF.  IDoFFX=0 NUNeed=     1.
 LinEq1:  Iter=  0 NonCon=     1 RMS=6.27D-03 Max=3.55D-02 NDo=     1
 AX will form     1 AO Fock derivatives at one time.
 LinEq1:  Iter=  1 NonCon=     1 RMS=1.57D-03 Max=1.09D-02 NDo=     1
 LinEq1:  Iter=  2 NonCon=     1 RMS=3.36D-04 Max=1.86D-03 NDo=     1
 LinEq1:  Iter=  3 NonCon=     1 RMS=1.80D-04 Max=1.35D-03 NDo=     1
 LinEq1:  Iter=  4 NonCon=     1 RMS=4.75D-05 Max=3.64D-04 NDo=     1
 LinEq1:  Iter=  5 NonCon=     1 RMS=6.43D-06 Max=3.80D-05 NDo=     1
 LinEq1:  Iter=  6 NonCon=     1 RMS=7.35D-07 Max=4.27D-06 NDo=     1
 LinEq1:  Iter=  7 NonCon=     1 RMS=8.36D-08 Max=4.33D-07 NDo=     1
 LinEq1:  Iter=  8 NonCon=     1 RMS=7.68D-09 Max=4.33D-08 NDo=     1
 LinEq1:  Iter=  9 NonCon=     1 RMS=4.50D-10 Max=3.39D-09 NDo=     1
 LinEq1:  Iter= 10 NonCon=     0 RMS=2.88D-11 Max=2.24D-10 NDo=     1
 Linear equations converged to 1.000D-10 1.000D-09 after    10 iterations.
 End of Minotr F.D. properties file   721 does not exist.
 End of Minotr F.D. properties file   722 does not exist.
 End of Minotr F.D. properties file   788 does not exist.
 Calling FoFJK, ICntrl=  10002127 FMM=F ISym2X=1 I1Cent= 0 IOpClX= 0 NMat=1 NMatS=1 NMatT=0.
 ***** Axes restored to original set *****
 -------------------------------------------------------------------
 Center     Atomic                   Forces (Hartrees/Bohr)
 Number     Number              X              Y              Z
 -------------------------------------------------------------------
      1        7           0.000000000    0.000000000   -0.009102038
      2        6           0.000000000    0.000000000    0.015101657
      3        1           0.000000000    0.000000000   -0.005999619
 -------------------------------------------------------------------
 Cartesian Forces:  Max     0.015101657 RMS     0.006208440

 GradGradGradGradGradGradGradGradGradGradGradGradGradGradGradGradGradGrad
 Berny optimization.
 Using GEDIIS/GDIIS optimizer.
 Internal  Forces:  Max     0.009102038 RMS     0.005450746
 Search for a local minimum.
 Step number   4 out of a maximum of   20
 All quantities printed in internal units (Hartrees-Bohrs-Radians)
 Mixed Optimization -- RFO/linear search
 Update second derivatives using D2CorX and points    1    2    3    4
 DE= -1.48D-03 DEPred=-1.14D-03 R= 1.30D+00
 TightC=F SS=  1.41D+00  RLast= 7.47D-02 DXNew= 8.4853D-01 2.2417D-01
 Trust test= 1.30D+00 RLast= 7.47D-02 DXMaxT set to 5.05D-01
 The second derivative matrix:
                          R1        R2        A1        A2
           R1           1.60624
           R2          -0.01759   0.36084
           A1           0.00000   0.00000   0.01425
           A2           0.00000   0.00000   0.00000   0.01425
 ITU=  1  1  1  0
 Use linear search instead of GDIIS.
     Eigenvalues ---    0.01425   0.01425   0.36059   1.60649
 RFO step:  Lambda=-5.28538279D-05 EMin= 1.42535752D-02
 Quartic linear search produced a step of  0.19130.
 Iteration  1 RMS(Cart)=  0.00513927 RMS(Int)=  0.00000000
 Iteration  2 RMS(Cart)=  0.00000000 RMS(Int)=  0.00000000
 ClnCor:  largest displacement from symmetrization is 8.33D-17 for atom     1.
 Variable       Old X    -DE/DX   Delta X   Delta X   Delta X     New X
                                 (Linear)    (Quad)   (Total)
    R1        2.16689   0.00910  -0.00022   0.00573   0.00552   2.17241
    R2        2.02765  -0.00600  -0.01429  -0.00011  -0.01440   2.01325
    A1        3.14159   0.00000   0.00000   0.00000   0.00000   3.14159
    A2        3.14159   0.00000   0.00000   0.00000   0.00000   3.14159
         Item               Value     Threshold  Converged?
 Maximum Force            0.009102     0.000015     NO 
 RMS     Force            0.005451     0.000010     NO 
 Maximum Displacement     0.007765     0.000060     NO 
 RMS     Displacement     0.005139     0.000040     NO 
 Predicted change in Energy=-7.336035D-05
 GradGradGradGradGradGradGradGradGradGradGradGradGradGradGradGradGradGrad

                          Input orientation:                          
 ---------------------------------------------------------------------
 Center     Atomic      Atomic             Coordinates (Angstroms)
 Number     Number       Type             X           Y           Z
 ---------------------------------------------------------------------
      1          7           0        0.000000    0.000000   -0.121515
      2          6           0        0.000000    0.000000    1.028075
      3          1           0        0.000000    0.000000    2.093440
 ---------------------------------------------------------------------
                    Distance matrix (angstroms):
                    1          2          3
     1  N    0.000000
     2  C    1.149590   0.000000
     3  H    2.214956   1.065366   0.000000
 Stoichiometry    CHN
 Framework group  C*V[C*(HCN)]
 Deg. of freedom     2
 Full point group                 C*V     NOp   4
 Largest Abelian subgroup         C2V     NOp   4
 Largest concise Abelian subgroup C1      NOp   1
                         Standard orientation:                         
 ---------------------------------------------------------------------
 Center     Atomic      Atomic             Coordinates (Angstroms)
 Number     Number       Type             X           Y           Z
 ---------------------------------------------------------------------
      1          7           0        0.000000    0.000000    0.650893
      2          6           0        0.000000    0.000000   -0.498697
      3          1           0        0.000000    0.000000   -1.564063
 ---------------------------------------------------------------------
 Rotational constants (GHZ):      0.0000000     44.7515350     44.7515350
 Standard basis: 6-311++G(d,p) (5D, 7F)
 There are    29 symmetry adapted cartesian basis functions of A1  symmetry.
 There are     2 symmetry adapted cartesian basis functions of A2  symmetry.
 There are    11 symmetry adapted cartesian basis functions of B1  symmetry.
 There are    11 symmetry adapted cartesian basis functions of B2  symmetry.
 There are    27 symmetry adapted basis functions of A1  symmetry.
 There are     2 symmetry adapted basis functions of A2  symmetry.
 There are    11 symmetry adapted basis functions of B1  symmetry.
 There are    11 symmetry adapted basis functions of B2  symmetry.
    51 basis functions,    81 primitive gaussians,    53 cartesian basis functions
     7 alpha electrons        7 beta electrons
       nuclear repulsion energy        23.9859983884 Hartrees.
 NAtoms=    3 NActive=    3 NUniq=    3 SFac= 1.00D+00 NAtFMM=   60 NAOKFM=F Big=F
 Integral buffers will be    131072 words long.
 Raffenetti 1 integral format.
 Two-electron integral symmetry is turned on.
 One-electron integrals computed using PRISM.
 NBasis=    51 RedAO= T EigKep=  2.65D-03  NBF=    27     2    11    11
 NBsUse=    51 1.00D-06 EigRej= -1.00D+00 NBFU=    27     2    11    11
 Initial guess from the checkpoint file:  "HNC180CISDfc.chk"
 B after Tr=     0.000000    0.000000    0.000000
         Rot=    1.000000    0.000000    0.000000    0.000000 Ang=   0.00 deg.
 Initial guess orbital symmetries:
       Occupied  (SG) (SG) (SG) (SG) (SG) (PI) (PI)
       Virtual   (SG) (SG) (SG) (SG) (SG) (SG) (SG) (DLTA) (SG)
                 (SG) (SG) (DLTA) (SG) (SG) (SG) (SG) (SG) (SG)
                 (SG) (SG) (SG) (SG) (DLTA) (DLTA) (PI) (PI) (PI)
                 (PI) (PI) (PI) (PI) (PI) (PI) (PI) (PI) (PI) (PI)
                 (PI) (PI) (PI) (PI) (PI) (PI) (PI)
 Keep R1 ints in memory in symmetry-blocked form, NReq=1746609.
 Requested convergence on RMS density matrix=1.00D-08 within 128 cycles.
 Requested convergence on MAX density matrix=1.00D-06.
 Requested convergence on             energy=1.00D-06.
 No special actions if energy rises.
 SCF Done:  E(RHF) =  -92.9000989722     A.U. after    9 cycles
            NFock=  9  Conv=0.13D-08     -V/T= 2.0018
 ExpMin= 3.60D-02 ExpMax= 6.29D+03 ExpMxC= 9.49D+02 IAcc=3 IRadAn=         5 AccDes= 0.00D+00
 HarFok:  IExCor=  205 AccDes= 0.00D+00 IRadAn=         5 IDoV=-2 UseB2=F ITyADJ=14
 ICtDFT= 12500011 ScaDFX=  1.000000  1.000000  1.000000  1.000000
 Range of M.O.s used for correlation:     3    51
 NBasis=    51 NAE=     7 NBE=     7 NFC=     2 NFV=     0
 NROrb=     49 NOA=     5 NOB=     5 NVA=    44 NVB=    44
 Semi-Direct transformation.
 ModeAB=           2 MOrb=             5 LenV=     805105484
 LASXX=        74437 LTotXX=       74437 LenRXX=       74437
 LTotAB=       80677 MaxLAS=      350595 LenRXY=      350595
 NonZer=      370440 LenScr=     1111040 LnRSAI=           0
 LnScr1=           0 LExtra=           0 Total=      1536072
 MaxDsk=          -1 SrtSym=           F ITran=            4
 JobTyp=0 Pass  1:  I=   1 to   5.
 (rs|ai) integrals will be sorted in core.
 Spin components of T(2) and E(2):
     alpha-alpha T2 =       0.1444903149D-01 E2=     -0.3858507909D-01
     alpha-beta  T2 =       0.8287081412D-01 E2=     -0.2249992521D+00
     beta-beta   T2 =       0.1444903149D-01 E2=     -0.3858507909D-01
 ANorm=    0.1054404513D+01
 E2 =    -0.3021694103D+00 EUMP2 =    -0.93202268382514D+02
 Keep R2 and R3 ints in memory in symmetry-blocked form, NReq=1705586.
 Iterations=  50 Convergence= 0.100D-07
 Iteration Nr.   1
 **********************
 DD1Dir will call FoFMem   1 times, MxPair=        30
 NAB=    15 NAA=     0 NBB=     0.
 E3=        0.11400795D-02        EUMP3=      -0.93201128303D+02
 DE(CI)=     -0.27175301     E(CI)=       -93.171851987    
 NORM(A)=   0.10444944D+01
 Iteration Nr.   2
 **********************
 DD1Dir will call FoFMem   1 times, MxPair=        30
 NAB=    15 NAA=     0 NBB=     0.
 DE(CI)=     -0.28526995     E(CI)=       -93.185368926    
 NORM(A)=   0.10488327D+01
 Iteration Nr.   3
 **********************
 DD1Dir will call FoFMem   1 times, MxPair=        30
 NAB=    15 NAA=     0 NBB=     0.
 DE(CI)=     -0.28542194     E(CI)=       -93.185520909    
 NORM(A)=   0.10497952D+01
 Iteration Nr.   4
 **********************
 DD1Dir will call FoFMem   1 times, MxPair=        30
 NAB=    15 NAA=     0 NBB=     0.
 DE(CI)=     -0.28612353     E(CI)=       -93.186222505    
 NORM(A)=   0.10501740D+01
 Iteration Nr.   5
 **********************
 DD1Dir will call FoFMem   1 times, MxPair=        30
 NAB=    15 NAA=     0 NBB=     0.
 DE(CI)=     -0.28621779     E(CI)=       -93.186316766    
 NORM(A)=   0.10501749D+01
 Iteration Nr.   6
 **********************
 DD1Dir will call FoFMem   1 times, MxPair=        30
 NAB=    15 NAA=     0 NBB=     0.
 DE(CI)=     -0.28621281     E(CI)=       -93.186311778    
 NORM(A)=   0.10501599D+01
 Iteration Nr.   7
 **********************
 DD1Dir will call FoFMem   1 times, MxPair=        30
 NAB=    15 NAA=     0 NBB=     0.
 DE(CI)=     -0.28620822     E(CI)=       -93.186307188    
 NORM(A)=   0.10501635D+01
 Iteration Nr.   8
 **********************
 DD1Dir will call FoFMem   1 times, MxPair=        30
 NAB=    15 NAA=     0 NBB=     0.
 DE(CI)=     -0.28620909     E(CI)=       -93.186308062    
 NORM(A)=   0.10501641D+01
 Iteration Nr.   9
 **********************
 DD1Dir will call FoFMem   1 times, MxPair=        30
 NAB=    15 NAA=     0 NBB=     0.
 DE(CI)=     -0.28620937     E(CI)=       -93.186308343    
 NORM(A)=   0.10501642D+01
 Iteration Nr.  10
 **********************
 DD1Dir will call FoFMem   1 times, MxPair=        30
 NAB=    15 NAA=     0 NBB=     0.
 DE(CI)=     -0.28620929     E(CI)=       -93.186308266    
 NORM(A)=   0.10501641D+01
 Iteration Nr.  11
 **********************
 DD1Dir will call FoFMem   1 times, MxPair=        30
 NAB=    15 NAA=     0 NBB=     0.
 DE(CI)=     -0.28620931     E(CI)=       -93.186308282    
 NORM(A)=   0.10501641D+01
 Iteration Nr.  12
 **********************
 DD1Dir will call FoFMem   1 times, MxPair=        30
 NAB=    15 NAA=     0 NBB=     0.
 DE(CI)=     -0.28620931     E(CI)=       -93.186308286    
 NORM(A)=   0.10501641D+01
 ***************************************************************
 Largest amplitude= 4.42D-02
 Discarding MO integrals.
          IDoAtm=111
          Differentiating once with respect to electric field.
                with respect to dipole field.
          Differentiating once with respect to nuclear coordinates.
 Keep R1 ints in memory in symmetry-blocked form, NReq=1726900.
          There are     1 degrees of freedom in the 1st order CPHF.  IDoFFX=0 NUNeed=     1.
 LinEq1:  Iter=  0 NonCon=     1 RMS=6.29D-03 Max=3.58D-02 NDo=     1
 AX will form     1 AO Fock derivatives at one time.
 LinEq1:  Iter=  1 NonCon=     1 RMS=1.57D-03 Max=1.09D-02 NDo=     1
 LinEq1:  Iter=  2 NonCon=     1 RMS=3.36D-04 Max=1.86D-03 NDo=     1
 LinEq1:  Iter=  3 NonCon=     1 RMS=1.82D-04 Max=1.36D-03 NDo=     1
 LinEq1:  Iter=  4 NonCon=     1 RMS=4.77D-05 Max=3.68D-04 NDo=     1
 LinEq1:  Iter=  5 NonCon=     1 RMS=6.48D-06 Max=3.83D-05 NDo=     1
 LinEq1:  Iter=  6 NonCon=     1 RMS=7.42D-07 Max=4.25D-06 NDo=     1
 LinEq1:  Iter=  7 NonCon=     1 RMS=8.44D-08 Max=4.35D-07 NDo=     1
 LinEq1:  Iter=  8 NonCon=     1 RMS=7.75D-09 Max=4.37D-08 NDo=     1
 LinEq1:  Iter=  9 NonCon=     1 RMS=4.52D-10 Max=3.42D-09 NDo=     1
 LinEq1:  Iter= 10 NonCon=     0 RMS=2.82D-11 Max=1.97D-10 NDo=     1
 Linear equations converged to 1.000D-10 1.000D-09 after    10 iterations.
 End of Minotr F.D. properties file   721 does not exist.
 End of Minotr F.D. properties file   722 does not exist.
 End of Minotr F.D. properties file   788 does not exist.
 Calling FoFJK, ICntrl=  10002127 FMM=F ISym2X=1 I1Cent= 0 IOpClX= 0 NMat=1 NMatS=1 NMatT=0.
 ***** Axes restored to original set *****
 -------------------------------------------------------------------
 Center     Atomic                   Forces (Hartrees/Bohr)
 Number     Number              X              Y              Z
 -------------------------------------------------------------------
      1        7           0.000000000    0.000000000   -0.001522066
      2        6           0.000000000    0.000000000    0.001520834
      3        1           0.000000000    0.000000000    0.000001232
 -------------------------------------------------------------------
 Cartesian Forces:  Max     0.001522066 RMS     0.000717219

 GradGradGradGradGradGradGradGradGradGradGradGradGradGradGradGradGradGrad
 Berny optimization.
 Using GEDIIS/GDIIS optimizer.
 Internal  Forces:  Max     0.001522066 RMS     0.000761033
 Search for a local minimum.
 Step number   5 out of a maximum of   20
 All quantities printed in internal units (Hartrees-Bohrs-Radians)
 Mixed Optimization -- En-DIIS/RFO-DIIS
 Update second derivatives using D2CorX and points    1    2    3    4    5
 DE= -7.27D-05 DEPred=-7.34D-05 R= 9.92D-01
 TightC=F SS=  1.41D+00  RLast= 1.54D-02 DXNew= 8.4853D-01 4.6274D-02
 Trust test= 9.92D-01 RLast= 1.54D-02 DXMaxT set to 5.05D-01
 The second derivative matrix:
                          R1        R2        A1        A2
           R1           1.41759
           R2           0.01657   0.42293
           A1           0.00000   0.00000   0.01425
           A2           0.00000   0.00000   0.00000   0.01425
 ITU=  1  1  1  1  0
 Use linear search instead of GDIIS.
     Eigenvalues ---    0.01425   0.01425   0.42265   1.41786
 RFO step:  Lambda=-1.09537039D-06 EMin= 1.42535752D-02
 Quartic linear search produced a step of  0.06454.
 Iteration  1 RMS(Cart)=  0.00043283 RMS(Int)=  0.00000000
 Iteration  2 RMS(Cart)=  0.00000000 RMS(Int)=  0.00000000
 ClnCor:  largest displacement from symmetrization is 2.78D-17 for atom     1.
 Variable       Old X    -DE/DX   Delta X   Delta X   Delta X     New X
                                 (Linear)    (Quad)   (Total)
    R1        2.17241   0.00152   0.00036   0.00072   0.00107   2.17348
    R2        2.01325   0.00000  -0.00093   0.00090  -0.00002   2.01322
    A1        3.14159   0.00000   0.00000   0.00000   0.00000   3.14159
    A2        3.14159   0.00000   0.00000   0.00000   0.00000   3.14159
         Item               Value     Threshold  Converged?
 Maximum Force            0.001522     0.000015     NO 
 RMS     Force            0.000761     0.000010     NO 
 Maximum Displacement     0.000707     0.000060     NO 
 RMS     Displacement     0.000433     0.000040     NO 
 Predicted change in Energy=-8.174011D-07
 GradGradGradGradGradGradGradGradGradGradGradGradGradGradGradGradGradGrad

                          Input orientation:                          
 ---------------------------------------------------------------------
 Center     Atomic      Atomic             Coordinates (Angstroms)
 Number     Number       Type             X           Y           Z
 ---------------------------------------------------------------------
      1          7           0        0.000000    0.000000   -0.121889
      2          6           0        0.000000    0.000000    1.028268
      3          1           0        0.000000    0.000000    2.093621
 ---------------------------------------------------------------------
                    Distance matrix (angstroms):
                    1          2          3
     1  N    0.000000
     2  C    1.150157   0.000000
     3  H    2.215510   1.065353   0.000000
 Stoichiometry    CHN
 Framework group  C*V[C*(HCN)]
 Deg. of freedom     2
 Full point group                 C*V     NOp   4
 Largest Abelian subgroup         C2V     NOp   4
 Largest concise Abelian subgroup C1      NOp   1
                         Standard orientation:                         
 ---------------------------------------------------------------------
 Center     Atomic      Atomic             Coordinates (Angstroms)
 Number     Number       Type             X           Y           Z
 ---------------------------------------------------------------------
      1          7           0        0.000000    0.000000    0.651175
      2          6           0        0.000000    0.000000   -0.498982
      3          1           0        0.000000    0.000000   -1.564335
 ---------------------------------------------------------------------
 Rotational constants (GHZ):      0.0000000     44.7143577     44.7143577
 Standard basis: 6-311++G(d,p) (5D, 7F)
 There are    29 symmetry adapted cartesian basis functions of A1  symmetry.
 There are     2 symmetry adapted cartesian basis functions of A2  symmetry.
 There are    11 symmetry adapted cartesian basis functions of B1  symmetry.
 There are    11 symmetry adapted cartesian basis functions of B2  symmetry.
 There are    27 symmetry adapted basis functions of A1  symmetry.
 There are     2 symmetry adapted basis functions of A2  symmetry.
 There are    11 symmetry adapted basis functions of B1  symmetry.
 There are    11 symmetry adapted basis functions of B2  symmetry.
[...]
 NDeriv=   9 NFrqRd=  0 NDerD0=   0 MskFDP=       0 MskDFD=       0 MskDF0=       0
 Re-enter D2Numr: IAtom=  3 IXYZ=3 IStep= 1.
 Standard basis: 6-311++G(d,p) (5D, 7F)
    51 basis functions,    81 primitive gaussians,    53 cartesian basis functions
     7 alpha electrons        7 beta electrons
       nuclear repulsion energy        23.9716767030 Hartrees.
 NAtoms=    3 NActive=    3 NUniq=    3 SFac= 1.00D+00 NAtFMM=   60 NAOKFM=F Big=F
 Integral buffers will be    131072 words long.
 Raffenetti 1 integral format.
 Two-electron integral symmetry is turned off.
 One-electron integrals computed using PRISM.
 NBasis=    51 RedAO= T EigKep=  1.33D-03  NBF=    51
 NBsUse=    51 1.00D-06 EigRej= -1.00D+00 NBFU=    51
 Initial guess from the checkpoint file:  "HNC180CISDfc.chk"
 B after Tr=     0.000000    0.000000   -0.000270
         Rot=    1.000000    0.000000    0.000000    0.000000 Ang=   0.00 deg.
 Keep R1 ints in memory in canonical form, NReq=1742041.
 Requested convergence on RMS density matrix=1.00D-08 within 128 cycles.
 Requested convergence on MAX density matrix=1.00D-06.
 Requested convergence on             energy=1.00D-06.
 No special actions if energy rises.
 SCF Done:  E(RHF) =  -92.9000166774     A.U. after    8 cycles
            NFock=  8  Conv=0.25D-08     -V/T= 2.0018
 ExpMin= 3.60D-02 ExpMax= 6.29D+03 ExpMxC= 9.49D+02 IAcc=3 IRadAn=         5 AccDes= 0.00D+00
 HarFok:  IExCor=  205 AccDes= 0.00D+00 IRadAn=         5 IDoV=-2 UseB2=F ITyADJ=14
 ICtDFT= 12500011 ScaDFX=  1.000000  1.000000  1.000000  1.000000
 Range of M.O.s used for correlation:     3    51
 NBasis=    51 NAE=     7 NBE=     7 NFC=     2 NFV=     0
 NROrb=     49 NOA=     5 NOB=     5 NVA=    44 NVB=    44
 Semi-Direct transformation.
 ModeAB=           2 MOrb=             5 LenV=     805106627
 LASXX=       268235 LTotXX=      268235 LenRXX=      268235
 LTotAB=      284575 MaxLAS=      350595 LenRXY=      350595
 NonZer=      536470 LenScr=     1571840 LnRSAI=           0
 LnScr1=           0 LExtra=           0 Total=      2190670
 MaxDsk=          -1 SrtSym=           F ITran=            4
 JobTyp=0 Pass  1:  I=   1 to   5.
 (rs|ai) integrals will be sorted in core.
 Spin components of T(2) and E(2):
     alpha-alpha T2 =       0.1446685029D-01 E2=     -0.3860404592D-01
     alpha-beta  T2 =       0.8296903498D-01 E2=     -0.2250993693D+00
     beta-beta   T2 =       0.1446685029D-01 E2=     -0.3860404592D-01
 ANorm=    0.1054467987D+01
 E2 =    -0.3023074611D+00 EUMP2 =    -0.93202324138472D+02
 Keep R2 and R3 ints in memory in canonical form, NReq=2580899.
 Iterations=  50 Convergence= 0.100D-07
 Iteration Nr.   1
 **********************
 DD1Dir will call FoFMem   1 times, MxPair=        30
 NAB=    15 NAA=     0 NBB=     0.
 E3=        0.11912537D-02        EUMP3=      -0.93201132885D+02
 DE(CI)=     -0.27180192     E(CI)=       -93.171818597    
 NORM(A)=   0.10445257D+01
 Iteration Nr.   2
 **********************
 DD1Dir will call FoFMem   1 times, MxPair=        30
 NAB=    15 NAA=     0 NBB=     0.
 DE(CI)=     -0.28535321     E(CI)=       -93.185369890    
 NORM(A)=   0.10488724D+01
 Iteration Nr.   3
 **********************
 DD1Dir will call FoFMem   1 times, MxPair=        30
 NAB=    15 NAA=     0 NBB=     0.
 DE(CI)=     -0.28550232     E(CI)=       -93.185518999    
 NORM(A)=   0.10498369D+01
 Iteration Nr.   4
 **********************
 DD1Dir will call FoFMem   1 times, MxPair=        30
 NAB=    15 NAA=     0 NBB=     0.
 DE(CI)=     -0.28620553     E(CI)=       -93.186222212    
 NORM(A)=   0.10502174D+01
 Iteration Nr.   5
 **********************
 DD1Dir will call FoFMem   1 times, MxPair=        30
 NAB=    15 NAA=     0 NBB=     0.
 DE(CI)=     -0.28630024     E(CI)=       -93.186316915    
 NORM(A)=   0.10502185D+01
 Iteration Nr.   6
 **********************
 DD1Dir will call FoFMem   1 times, MxPair=        30
 NAB=    15 NAA=     0 NBB=     0.
 DE(CI)=     -0.28629526     E(CI)=       -93.186311934    
 NORM(A)=   0.10502034D+01
 Iteration Nr.   7
 **********************
 DD1Dir will call FoFMem   1 times, MxPair=        30
 NAB=    15 NAA=     0 NBB=     0.
 DE(CI)=     -0.28629063     E(CI)=       -93.186307309    
 NORM(A)=   0.10502070D+01
 Iteration Nr.   8
 **********************
 DD1Dir will call FoFMem   1 times, MxPair=        30
 NAB=    15 NAA=     0 NBB=     0.
 DE(CI)=     -0.28629151     E(CI)=       -93.186308188    
 NORM(A)=   0.10502076D+01
 Iteration Nr.   9
 **********************
 DD1Dir will call FoFMem   1 times, MxPair=        30
 NAB=    15 NAA=     0 NBB=     0.
 DE(CI)=     -0.28629179     E(CI)=       -93.186308471    
 NORM(A)=   0.10502077D+01
 Iteration Nr.  10
 **********************
 DD1Dir will call FoFMem   1 times, MxPair=        30
 NAB=    15 NAA=     0 NBB=     0.
 DE(CI)=     -0.28629172     E(CI)=       -93.186308393    
 NORM(A)=   0.10502076D+01
 Iteration Nr.  11
 **********************
 DD1Dir will call FoFMem   1 times, MxPair=        30
 NAB=    15 NAA=     0 NBB=     0.
 DE(CI)=     -0.28629173     E(CI)=       -93.186308410    
 NORM(A)=   0.10502076D+01
 Iteration Nr.  12
 **********************
 DD1Dir will call FoFMem   1 times, MxPair=        30
 NAB=    15 NAA=     0 NBB=     0.
 DE(CI)=     -0.28629174     E(CI)=       -93.186308413    
 NORM(A)=   0.10502076D+01
 ***************************************************************
 Largest amplitude= 4.38D-02
 Discarding MO integrals.
          IDoAtm=111
          Differentiating once with respect to electric field.
                with respect to dipole field.
          Differentiating once with respect to nuclear coordinates.
 Keep R1 ints in memory in canonical form, NReq=1722250.
          There are     1 degrees of freedom in the 1st order CPHF.  IDoFFX=0 NUNeed=     1.
 LinEq1:  Iter=  0 NonCon=     1 RMS=6.30D-03 Max=3.55D-02 NDo=     1
 AX will form     1 AO Fock derivatives at one time.
 LinEq1:  Iter=  1 NonCon=     1 RMS=1.57D-03 Max=1.09D-02 NDo=     1
 LinEq1:  Iter=  2 NonCon=     1 RMS=3.37D-04 Max=1.87D-03 NDo=     1
 LinEq1:  Iter=  3 NonCon=     1 RMS=1.84D-04 Max=1.37D-03 NDo=     1
 LinEq1:  Iter=  4 NonCon=     1 RMS=4.79D-05 Max=3.69D-04 NDo=     1
 LinEq1:  Iter=  5 NonCon=     1 RMS=6.51D-06 Max=3.86D-05 NDo=     1
 LinEq1:  Iter=  6 NonCon=     1 RMS=7.46D-07 Max=4.28D-06 NDo=     1
 LinEq1:  Iter=  7 NonCon=     1 RMS=8.48D-08 Max=4.36D-07 NDo=     1
 LinEq1:  Iter=  8 NonCon=     1 RMS=7.79D-09 Max=4.39D-08 NDo=     1
 LinEq1:  Iter=  9 NonCon=     1 RMS=4.54D-10 Max=3.43D-09 NDo=     1
 LinEq1:  Iter= 10 NonCon=     0 RMS=2.84D-11 Max=2.03D-10 NDo=     1
 Linear equations converged to 1.000D-10 1.000D-09 after    10 iterations.
 End of Minotr F.D. properties file   721 does not exist.
 End of Minotr F.D. properties file   722 does not exist.
 End of Minotr F.D. properties file   788 does not exist.

 **********************************************************************

            Population analysis using the CI density.

 **********************************************************************

 Alpha  occ. eigenvalues --  -15.60159 -11.29373  -1.24292  -0.81318  -0.58326
 Alpha  occ. eigenvalues --   -0.49913  -0.49913
 Alpha virt. eigenvalues --    0.03587   0.08724   0.09027   0.09027   0.16815
 Alpha virt. eigenvalues --    0.17546   0.17546   0.20861   0.27691   0.27691
 Alpha virt. eigenvalues --    0.28387   0.33836   0.53569   0.70308   0.70308
 Alpha virt. eigenvalues --    0.75492   0.94301   0.96883   1.06220   1.06220
 Alpha virt. eigenvalues --    1.29422   1.39933   1.39933   1.46955   1.49573
 Alpha virt. eigenvalues --    1.49573   2.07982   2.07982   2.24541   2.38663
 Alpha virt. eigenvalues --    2.38663   2.82199   2.98366   2.98366   3.21628
 Alpha virt. eigenvalues --    3.23908   3.23908   3.43822   3.78334   4.39964
 Alpha virt. eigenvalues --    4.39964   5.04670  25.48593  37.19008
          Condensed to atoms (all electrons):
               1          2          3
     1  N    6.698598   0.529375  -0.008070
     2  C    0.529375   5.076091   0.367842
     3  H   -0.008070   0.367842   0.447018
 Mulliken charges:
               1
     1  N   -0.219903
     2  C    0.026693
     3  H    0.193211
 Sum of Mulliken charges =   0.00000
 Mulliken charges with hydrogens summed into heavy atoms:
               1
     1  N   -0.219903
     2  C    0.219903
 Electronic spatial extent (au):  <R**2>=             49.6243
 Charge=              0.0000 electrons
 Dipole moment (field-independent basis, Debye):
    X=              0.0000    Y=              0.0000    Z=             -3.0708  Tot=              3.0708
 Quadrupole moment (field-independent basis, Debye-Ang):
   XX=            -11.7904   YY=            -11.7904   ZZ=             -9.9617
   XY=              0.0000   XZ=              0.0000   YZ=              0.0000
 Traceless Quadrupole moment (field-independent basis, Debye-Ang):
   XX=             -0.6095   YY=             -0.6095   ZZ=              1.2191
   XY=              0.0000   XZ=              0.0000   YZ=              0.0000
 Octapole moment (field-independent basis, Debye-Ang**2):
  XXX=              0.0000  YYY=              0.0000  ZZZ=             -7.7488  XYY=              0.0000
  XXY=              0.0000  XXZ=             -0.3176  XZZ=              0.0000  YZZ=              0.0000
  YYZ=             -0.3176  XYZ=              0.0000
 Hexadecapole moment (field-independent basis, Debye-Ang**3):
 XXXX=            -11.9662 YYYY=            -11.9662 ZZZZ=            -36.5034 XXXY=              0.0000
 XXXZ=              0.0000 YYYX=              0.0000 YYYZ=              0.0000 ZZZX=              0.0000
 ZZZY=              0.0000 XXYY=             -3.9887 XXZZ=             -9.2905 YYZZ=             -9.2905
 XXYZ=              0.0000 YYXZ=              0.0000 ZZXY=              0.0000
 N-N= 2.397167670302D+01 E-N=-2.658025891111D+02  KE= 9.312175912141D+01
 Calling FoFJK, ICntrl=  10002127 FMM=F ISym2X=0 I1Cent= 0 IOpClX= 0 NMat=1 NMatS=1 NMatT=0.
 -------------------------------------------------------------------
 Center     Atomic                   Forces (Hartrees/Bohr)
 Number     Number              X              Y              Z
 -------------------------------------------------------------------
      1        7           0.000000000    0.000000000    0.000026764
      2        6           0.000000000    0.000000000   -0.000818059
      3        1           0.000000000    0.000000000    0.000791295
 -------------------------------------------------------------------
 Cartesian Forces:  Max     0.000818059 RMS     0.000379486
 NDeriv=   9 NFrqRd=  0 NDerD0=   0 MskFDP=       0 MskDFD=       0 MskDF0=       0
 Re-enter D2Numr: IAtom=  3 IXYZ=3 IStep= 2.
 Maximum difference in off-diagonal FC elements:
 I=  7 J=  1 Difference=    2.7694210326D-05
 Max difference between analytic and numerical forces:
 I=  3 Difference=    2.6185653032D-06
 Full mass-weighted force constant matrix:
 Low frequencies ---   -7.8495   -7.8494    0.0016    4.4818    4.4818  776.7835
 Low frequencies ---  776.7835 2228.5156 3525.9617
 Diagonal vibrational polarizability:
        1.8120924       1.8120924       0.1620774
 Harmonic frequencies (cm**-1), IR intensities (KM/Mole), Raman scattering
 activities (A**4/AMU), depolarization ratios for plane and unpolarized
 incident light, reduced masses (AMU), force constants (mDyne/A),
 and normal coordinates:
                      1                      2                      3
                     PI                     PI                     SG
 Frequencies --    776.7835               776.7835              2228.5156
 Red. masses --      1.3430                 1.3430                 5.1511
 Frc consts  --      0.4774                 0.4774                15.0723
 IR Inten    --     40.6300                40.6300                 2.0537
  Atom  AN      X      Y      Z        X      Y      Z        X      Y      Z
     1   7    -0.04   0.05   0.00     0.05   0.04   0.00     0.00   0.00   0.41
     2   6     0.11  -0.12   0.00    -0.12  -0.11   0.00     0.00   0.00  -0.42
     3   1    -0.66   0.73   0.00     0.73   0.66   0.00     0.00   0.00  -0.81
                      4
                     SG
 Frequencies --   3525.9617
 Red. masses --      1.1880
 Frc consts  --      8.7017
 IR Inten    --     69.7351
  Atom  AN      X      Y      Z
     1   7     0.00   0.00  -0.03
     2   6     0.00   0.00   0.12
     3   1     0.00   0.00  -0.99

 -------------------
 - Thermochemistry -
 -------------------
 Temperature   298.150 Kelvin.  Pressure   1.00000 Atm.
 Atom     1 has atomic number  7 and mass  14.00307
 Atom     2 has atomic number  6 and mass  12.00000
 Atom     3 has atomic number  1 and mass   1.00783
 Molecular mass:    27.01090 amu.
 Principal axes and moments of inertia in atomic units:
                           1         2         3
     Eigenvalues --     0.00000  40.36443  40.36443
           X            0.00000   0.00000   1.00000
           Y            0.00000   1.00000   0.00000
           Z            1.00000   0.00000   0.00000
 This molecule is a prolate symmetric top.
 Rotational symmetry number  1.
 Rotational temperature (Kelvin)      2.14580
 Rotational constant (GHZ):          44.711178
 Zero-point vibrational energy      43711.8 (Joules/Mol)
                                   10.44737 (Kcal/Mol)
 Vibrational temperatures:   1117.62  1117.62  3206.33  5073.07
          (Kelvin)
 
 Zero-point correction=                           0.016649 (Hartree/Particle)
 Thermal correction to Energy=                    0.019180
 Thermal correction to Enthalpy=                  0.020125
 Thermal correction to Gibbs Free Energy=        -0.002712
 Sum of electronic and zero-point Energies=            -93.169660
 Sum of electronic and thermal Energies=               -93.167129
 Sum of electronic and thermal Enthalpies=             -93.166185
 Sum of electronic and thermal Free Energies=          -93.189021
 
                     E (Thermal)             CV                S
                      KCal/Mol        Cal/Mol-Kelvin    Cal/Mol-Kelvin
 Total                   12.036              6.352             48.063
 Electronic               0.000              0.000              0.000
 Translational            0.889              2.981             35.816
 Rotational               0.592              1.987             11.792
 Vibrational             10.555              1.384              0.455
                       Q            Log10(Q)             Ln(Q)
 Total Bot       0.176747D+02          1.247353          2.872137
 Total V=0       0.804122D+09          8.905322         20.505262
 Vib (Bot)       0.230538D-07         -7.637257        -17.585434
 Vib (V=0)       0.104885D+01          0.020712          0.047691
 Electronic      0.100000D+01          0.000000          0.000000
 Translational   0.551777D+07          6.741764         15.523485
 Rotational      0.138946D+03          2.142846          4.934086
 ***** Axes restored to original set *****
 -------------------------------------------------------------------
 Center     Atomic                   Forces (Hartrees/Bohr)
 Number     Number              X              Y              Z
 -------------------------------------------------------------------
      1        7           0.000000000    0.000000000   -0.000000205
      2        6           0.000000000    0.000000000   -0.000000002
      3        1           0.000000000    0.000000000    0.000000207
 -------------------------------------------------------------------
 Cartesian Forces:  Max     0.000000207 RMS     0.000000097
 FormGI is forming the generalized inverse of G from B-inverse, IUseBI=4.

 GradGradGradGradGradGradGradGradGradGradGradGradGradGradGradGradGradGrad
 Berny optimization.
 Internal  Forces:  Max     0.000000207 RMS     0.000000146
 Search for a local minimum.
 Step number   1 out of a maximum of    2
 All quantities printed in internal units (Hartrees-Bohrs-Radians)
 Second derivative matrix not updated -- analytic derivatives used.
 The second derivative matrix:
                          R1        R2        A1        A2
           R1           1.32042
           R2          -0.01406   0.42001
           A1           0.00000   0.00000   0.06794
           A2           0.00000   0.00000   0.00000   0.06794
 ITU=  0
     Eigenvalues ---    0.06794   0.06794   0.41979   1.32064
 Angle between quadratic step and forces=  90.00 degrees.
 Linear search not attempted -- first point.
 Iteration  1 RMS(Cart)=  0.00000024 RMS(Int)=  0.00000000
 ClnCor:  largest displacement from symmetrization is 4.44D-16 for atom     3.
 Variable       Old X    -DE/DX   Delta X   Delta X   Delta X     New X
                                 (Linear)    (Quad)   (Total)
    R1        2.17356   0.00000   0.00000   0.00000   0.00000   2.17356
    R2        2.01329   0.00000   0.00000   0.00000   0.00000   2.01329
    A1        3.14159   0.00000   0.00000   0.00000   0.00000   3.14159
    A2        3.14159   0.00000   0.00000   0.00000   0.00000   3.14159
         Item               Value     Threshold  Converged?
 Maximum Force            0.000000     0.000015     YES
 RMS     Force            0.000000     0.000010     YES
 Maximum Displacement     0.000000     0.000060     YES
 RMS     Displacement     0.000000     0.000040     YES
 Predicted change in Energy=-6.811031D-14
 Optimization completed.
    -- Stationary point found.
                           ----------------------------
                           !   Optimized Parameters   !
                           ! (Angstroms and Degrees)  !
 --------------------------                            --------------------------
 ! Name  Definition              Value          Derivative Info.                !
 --------------------------------------------------------------------------------
 ! R1    R(1,2)                  1.1502         -DE/DX =    0.0                 !
 ! R2    R(2,3)                  1.0654         -DE/DX =    0.0                 !
 ! A1    L(1,2,3,-1,-1)        180.0            -DE/DX =    0.0                 !
 ! A2    L(1,2,3,-2,-2)        180.0            -DE/DX =    0.0                 !
 --------------------------------------------------------------------------------
 GradGradGradGradGradGradGradGradGradGradGradGradGradGradGradGradGradGrad

 1\1\GINC-TC-NODE166\Freq\RCISD-FC\6-311++G(d,p)\C1H1N1\MAXB2\30-Sep-20
 16\0\\#N Geom=AllCheck Guess=TCheck SCRF=Check GenChk RCISD(FC)/6-311+
 +G(d,p) Freq\\HNC-HCN\\0,1\N,0.,0.,-0.1219284434\C,0.,0.,1.028270511\H
 ,0.,0.,2.0936579324\\Version=ES64L-G09RevD.01\State=1-SG\HF=-92.900027
 2\MP2=-93.2023223\MP3=-93.2011315\CISD=-93.1863092\RMSD=4.371e-10\RMSF
 =9.714e-08\ZeroPoint=0.0166489\Thermal=0.0191804\Dipole=0.,0.,1.207666
 4\DipoleDeriv=-0.3080234,0.,0.,0.,-0.3080234,0.,0.,0.,-0.0016629,0.040
 7413,0.,0.,0.,0.0407413,0.,0.,0.,-0.2601315,0.2673045,0.,0.,0.,0.26730
 45,0.,0.,0.,0.2617851\Quadrupole=-0.4520049,-0.4520049,0.9040098,0.,0.
 ,0.\QuadrupoleDeriv=0.,0.,0.,0.,0.5579994,0.,0.,0.,0.,0.,0.,0.5579994,
 0.2289582,0.2289582,-0.4579164,0.,0.,0.,0.,0.,0.,0.,-0.0608623,0.,0.,0
 .,0.,0.,0.,-0.0608623,-0.4098547,-0.4098547,0.8197094,0.,0.,0.,0.,0.,0
 .,0.,0.710339,0.,0.,0.,0.,0.,0.,0.710339,-0.6242173,-0.6242173,1.24843
 45,0.,0.,0.\PG=C*V [C*(H1C1N1)]\NImag=0\\0.01440236,0.,0.01440236,0.,0
 .,1.32041951,-0.02991577,0.,0.,0.06219007,0.,-0.02991577,0.,0.,0.06219
 007,0.,0.,-1.33448211,0.,0.,1.76855844,0.01552949,0.,0.,-0.03228593,0.
 ,0.,0.01675197,0.,0.01552949,0.,0.,-0.03228593,0.,0.,0.01675197,0.,0.,
 0.01406363,0.,0.,-0.43407735,0.,0.,0.42001371\\0.,0.,0.00000020,0.,0.,
 0.,0.,0.,-0.00000021\\\@


 THE MOST INCOMPREHENSIBLE THING ABOUT THE WORLD
 IS THAT IT IS COMPREHENSIBLE. -- A. EINSTEIN
 Job cpu time:       0 days  0 hours  2 minutes 19.9 seconds.
 File lengths (MBytes):  RWF=    138 Int=      0 D2E=      0 Chk=     39 Scr=      1
 Normal termination of Gaussian 09 at Fri Sep 30 11:36:19 2016.
