 Entering Gaussian System, Link 0=g09
 Initial command:
 /cluster/software/gaussian/gaussian-09-D.01/g09/l1.exe "/local/scratch/maxb2/Gau-7101.inp" -scrdir="/local/scratch/maxb2/"
 Entering Link 1 = /cluster/software/gaussian/gaussian-09-D.01/g09/l1.exe PID=      7102.
  
 Copyright (c) 1988,1990,1992,1993,1995,1998,2003,2009,2013,
            Gaussian, Inc.  All Rights Reserved.
  
 This is part of the Gaussian(R) 09 program.  It is based on
 the Gaussian(R) 03 system (copyright 2003, Gaussian, Inc.),
 the Gaussian(R) 98 system (copyright 1998, Gaussian, Inc.),
 the Gaussian(R) 94 system (copyright 1995, Gaussian, Inc.),
 the Gaussian 92(TM) system (copyright 1992, Gaussian, Inc.),
 the Gaussian 90(TM) system (copyright 1990, Gaussian, Inc.),
 the Gaussian 88(TM) system (copyright 1988, Gaussian, Inc.),
 the Gaussian 86(TM) system (copyright 1986, Carnegie Mellon
 University), and the Gaussian 82(TM) system (copyright 1983,
 Carnegie Mellon University). Gaussian is a federally registered
 trademark of Gaussian, Inc.
  
 This software contains proprietary and confidential information,
 including trade secrets, belonging to Gaussian, Inc.
  
 This software is provided under written license and may be
 used, copied, transmitted, or stored only in accord with that
 written license.
  
 The following legend is applicable only to US Government
 contracts under FAR:
  
                    RESTRICTED RIGHTS LEGEND
  
 Use, reproduction and disclosure by the US Government is
 subject to restrictions as set forth in subparagraphs (a)
 and (c) of the Commercial Computer Software - Restricted
 Rights clause in FAR 52.227-19.
  
 Gaussian, Inc.
 340 Quinnipiac St., Bldg. 40, Wallingford CT 06492
  
  
 ---------------------------------------------------------------
 Warning -- This program may not be used in any manner that
 competes with the business of Gaussian, Inc. or will provide
 assistance to any competitor of Gaussian, Inc.  The licensee
 of this program is prohibited from giving any competitor of
 Gaussian, Inc. access to this program.  By using this program,
 the user acknowledges that Gaussian, Inc. is engaged in the
 business of creating and licensing software in the field of
 computational chemistry and represents and warrants to the
 licensee that it is not a competitor of Gaussian, Inc. and that
 it will not use this program in any manner prohibited above.
 ---------------------------------------------------------------
  

 Cite this work as:
 Gaussian 09, Revision D.01,
 M. J. Frisch, G. W. Trucks, H. B. Schlegel, G. E. Scuseria, 
 M. A. Robb, J. R. Cheeseman, G. Scalmani, V. Barone, B. Mennucci, 
 G. A. Petersson, H. Nakatsuji, M. Caricato, X. Li, H. P. Hratchian, 
 A. F. Izmaylov, J. Bloino, G. Zheng, J. L. Sonnenberg, M. Hada, 
 M. Ehara, K. Toyota, R. Fukuda, J. Hasegawa, M. Ishida, T. Nakajima, 
 Y. Honda, O. Kitao, H. Nakai, T. Vreven, J. A. Montgomery, Jr., 
 J. E. Peralta, F. Ogliaro, M. Bearpark, J. J. Heyd, E. Brothers, 
 K. N. Kudin, V. N. Staroverov, T. Keith, R. Kobayashi, J. Normand, 
 K. Raghavachari, A. Rendell, J. C. Burant, S. S. Iyengar, J. Tomasi, 
 M. Cossi, N. Rega, J. M. Millam, M. Klene, J. E. Knox, J. B. Cross, 
 V. Bakken, C. Adamo, J. Jaramillo, R. Gomperts, R. E. Stratmann, 
 O. Yazyev, A. J. Austin, R. Cammi, C. Pomelli, J. W. Ochterski, 
 R. L. Martin, K. Morokuma, V. G. Zakrzewski, G. A. Voth, 
 P. Salvador, J. J. Dannenberg, S. Dapprich, A. D. Daniels, 
 O. Farkas, J. B. Foresman, J. V. Ortiz, J. Cioslowski, 
 and D. J. Fox, Gaussian, Inc., Wallingford CT, 2013.
 
 ******************************************
 Gaussian 09:  ES64L-G09RevD.01 24-Apr-2013
                30-Sep-2016 
 ******************************************
 %nosave
 %mem=6GB
 %nprocshared=2
 Will use up to    2 processors via shared memory.
 %chk=HNC0CISDfc
 ----------------------------------------
 # opt=tight freq CISD(fc)/6-311++g** gfp
 ----------------------------------------
 1/7=10,18=20,19=15,38=1/1,3;
 2/9=110,12=2,17=6,18=5,40=1/2;
 3/5=4,6=6,7=1111,11=9,16=1,24=100,25=1,30=1,71=1/1,2,3;
 4//1;
 5/5=2,38=5/2;
 8/6=4,9=120000,10=2/1,4;
 9/15=1/13;
 11/28=-4,29=200,42=3/11;
 10/5=3/2;
 6/7=2,8=2,9=2,10=2/1;
 7/12=6/1,2,3,16;
 1/7=10,18=20,19=15/3(2);
 2/9=110/2;
 99//99;
 2/9=110/2;
 3/5=4,6=6,7=1111,11=9,16=1,25=1,30=1,71=1/1,2,3;
 4/5=5,16=3,69=1/1;
 5/5=2,38=5/2;
 8/6=4,9=120000,10=2/1,4;
 9/15=1/13;
 11/28=-4,29=200,42=3/11;
 10/5=3/2;
 7/12=6/1,2,3,16;
 1/7=10,18=20,19=15/3(-9);
 2/9=110/2;
 6/7=2,8=2,9=2,10=2/1;
 99//99;
 -------
 HNC-HCN
 -------
 Symbolic Z-matrix:
 Charge =  0 Multiplicity = 1
 N
 C                    1    B1
 H                    2    B2       1    A1
       Variables:
  B1                    1.                       
  B2                    2.3                      
  A1                    0.                       
 
 Add virtual bond connecting atoms H3         and N1         Dist= 2.46D+00.

 GradGradGradGradGradGradGradGradGradGradGradGradGradGradGradGradGradGrad
 Berny optimization.
 Initialization pass.
                           ----------------------------
                           !    Initial Parameters    !
                           ! (Angstroms and Degrees)  !
 --------------------------                            --------------------------
 ! Name  Definition              Value          Derivative Info.                !
 --------------------------------------------------------------------------------
 ! R1    R(1,2)                  1.0            estimate D2E/DX2                !
 ! R2    R(1,3)                  1.3            estimate D2E/DX2                !
 ! A1    L(2,1,3,-1,-1)        180.0            estimate D2E/DX2                !
 ! A2    L(2,1,3,-2,-2)        180.0            estimate D2E/DX2                !
 --------------------------------------------------------------------------------
 Trust Radius=3.00D-01 FncErr=1.00D-07 GrdErr=1.00D-07
 Number of steps in this run=     20 maximum allowed number of steps=    100.
 GradGradGradGradGradGradGradGradGradGradGradGradGradGradGradGradGradGrad

                          Input orientation:                          
 ---------------------------------------------------------------------
 Center     Atomic      Atomic             Coordinates (Angstroms)
 Number     Number       Type             X           Y           Z
 ---------------------------------------------------------------------
      1          7           0        0.000000    0.000000    0.000000
      2          6           0        0.000000    0.000000    1.000000
      3          1           0        0.000000    0.000000   -1.300000
 ---------------------------------------------------------------------
                    Distance matrix (angstroms):
                    1          2          3
     1  N    0.000000
     2  C    1.000000   0.000000
     3  H    1.300000   2.300000   0.000000
 Stoichiometry    CHN
 Framework group  C*V[C*(CNH)]
 Deg. of freedom     2
 Full point group                 C*V     NOp   4
 Largest Abelian subgroup         C2V     NOp   4
 Largest concise Abelian subgroup C1      NOp   1
                         Standard orientation:                         
 ---------------------------------------------------------------------
 Center     Atomic      Atomic             Coordinates (Angstroms)
 Number     Number       Type             X           Y           Z
 ---------------------------------------------------------------------
      1          7           0        0.000000    0.000000    0.335714
      2          6           0        0.000000    0.000000   -0.664286
      3          1           0        0.000000    0.000000    1.635714
 ---------------------------------------------------------------------
 Rotational constants (GHZ):      0.0000000     53.3515517     53.3515517
 Standard basis: 6-311++G(d,p) (5D, 7F)
 AO basis set (Overlap normalization):
 Atom N1       Shell     1 S   6     bf    1 -     1          0.000000000000          0.000000000000          0.634408058897
      0.6293480000D+04  0.1969788147D-02
      0.9490440000D+03  0.1496128592D-01
      0.2187760000D+03  0.7350053084D-01
      0.6369160000D+02  0.2489367658D+00
      0.1882820000D+02  0.6024594331D+00
      0.2720230000D+01  0.2562017589D+00
 Atom N1       Shell     2 SP   3    bf    2 -     5          0.000000000000          0.000000000000          0.634408058897
      0.3063310000D+02  0.1119060795D+00  0.3831191864D-01
      0.7026140000D+01  0.9216666549D+00  0.2374031155D+00
      0.2112050000D+01 -0.2569191826D-02  0.8175923978D+00
 Atom N1       Shell     3 SP   1    bf    6 -     9          0.000000000000          0.000000000000          0.634408058897
      0.6840090000D+00  0.1000000000D+01  0.1000000000D+01
 Atom N1       Shell     4 SP   1    bf   10 -    13          0.000000000000          0.000000000000          0.634408058897
      0.2008780000D+00  0.1000000000D+01  0.1000000000D+01
 Atom N1       Shell     5 SP   1    bf   14 -    17          0.000000000000          0.000000000000          0.634408058897
      0.6390000000D-01  0.1000000000D+01  0.1000000000D+01
 Atom N1       Shell     6 D   1     bf   18 -    22          0.000000000000          0.000000000000          0.634408058897
      0.9130000000D+00  0.1000000000D+01
 Atom C2       Shell     7 S   6     bf   23 -    23          0.000000000000          0.000000000000         -1.255318073988
      0.4563240000D+04  0.1966650249D-02
      0.6820240000D+03  0.1523060193D-01
      0.1549730000D+03  0.7612690966D-01
      0.4445530000D+02  0.2608010331D+00
      0.1302900000D+02  0.6164620782D+00
      0.1827730000D+01  0.2210060280D+00
 Atom C2       Shell     8 SP   3    bf   24 -    27          0.000000000000          0.000000000000         -1.255318073988
      0.2096420000D+02  0.1146600807D+00  0.4024869267D-01
      0.4803310000D+01  0.9199996477D+00  0.2375939567D+00
      0.1459330000D+01 -0.3030682134D-02  0.8158538515D+00
 Atom C2       Shell     9 SP   1    bf   28 -    31          0.000000000000          0.000000000000         -1.255318073988
      0.4834560000D+00  0.1000000000D+01  0.1000000000D+01
 Atom C2       Shell    10 SP   1    bf   32 -    35          0.000000000000          0.000000000000         -1.255318073988
      0.1455850000D+00  0.1000000000D+01  0.1000000000D+01
 Atom C2       Shell    11 SP   1    bf   36 -    39          0.000000000000          0.000000000000         -1.255318073988
      0.4380000000D-01  0.1000000000D+01  0.1000000000D+01
 Atom C2       Shell    12 D   1     bf   40 -    44          0.000000000000          0.000000000000         -1.255318073988
      0.6260000000D+00  0.1000000000D+01
 Atom H3       Shell    13 S   3     bf   45 -    45          0.000000000000          0.000000000000          3.091052031649
      0.3386500000D+02  0.2549381454D-01
      0.5094790000D+01  0.1903731086D+00
      0.1158790000D+01  0.8521614860D+00
 Atom H3       Shell    14 S   1     bf   46 -    46          0.000000000000          0.000000000000          3.091052031649
      0.3258400000D+00  0.1000000000D+01
 Atom H3       Shell    15 S   1     bf   47 -    47          0.000000000000          0.000000000000          3.091052031649
      0.1027410000D+00  0.1000000000D+01
 Atom H3       Shell    16 S   1     bf   48 -    48          0.000000000000          0.000000000000          3.091052031649
      0.3600000000D-01  0.1000000000D+01
 Atom H3       Shell    17 P   1     bf   49 -    51          0.000000000000          0.000000000000          3.091052031649
      0.7500000000D+00  0.1000000000D+01
 There are    29 symmetry adapted cartesian basis functions of A1  symmetry.
 There are     2 symmetry adapted cartesian basis functions of A2  symmetry.
 There are    11 symmetry adapted cartesian basis functions of B1  symmetry.
 There are    11 symmetry adapted cartesian basis functions of B2  symmetry.
 There are    27 symmetry adapted basis functions of A1  symmetry.
 There are     2 symmetry adapted basis functions of A2  symmetry.
 There are    11 symmetry adapted basis functions of B1  symmetry.
 There are    11 symmetry adapted basis functions of B2  symmetry.
    51 basis functions,    81 primitive gaussians,    53 cartesian basis functions
     7 alpha electrons        7 beta electrons
       nuclear repulsion energy        26.4553207826 Hartrees.
 NAtoms=    3 NActive=    3 NUniq=    3 SFac= 1.00D+00 NAtFMM=   60 NAOKFM=F Big=F
 Integral buffers will be    131072 words long.
 Raffenetti 1 integral format.
 Two-electron integral symmetry is turned on.
 One-electron integrals computed using PRISM.
 NBasis=    51 RedAO= T EigKep=  1.79D-03  NBF=    27     2    11    11
 NBsUse=    51 1.00D-06 EigRej= -1.00D+00 NBFU=    27     2    11    11
 ExpMin= 3.60D-02 ExpMax= 6.29D+03 ExpMxC= 9.49D+02 IAcc=3 IRadAn=         5 AccDes= 0.00D+00
 Harris functional with IExCor=  205 and IRadAn=       5 diagonalized for initial guess.
 HarFok:  IExCor=  205 AccDes= 0.00D+00 IRadAn=         5 IDoV= 1 UseB2=F ITyADJ=14
 ICtDFT=  3500011 ScaDFX=  1.000000  1.000000  1.000000  1.000000
 FoFCou: FMM=F IPFlag=           0 FMFlag=      100000 FMFlg1=           0
         NFxFlg=           0 DoJE=T BraDBF=F KetDBF=T FulRan=T
         wScrn=  0.000000 ICntrl=     500 IOpCl=  0 I1Cent=   200000004 NGrid=           0
         NMat0=    1 NMatS0=      1 NMatT0=    0 NMatD0=    1 NMtDS0=    0 NMtDT0=    0
 Petite list used in FoFCou.
 Initial guess orbital symmetries:
       Occupied  (SG) (SG) (SG) (SG) (PI) (PI) (SG)
       Virtual   (SG) (PI) (PI) (SG) (PI) (PI) (SG) (SG) (PI) (PI)
                 (SG) (SG) (SG) (SG) (PI) (PI) (PI) (PI) (SG) (SG)
                 (SG) (DLTA) (DLTA) (SG) (PI) (PI) (PI) (PI) (SG)
                 (DLTA) (DLTA) (SG) (PI) (PI) (SG) (PI) (PI) (SG)
                 (SG) (PI) (PI) (SG) (SG) (SG)
 The electronic state of the initial guess is 1-SG.
 Keep R1 ints in memory in symmetry-blocked form, NReq=1746640.
 Requested convergence on RMS density matrix=1.00D-08 within 128 cycles.
 Requested convergence on MAX density matrix=1.00D-06.
 Requested convergence on             energy=1.00D-06.
 No special actions if energy rises.
 SCF Done:  E(RHF) =  -92.7520603033     A.U. after   10 cycles
            NFock= 10  Conv=0.91D-08     -V/T= 1.9919
 ExpMin= 3.60D-02 ExpMax= 6.29D+03 ExpMxC= 9.49D+02 IAcc=3 IRadAn=         5 AccDes= 0.00D+00
 HarFok:  IExCor=  205 AccDes= 0.00D+00 IRadAn=         5 IDoV=-2 UseB2=F ITyADJ=14
 ICtDFT= 12500011 ScaDFX=  1.000000  1.000000  1.000000  1.000000
 Range of M.O.s used for correlation:     3    51
 NBasis=    51 NAE=     7 NBE=     7 NFC=     2 NFV=     0
 NROrb=     49 NOA=     5 NOB=     5 NVA=    44 NVB=    44

 **** Warning!!: The largest alpha MO coefficient is  0.12022570D+02

 Semi-Direct transformation.
 ModeAB=           2 MOrb=             5 LenV=     805105453
 LASXX=        74437 LTotXX=       74437 LenRXX=       74437
 LTotAB=       80677 MaxLAS=      350595 LenRXY=      350595
 NonZer=      370440 LenScr=     1111040 LnRSAI=           0
 LnScr1=           0 LExtra=           0 Total=      1536072
 MaxDsk=          -1 SrtSym=           F ITran=            4
 JobTyp=0 Pass  1:  I=   1 to   5.
 (rs|ai) integrals will be sorted in core.
 Spin components of T(2) and E(2):
     alpha-alpha T2 =       0.1105400317D-01 E2=     -0.3465395365D-01
     alpha-beta  T2 =       0.6892937825D-01 E2=     -0.2080109147D+00
     beta-beta   T2 =       0.1105400317D-01 E2=     -0.3465395365D-01
 ANorm=    0.1044527350D+01
 E2 =    -0.2773188220D+00 EUMP2 =    -0.93029379125269D+02
 Keep R2 and R3 ints in memory in symmetry-blocked form, NReq=1705586.
 Iterations=  50 Convergence= 0.100D-07
 Iteration Nr.   1
 **********************
 DD1Dir will call FoFMem   1 times, MxPair=        30
 NAB=    15 NAA=     0 NBB=     0.
 E3=       -0.95919655D-02        EUMP3=      -0.93038971091D+02
 DE(CI)=     -0.26314860     E(CI)=       -93.015208907    
 NORM(A)=   0.10411405D+01
 Iteration Nr.   2
 **********************
 DD1Dir will call FoFMem   1 times, MxPair=        30
 NAB=    15 NAA=     0 NBB=     0.
 DE(CI)=     -0.27103574     E(CI)=       -93.023096042    
 NORM(A)=   0.10446820D+01
 Iteration Nr.   3
 **********************
 DD1Dir will call FoFMem   1 times, MxPair=        30
 NAB=    15 NAA=     0 NBB=     0.
 DE(CI)=     -0.27197773     E(CI)=       -93.024038030    
 NORM(A)=   0.10455225D+01
 Iteration Nr.   4
 **********************
 DD1Dir will call FoFMem   1 times, MxPair=        30
 NAB=    15 NAA=     0 NBB=     0.
 DE(CI)=     -0.27248341     E(CI)=       -93.024543711    
 NORM(A)=   0.10456912D+01
 Iteration Nr.   5
 **********************
 DD1Dir will call FoFMem   1 times, MxPair=        30
 NAB=    15 NAA=     0 NBB=     0.
 DE(CI)=     -0.27251229     E(CI)=       -93.024572597    
 NORM(A)=   0.10456999D+01
 Iteration Nr.   6
 **********************
 DD1Dir will call FoFMem   1 times, MxPair=        30
 NAB=    15 NAA=     0 NBB=     0.
 DE(CI)=     -0.27251362     E(CI)=       -93.024573927    
 NORM(A)=   0.10456993D+01
 Iteration Nr.   7
 **********************
 DD1Dir will call FoFMem   1 times, MxPair=        30
 NAB=    15 NAA=     0 NBB=     0.
 DE(CI)=     -0.27251152     E(CI)=       -93.024571824    
 NORM(A)=   0.10457050D+01
 Iteration Nr.   8
 **********************
 DD1Dir will call FoFMem   1 times, MxPair=        30
 NAB=    15 NAA=     0 NBB=     0.
 DE(CI)=     -0.27251219     E(CI)=       -93.024572495    
 NORM(A)=   0.10457055D+01
 Iteration Nr.   9
 **********************
 DD1Dir will call FoFMem   1 times, MxPair=        30
 NAB=    15 NAA=     0 NBB=     0.
 DE(CI)=     -0.27251250     E(CI)=       -93.024572799    
 NORM(A)=   0.10457059D+01
 Iteration Nr.  10
 **********************
 DD1Dir will call FoFMem   1 times, MxPair=        30
 NAB=    15 NAA=     0 NBB=     0.
 DE(CI)=     -0.27251251     E(CI)=       -93.024572816    
 NORM(A)=   0.10457060D+01
 Iteration Nr.  11
 **********************
 DD1Dir will call FoFMem   1 times, MxPair=        30
 NAB=    15 NAA=     0 NBB=     0.
 DE(CI)=     -0.27251256     E(CI)=       -93.024572868    
 NORM(A)=   0.10457061D+01
 Iteration Nr.  12
 **********************
 DD1Dir will call FoFMem   1 times, MxPair=        30
 NAB=    15 NAA=     0 NBB=     0.
 DE(CI)=     -0.27251258     E(CI)=       -93.024572888    
 NORM(A)=   0.10457061D+01
 Iteration Nr.  13
 **********************
 DD1Dir will call FoFMem   1 times, MxPair=        30
 NAB=    15 NAA=     0 NBB=     0.
 DE(CI)=     -0.27251260     E(CI)=       -93.024572900    
 NORM(A)=   0.10457061D+01
 Iteration Nr.  14
 **********************
 DD1Dir will call FoFMem   1 times, MxPair=        30
 NAB=    15 NAA=     0 NBB=     0.
 DE(CI)=     -0.27251260     E(CI)=       -93.024572903    
 NORM(A)=   0.10457061D+01
 ***************************************************************
 Largest amplitude= 4.39D-02
 Discarding MO integrals.
          IDoAtm=111
          Differentiating once with respect to electric field.
                with respect to dipole field.
          Differentiating once with respect to nuclear coordinates.
 Keep R1 ints in memory in symmetry-blocked form, NReq=1726980.
          There are     1 degrees of freedom in the 1st order CPHF.  IDoFFX=0 NUNeed=     1.
 LinEq1:  Iter=  0 NonCon=     1 RMS=5.51D-03 Max=3.17D-02 NDo=     1
 AX will form     1 AO Fock derivatives at one time.
 LinEq1:  Iter=  1 NonCon=     1 RMS=1.48D-03 Max=1.01D-02 NDo=     1
 LinEq1:  Iter=  2 NonCon=     1 RMS=3.76D-04 Max=2.50D-03 NDo=     1
 LinEq1:  Iter=  3 NonCon=     1 RMS=5.59D-05 Max=3.56D-04 NDo=     1
 LinEq1:  Iter=  4 NonCon=     1 RMS=1.09D-05 Max=6.77D-05 NDo=     1
 LinEq1:  Iter=  5 NonCon=     1 RMS=4.31D-06 Max=2.09D-05 NDo=     1
 LinEq1:  Iter=  6 NonCon=     1 RMS=5.49D-07 Max=3.06D-06 NDo=     1
 LinEq1:  Iter=  7 NonCon=     1 RMS=5.55D-08 Max=4.14D-07 NDo=     1
 LinEq1:  Iter=  8 NonCon=     1 RMS=5.91D-09 Max=4.73D-08 NDo=     1
 LinEq1:  Iter=  9 NonCon=     1 RMS=6.43D-10 Max=3.02D-09 NDo=     1
 LinEq1:  Iter= 10 NonCon=     0 RMS=5.56D-11 Max=3.73D-10 NDo=     1
 Linear equations converged to 1.000D-10 1.000D-09 after    10 iterations.
 End of Minotr F.D. properties file   721 does not exist.
 End of Minotr F.D. properties file   722 does not exist.
 End of Minotr F.D. properties file   788 does not exist.

 **********************************************************************

            Population analysis using the SCF density.

 **********************************************************************

 Orbital symmetries:
       Occupied  (SG) (SG) (SG) (SG) (PI) (PI) (SG)
       Virtual   (SG) (SG) (PI) (PI) (SG) (SG) (PI) (PI) (SG) (PI)
                 (PI) (SG) (SG) (SG) (PI) (PI) (PI) (PI) (SG) (SG)
                 (SG) (PI) (PI) (DLTA) (DLTA) (SG) (PI) (PI) (SG)
                 (DLTA) (DLTA) (SG) (SG) (PI) (PI) (PI) (PI) (SG)
                 (SG) (PI) (PI) (SG) (SG) (SG)
 The electronic state is 1-SG.
 Alpha  occ. eigenvalues --  -15.59094 -11.21394  -1.32986  -0.77301  -0.57188
 Alpha  occ. eigenvalues --   -0.57188  -0.44417
 Alpha virt. eigenvalues --    0.01759   0.09745   0.11820   0.11820   0.13870
 Alpha virt. eigenvalues --    0.14647   0.18177   0.18177   0.28932   0.32015
 Alpha virt. eigenvalues --    0.32015   0.35202   0.52983   0.57327   0.75360
 Alpha virt. eigenvalues --    0.75360   1.02134   1.02134   1.06575   1.11371
 Alpha virt. eigenvalues --    1.29261   1.49249   1.49249   1.53669   1.53669
 Alpha virt. eigenvalues --    1.55542   1.93100   1.93100   2.07949   2.42337
 Alpha virt. eigenvalues --    2.42337   2.66642   2.90750   3.09108   3.09108
 Alpha virt. eigenvalues --    3.21822   3.21822   3.37650   4.09166   4.40944
 Alpha virt. eigenvalues --    4.40944   5.21391  25.41457  37.50419
          Condensed to atoms (all electrons):
               1          2          3
     1  N    6.428725   0.568134   0.298512
     2  C    0.568134   5.555288  -0.000750
     3  H    0.298512  -0.000750   0.284193
 Mulliken charges:
               1
     1  N   -0.295371
     2  C   -0.122673
     3  H    0.418044
 Sum of Mulliken charges =   0.00000
 Mulliken charges with hydrogens summed into heavy atoms:
               1
     1  N    0.122673
     2  C   -0.122673
 Electronic spatial extent (au):  <R**2>=             46.1407
 Charge=              0.0000 electrons
 Dipole moment (field-independent basis, Debye):
    X=              0.0000    Y=              0.0000    Z=              4.4605  Tot=              4.4605
 Quadrupole moment (field-independent basis, Debye-Ang):
   XX=            -11.9810   YY=            -11.9810   ZZ=             -8.7409
   XY=              0.0000   XZ=              0.0000   YZ=              0.0000
 Traceless Quadrupole moment (field-independent basis, Debye-Ang):
   XX=             -1.0800   YY=             -1.0800   ZZ=              2.1600
   XY=              0.0000   XZ=              0.0000   YZ=              0.0000
 Octapole moment (field-independent basis, Debye-Ang**2):
  XXX=              0.0000  YYY=              0.0000  ZZZ=             19.9177  XYY=              0.0000
  XXY=              0.0000  XXZ=              1.5647  XZZ=              0.0000  YZZ=              0.0000
  YYZ=              1.5647  XYZ=              0.0000
 Hexadecapole moment (field-independent basis, Debye-Ang**3):
 XXXX=            -12.4541 YYYY=            -12.4541 ZZZZ=            -30.7467 XXXY=              0.0000
 XXXZ=              0.0000 YYYX=              0.0000 YYYZ=              0.0000 ZZZX=              0.0000
 ZZZY=              0.0000 XXYY=             -4.1514 XXZZ=             -9.7277 YYZZ=             -9.7277
 XXYZ=              0.0000 YYXZ=              0.0000 ZZXY=              0.0000
 N-N= 2.645532078262D+01 E-N=-2.709324725029D+02  KE= 9.350906375014D+01
 Symmetry A1   KE= 8.735048845987D+01
 Symmetry A2   KE= 3.140356244144D-51
 Symmetry B1   KE= 3.079287645139D+00
 Symmetry B2   KE= 3.079287645139D+00
 Calling FoFJK, ICntrl=  10002127 FMM=F ISym2X=1 I1Cent= 0 IOpClX= 0 NMat=1 NMatS=1 NMatT=0.
 ***** Axes restored to original set *****
 -------------------------------------------------------------------
 Center     Atomic                   Forces (Hartrees/Bohr)
 Number     Number              X              Y              Z
 -------------------------------------------------------------------
      1        7           0.000000000    0.000000000   -0.791738550
      2        6           0.000000000    0.000000000    0.658877376
      3        1           0.000000000    0.000000000    0.132861174
 -------------------------------------------------------------------
 Cartesian Forces:  Max     0.791738550 RMS     0.346189001

 GradGradGradGradGradGradGradGradGradGradGradGradGradGradGradGradGradGrad
 Berny optimization.
 FormGI is forming the generalized inverse of G from B-inverse, IUseBI=4.
 Internal  Forces:  Max     0.658877376 RMS     0.336069743
 Search for a local minimum.
 Step number   1 out of a maximum of   20
 All quantities printed in internal units (Hartrees-Bohrs-Radians)
 Mixed Optimization -- RFO/linear search
 Second derivative matrix not updated -- first step.
 The second derivative matrix:
                          R1        R2        A1        A2
           R1           3.32740
           R2           0.00000   0.18600
           A1           0.00000   0.00000   0.00230
           A2           0.00000   0.00000   0.00000   0.00230
 ITU=  0
     Eigenvalues ---    0.00230   0.00230   0.18600   3.32740
 RFO step:  Lambda=-1.73162201D-01 EMin= 2.30000000D-03
 Linear search not attempted -- first point.
 Maximum step size (   0.300) exceeded in Quadratic search.
    -- Step size scaled by   0.723
 Iteration  1 RMS(Cart)=  0.07222573 RMS(Int)=  0.03368939
 Iteration  2 RMS(Cart)=  0.02750727 RMS(Int)=  0.00000000
 Iteration  3 RMS(Cart)=  0.00000000 RMS(Int)=  0.00000000
 ClnCor:  largest displacement from symmetrization is 5.55D-17 for atom     1.
 Variable       Old X    -DE/DX   Delta X   Delta X   Delta X     New X
                                 (Linear)    (Quad)   (Total)
    R1        1.88973   0.65888   0.00000   0.13605   0.13605   2.02577
    R2        2.45664  -0.13286   0.00000  -0.26738  -0.26738   2.18927
    A1        3.14159   0.00000   0.00000   0.00000   0.00000   3.14159
    A2        3.14159   0.00000   0.00000   0.00000   0.00000   3.14159
         Item               Value     Threshold  Converged?
 Maximum Force            0.658877     0.000015     NO 
 RMS     Force            0.336070     0.000010     NO 
 Maximum Displacement     0.134475     0.000060     NO 
 RMS     Displacement     0.094538     0.000040     NO 
 Predicted change in Energy=-8.772064D-02
 GradGradGradGradGradGradGradGradGradGradGradGradGradGradGradGradGradGrad

                          Input orientation:                          
 ---------------------------------------------------------------------
 Center     Atomic      Atomic             Coordinates (Angstroms)
 Number     Number       Type             X           Y           Z
 ---------------------------------------------------------------------
      1          7           0        0.000000    0.000000   -0.071161
      2          6           0        0.000000    0.000000    1.000831
      3          1           0        0.000000    0.000000   -1.229670
 ---------------------------------------------------------------------
                    Distance matrix (angstroms):
                    1          2          3
     1  N    0.000000
     2  C    1.071993   0.000000
     3  H    1.158509   2.230502   0.000000
 Stoichiometry    CHN
 Framework group  C*V[C*(CNH)]
 Deg. of freedom     2
 Full point group                 C*V     NOp   4
 Largest Abelian subgroup         C2V     NOp   4
 Largest concise Abelian subgroup C1      NOp   1
                         Standard orientation:                         
 ---------------------------------------------------------------------
 Center     Atomic      Atomic             Coordinates (Angstroms)
 Number     Number       Type             X           Y           Z
 ---------------------------------------------------------------------
      1          7           0        0.000000    0.000000    0.376675
      2          6           0        0.000000    0.000000   -0.695318
      3          1           0        0.000000    0.000000    1.535184
 ---------------------------------------------------------------------
 Rotational constants (GHZ):      0.0000000     50.1473415     50.1473415
 Standard basis: 6-311++G(d,p) (5D, 7F)
 There are    29 symmetry adapted cartesian basis functions of A1  symmetry.
 There are     2 symmetry adapted cartesian basis functions of A2  symmetry.
 There are    11 symmetry adapted cartesian basis functions of B1  symmetry.
 There are    11 symmetry adapted cartesian basis functions of B2  symmetry.
 There are    27 symmetry adapted basis functions of A1  symmetry.
 There are     2 symmetry adapted basis functions of A2  symmetry.
 There are    11 symmetry adapted basis functions of B1  symmetry.
 There are    11 symmetry adapted basis functions of B2  symmetry.
    51 basis functions,    81 primitive gaussians,    53 cartesian basis functions
     7 alpha electrons        7 beta electrons
       nuclear repulsion energy        25.3537273154 Hartrees.
 NAtoms=    3 NActive=    3 NUniq=    3 SFac= 1.00D+00 NAtFMM=   60 NAOKFM=F Big=F
 Integral buffers will be    131072 words long.
 Raffenetti 1 integral format.
 Two-electron integral symmetry is turned on.
 One-electron integrals computed using PRISM.
 NBasis=    51 RedAO= T EigKep=  2.10D-03  NBF=    27     2    11    11
 NBsUse=    51 1.00D-06 EigRej= -1.00D+00 NBFU=    27     2    11    11
 Initial guess from the checkpoint file:  "HNC0CISDfc.chk"
 B after Tr=     0.000000    0.000000    0.000000
         Rot=    1.000000    0.000000    0.000000    0.000000 Ang=   0.00 deg.
 Initial guess orbital symmetries:
       Occupied  (SG) (SG) (SG) (SG) (PI) (PI) (SG)
       Virtual   (SG) (SG) (SG) (SG) (SG) (SG) (SG) (DLTA) (SG)
                 (SG) (SG) (DLTA) (SG) (SG) (SG) (SG) (SG) (SG)
                 (SG) (SG) (SG) (SG) (DLTA) (DLTA) (PI) (PI) (PI)
                 (PI) (PI) (PI) (PI) (PI) (PI) (PI) (PI) (PI) (PI)
                 (PI) (PI) (PI) (PI) (PI) (PI) (PI)
 ExpMin= 3.60D-02 ExpMax= 6.29D+03 ExpMxC= 9.49D+02 IAcc=3 IRadAn=         5 AccDes= 0.00D+00
 Harris functional with IExCor=  205 and IRadAn=       5 diagonalized for initial guess.
 HarFok:  IExCor=  205 AccDes= 0.00D+00 IRadAn=         5 IDoV= 1 UseB2=F ITyADJ=14
 ICtDFT=  3500011 ScaDFX=  1.000000  1.000000  1.000000  1.000000
 FoFCou: FMM=F IPFlag=           0 FMFlag=      100000 FMFlg1=           0
         NFxFlg=           0 DoJE=T BraDBF=F KetDBF=T FulRan=T
         wScrn=  0.000000 ICntrl=     500 IOpCl=  0 I1Cent=   200000004 NGrid=           0
         NMat0=    1 NMatS0=      1 NMatT0=    0 NMatD0=    1 NMtDS0=    0 NMtDT0=    0
 Petite list used in FoFCou.
 Keep R1 ints in memory in symmetry-blocked form, NReq=1746668.
 Requested convergence on RMS density matrix=1.00D-08 within 128 cycles.
 Requested convergence on MAX density matrix=1.00D-06.
 Requested convergence on             energy=1.00D-06.
 No special actions if energy rises.
 SCF Done:  E(RHF) =  -92.8451201997     A.U. after   11 cycles
            NFock= 11  Conv=0.27D-08     -V/T= 1.9976
 ExpMin= 3.60D-02 ExpMax= 6.29D+03 ExpMxC= 9.49D+02 IAcc=3 IRadAn=         5 AccDes= 0.00D+00
 HarFok:  IExCor=  205 AccDes= 0.00D+00 IRadAn=         5 IDoV=-2 UseB2=F ITyADJ=14
 ICtDFT= 12500011 ScaDFX=  1.000000  1.000000  1.000000  1.000000
 Range of M.O.s used for correlation:     3    51
 NBasis=    51 NAE=     7 NBE=     7 NFC=     2 NFV=     0
 NROrb=     49 NOA=     5 NOB=     5 NVA=    44 NVB=    44
 Semi-Direct transformation.
 ModeAB=           2 MOrb=             5 LenV=     805105440
 LASXX=        74437 LTotXX=       74437 LenRXX=       74437
 LTotAB=       80677 MaxLAS=      350595 LenRXY=      350595
 NonZer=      370440 LenScr=     1111040 LnRSAI=           0
 LnScr1=           0 LExtra=           0 Total=      1536072
 MaxDsk=          -1 SrtSym=           F ITran=            4
 JobTyp=0 Pass  1:  I=   1 to   5.
 (rs|ai) integrals will be sorted in core.
 Spin components of T(2) and E(2):
     alpha-alpha T2 =       0.1170274886D-01 E2=     -0.3536210178D-01
     alpha-beta  T2 =       0.7114790540D-01 E2=     -0.2109979339D+00
     beta-beta   T2 =       0.1170274886D-01 E2=     -0.3536210178D-01
 ANorm=    0.1046209063D+01
 E2 =    -0.2817221374D+00 EUMP2 =    -0.93126842337124D+02
 Keep R2 and R3 ints in memory in symmetry-blocked form, NReq=1705586.
 Iterations=  50 Convergence= 0.100D-07
 Iteration Nr.   1
 **********************
 DD1Dir will call FoFMem   1 times, MxPair=        30
 NAB=    15 NAA=     0 NBB=     0.
 E3=       -0.81486360D-02        EUMP3=      -0.93134990973D+02
 DE(CI)=     -0.26514538     E(CI)=       -93.110265581    
 NORM(A)=   0.10418627D+01
 Iteration Nr.   2
 **********************
 DD1Dir will call FoFMem   1 times, MxPair=        30
 NAB=    15 NAA=     0 NBB=     0.
 DE(CI)=     -0.27404037     E(CI)=       -93.119160571    
 NORM(A)=   0.10455105D+01
 Iteration Nr.   3
 **********************
 DD1Dir will call FoFMem   1 times, MxPair=        30
 NAB=    15 NAA=     0 NBB=     0.
 DE(CI)=     -0.27474109     E(CI)=       -93.119861287    
 NORM(A)=   0.10463411D+01
 Iteration Nr.   4
 **********************
 DD1Dir will call FoFMem   1 times, MxPair=        30
 NAB=    15 NAA=     0 NBB=     0.
 DE(CI)=     -0.27529544     E(CI)=       -93.120415640    
 NORM(A)=   0.10465267D+01
 Iteration Nr.   5
 **********************
 DD1Dir will call FoFMem   1 times, MxPair=        30
 NAB=    15 NAA=     0 NBB=     0.
 DE(CI)=     -0.27532527     E(CI)=       -93.120445465    
 NORM(A)=   0.10465366D+01
 Iteration Nr.   6
 **********************
 DD1Dir will call FoFMem   1 times, MxPair=        30
 NAB=    15 NAA=     0 NBB=     0.
 DE(CI)=     -0.27532935     E(CI)=       -93.120449553    
 NORM(A)=   0.10465330D+01
 Iteration Nr.   7
 **********************
 DD1Dir will call FoFMem   1 times, MxPair=        30
 NAB=    15 NAA=     0 NBB=     0.
 DE(CI)=     -0.27532697     E(CI)=       -93.120447173    
 NORM(A)=   0.10465363D+01
 Iteration Nr.   8
 **********************
 DD1Dir will call FoFMem   1 times, MxPair=        30
 NAB=    15 NAA=     0 NBB=     0.
 DE(CI)=     -0.27532727     E(CI)=       -93.120447472    
 NORM(A)=   0.10465368D+01
 Iteration Nr.   9
 **********************
 DD1Dir will call FoFMem   1 times, MxPair=        30
 NAB=    15 NAA=     0 NBB=     0.
 DE(CI)=     -0.27532764     E(CI)=       -93.120447838    
 NORM(A)=   0.10465370D+01
 Iteration Nr.  10
 **********************
 DD1Dir will call FoFMem   1 times, MxPair=        30
 NAB=    15 NAA=     0 NBB=     0.
 DE(CI)=     -0.27532757     E(CI)=       -93.120447767    
 NORM(A)=   0.10465370D+01
 Iteration Nr.  11
 **********************
 DD1Dir will call FoFMem   1 times, MxPair=        30
 NAB=    15 NAA=     0 NBB=     0.
 DE(CI)=     -0.27532760     E(CI)=       -93.120447798    
 NORM(A)=   0.10465370D+01
 Iteration Nr.  12
 **********************
 DD1Dir will call FoFMem   1 times, MxPair=        30
 NAB=    15 NAA=     0 NBB=     0.
 DE(CI)=     -0.27532760     E(CI)=       -93.120447797    
 NORM(A)=   0.10465370D+01
 ***************************************************************
 Largest amplitude= 4.49D-02
 Discarding MO integrals.
          IDoAtm=111
          Differentiating once with respect to electric field.
                with respect to dipole field.
          Differentiating once with respect to nuclear coordinates.
 Keep R1 ints in memory in symmetry-blocked form, NReq=1726940.
          There are     1 degrees of freedom in the 1st order CPHF.  IDoFFX=0 NUNeed=     1.
 LinEq1:  Iter=  0 NonCon=     1 RMS=5.70D-03 Max=3.13D-02 NDo=     1
 AX will form     1 AO Fock derivatives at one time.
 LinEq1:  Iter=  1 NonCon=     1 RMS=1.67D-03 Max=1.17D-02 NDo=     1
 LinEq1:  Iter=  2 NonCon=     1 RMS=3.83D-04 Max=2.72D-03 NDo=     1
 LinEq1:  Iter=  3 NonCon=     1 RMS=1.04D-04 Max=7.07D-04 NDo=     1
 LinEq1:  Iter=  4 NonCon=     1 RMS=3.74D-05 Max=2.17D-04 NDo=     1
 LinEq1:  Iter=  5 NonCon=     1 RMS=3.45D-06 Max=1.95D-05 NDo=     1
 LinEq1:  Iter=  6 NonCon=     1 RMS=3.77D-07 Max=3.08D-06 NDo=     1
 LinEq1:  Iter=  7 NonCon=     1 RMS=3.39D-08 Max=2.92D-07 NDo=     1
 LinEq1:  Iter=  8 NonCon=     1 RMS=2.60D-09 Max=1.13D-08 NDo=     1
 LinEq1:  Iter=  9 NonCon=     1 RMS=3.10D-10 Max=2.30D-09 NDo=     1
 LinEq1:  Iter= 10 NonCon=     0 RMS=2.91D-11 Max=1.39D-10 NDo=     1
 Linear equations converged to 1.000D-10 1.000D-09 after    10 iterations.
 End of Minotr F.D. properties file   721 does not exist.
 End of Minotr F.D. properties file   722 does not exist.
 End of Minotr F.D. properties file   788 does not exist.
 Calling FoFJK, ICntrl=  10002127 FMM=F ISym2X=1 I1Cent= 0 IOpClX= 0 NMat=1 NMatS=1 NMatT=0.
 ***** Axes restored to original set *****
 -------------------------------------------------------------------
 Center     Atomic                   Forces (Hartrees/Bohr)
 Number     Number              X              Y              Z
 -------------------------------------------------------------------
      1        7           0.000000000    0.000000000   -0.401933259
      2        6           0.000000000    0.000000000    0.297790840
      3        1           0.000000000    0.000000000    0.104142419
 -------------------------------------------------------------------
 Cartesian Forces:  Max     0.401933259 RMS     0.170318451

 GradGradGradGradGradGradGradGradGradGradGradGradGradGradGradGradGradGrad
 Berny optimization.
 Using GEDIIS/GDIIS optimizer.
 Internal  Forces:  Max     0.297790840 RMS     0.157737937
 Search for a local minimum.
 Step number   2 out of a maximum of   20
 All quantities printed in internal units (Hartrees-Bohrs-Radians)
 Mixed Optimization -- RFO/linear search
 Update second derivatives using D2CorX and points    1    2
 DE= -9.59D-02 DEPred=-8.77D-02 R= 1.09D+00
 TightC=F SS=  1.41D+00  RLast= 3.00D-01 DXNew= 5.0454D-01 9.0000D-01
 Trust test= 1.09D+00 RLast= 3.00D-01 DXMaxT set to 5.05D-01
 The second derivative matrix:
                          R1        R2        A1        A2
           R1           2.88622
           R2           0.11808   0.16749
           A1           0.00000   0.00000   0.00230
           A2           0.00000   0.00000   0.00000   0.00230
 ITU=  1  0
 Use linear search instead of GDIIS.
     Eigenvalues ---    0.00230   0.00230   0.16237   2.89134
 RFO step:  Lambda=-6.91749165D-02 EMin= 2.30000000D-03
 Quartic linear search produced a step of  1.54921.
 Iteration  1 RMS(Cart)=  0.07371486 RMS(Int)=  0.34151247
 Iteration  2 RMS(Cart)=  0.08164966 RMS(Int)=  0.24151247
 Iteration  3 RMS(Cart)=  0.08164966 RMS(Int)=  0.14151247
 Iteration  4 RMS(Cart)=  0.08164966 RMS(Int)=  0.04151247
 Iteration  5 RMS(Cart)=  0.03389479 RMS(Int)=  0.00000005
 Iteration  6 RMS(Cart)=  0.00000004 RMS(Int)=  0.00000000
 ClnCor:  largest displacement from symmetrization is 1.50D-09 for atom     3.
 Variable       Old X    -DE/DX   Delta X   Delta X   Delta X     New X
                                 (Linear)    (Quad)   (Total)
    R1        2.02577   0.29779   0.21076  -0.05974   0.15102   2.17679
    R2        2.18927  -0.10414  -0.41423  -0.46880  -0.88302   1.30624
    A1        3.14159   0.00000   0.00000   0.00000   0.00000   3.14159
    A2        3.14159   0.00000   0.00000   0.00000   0.00000   3.14159
         Item               Value     Threshold  Converged?
 Maximum Force            0.297791     0.000015     NO 
 RMS     Force            0.157738     0.000010     NO 
 Maximum Displacement     0.538343     0.000060     NO 
 RMS     Displacement     0.333962     0.000040     NO 
 Predicted change in Energy=-5.446743D-02
 GradGradGradGradGradGradGradGradGradGradGradGradGradGradGradGradGradGrad

                          Input orientation:                          
 ---------------------------------------------------------------------
 Center     Atomic      Atomic             Coordinates (Angstroms)
 Number     Number       Type             X           Y           Z
 ---------------------------------------------------------------------
      1          7           0        0.000000    0.000000   -0.253559
      2          6           0        0.000000    0.000000    0.898351
      3          1           0        0.000000    0.000000   -0.944792
 ---------------------------------------------------------------------
                    Distance matrix (angstroms):
                    1          2          3
     1  N    0.000000
     2  C    1.151910   0.000000
     3  H    0.691233   1.843143   0.000000
 Stoichiometry    CHN
 Framework group  C*V[C*(CNH)]
 Deg. of freedom     2
 Full point group                 C*V     NOp   4
 Largest Abelian subgroup         C2V     NOp   4
 Largest concise Abelian subgroup C1      NOp   1
                         Standard orientation:                         
 ---------------------------------------------------------------------
 Center     Atomic      Atomic             Coordinates (Angstroms)
 Number     Number       Type             X           Y           Z
 ---------------------------------------------------------------------
      1          7           0        0.000000    0.000000    0.444302
      2          6           0        0.000000    0.000000   -0.707608
      3          1           0        0.000000    0.000000    1.135535
 ---------------------------------------------------------------------
 Rotational constants (GHZ):      0.0000000     50.4097209     50.4097209
 Standard basis: 6-311++G(d,p) (5D, 7F)
 There are    29 symmetry adapted cartesian basis functions of A1  symmetry.
 There are     2 symmetry adapted cartesian basis functions of A2  symmetry.
 There are    11 symmetry adapted cartesian basis functions of B1  symmetry.
 There are    11 symmetry adapted cartesian basis functions of B2  symmetry.
 There are    27 symmetry adapted basis functions of A1  symmetry.
 There are     2 symmetry adapted basis functions of A2  symmetry.
 There are    11 symmetry adapted basis functions of B1  symmetry.
 There are    11 symmetry adapted basis functions of B2  symmetry.
    51 basis functions,    81 primitive gaussians,    53 cartesian basis functions
     7 alpha electrons        7 beta electrons
       nuclear repulsion energy        26.3759506077 Hartrees.
 NAtoms=    3 NActive=    3 NUniq=    3 SFac= 1.00D+00 NAtFMM=   60 NAOKFM=F Big=F
 Integral buffers will be    131072 words long.
 Raffenetti 1 integral format.
 Two-electron integral symmetry is turned on.
 One-electron integrals computed using PRISM.
 NBasis=    51 RedAO= T EigKep=  1.68D-03  NBF=    27     2    11    11
 NBsUse=    51 1.00D-06 EigRej= -1.00D+00 NBFU=    27     2    11    11
 Initial guess from the checkpoint file:  "HNC0CISDfc.chk"
 B after Tr=     0.000000    0.000000    0.000000
         Rot=    1.000000    0.000000    0.000000    0.000000 Ang=   0.00 deg.
 Initial guess orbital symmetries:
       Occupied  (SG) (SG) (SG) (SG) (PI) (PI) (SG)
       Virtual   (SG) (SG) (SG) (SG) (SG) (SG) (SG) (SG) (DLTA)
                 (SG) (DLTA) (SG) (SG) (SG) (SG) (SG) (SG) (SG)
                 (SG) (SG) (SG) (SG) (DLTA) (DLTA) (PI) (PI) (PI)
                 (PI) (PI) (PI) (PI) (PI) (PI) (PI) (PI) (PI) (PI)
                 (PI) (PI) (PI) (PI) (PI) (PI) (PI)
 ExpMin= 3.60D-02 ExpMax= 6.29D+03 ExpMxC= 9.49D+02 IAcc=3 IRadAn=         5 AccDes= 0.00D+00
 Harris functional with IExCor=  205 and IRadAn=       5 diagonalized for initial guess.
 HarFok:  IExCor=  205 AccDes= 0.00D+00 IRadAn=         5 IDoV= 1 UseB2=F ITyADJ=14
 ICtDFT=  3500011 ScaDFX=  1.000000  1.000000  1.000000  1.000000
 FoFCou: FMM=F IPFlag=           0 FMFlag=      100000 FMFlg1=           0
         NFxFlg=           0 DoJE=T BraDBF=F KetDBF=T FulRan=T
         wScrn=  0.000000 ICntrl=     500 IOpCl=  0 I1Cent=   200000004 NGrid=           0
         NMat0=    1 NMatS0=      1 NMatT0=    0 NMatD0=    1 NMtDS0=    0 NMtDT0=    0
 Petite list used in FoFCou.
 Keep R1 ints in memory in symmetry-blocked form, NReq=1746682.
 Requested convergence on RMS density matrix=1.00D-08 within 128 cycles.
 Requested convergence on MAX density matrix=1.00D-06.
 Requested convergence on             energy=1.00D-06.
 No special actions if energy rises.
 SCF Done:  E(RHF) =  -92.7099041793     A.U. after   11 cycles
            NFock= 11  Conv=0.53D-08     -V/T= 1.9887
 ExpMin= 3.60D-02 ExpMax= 6.29D+03 ExpMxC= 9.49D+02 IAcc=3 IRadAn=         5 AccDes= 0.00D+00
 HarFok:  IExCor=  205 AccDes= 0.00D+00 IRadAn=         5 IDoV=-2 UseB2=F ITyADJ=14
 ICtDFT= 12500011 ScaDFX=  1.000000  1.000000  1.000000  1.000000
 Range of M.O.s used for correlation:     3    51
 NBasis=    51 NAE=     7 NBE=     7 NFC=     2 NFV=     0
 NROrb=     49 NOA=     5 NOB=     5 NVA=    44 NVB=    44

 **** Warning!!: The largest alpha MO coefficient is  0.13383593D+02

 Semi-Direct transformation.
 ModeAB=           2 MOrb=             5 LenV=     805105397
 LASXX=        74437 LTotXX=       74437 LenRXX=       74437
 LTotAB=       80677 MaxLAS=      350595 LenRXY=      350595
 NonZer=      370440 LenScr=     1111040 LnRSAI=           0
 LnScr1=           0 LExtra=           0 Total=      1536072
 MaxDsk=          -1 SrtSym=           F ITran=            4
 JobTyp=0 Pass  1:  I=   1 to   5.
 (rs|ai) integrals will be sorted in core.
 Spin components of T(2) and E(2):
     alpha-alpha T2 =       0.1180413056D-01 E2=     -0.3544726261D-01
     alpha-beta  T2 =       0.6996835903D-01 E2=     -0.2089207894D+00
     beta-beta   T2 =       0.1180413056D-01 E2=     -0.3544726261D-01
 ANorm=    0.1045742138D+01
 E2 =    -0.2798153146D+00 EUMP2 =    -0.92989719493897D+02
 Keep R2 and R3 ints in memory in symmetry-blocked form, NReq=1705586.
 Iterations=  50 Convergence= 0.100D-07
 Iteration Nr.   1
 **********************
 DD1Dir will call FoFMem   1 times, MxPair=        30
 NAB=    15 NAA=     0 NBB=     0.
 E3=       -0.71707832D-02        EUMP3=      -0.92996890277D+02
 DE(CI)=     -0.26296992     E(CI)=       -92.972874101    
 NORM(A)=   0.10409543D+01
 Iteration Nr.   2
 **********************
 DD1Dir will call FoFMem   1 times, MxPair=        30
 NAB=    15 NAA=     0 NBB=     0.
 DE(CI)=     -0.27257782     E(CI)=       -92.982481996    
 NORM(A)=   0.10445942D+01
 Iteration Nr.   3
 **********************
 DD1Dir will call FoFMem   1 times, MxPair=        30
 NAB=    15 NAA=     0 NBB=     0.
 DE(CI)=     -0.27283169     E(CI)=       -92.982735868    
 NORM(A)=   0.10454627D+01
 Iteration Nr.   4
 **********************
 DD1Dir will call FoFMem   1 times, MxPair=        30
 NAB=    15 NAA=     0 NBB=     0.
 DE(CI)=     -0.27347053     E(CI)=       -92.983374705    
 NORM(A)=   0.10457094D+01
 Iteration Nr.   5
 **********************
 DD1Dir will call FoFMem   1 times, MxPair=        30
 NAB=    15 NAA=     0 NBB=     0.
 DE(CI)=     -0.27350802     E(CI)=       -92.983412204    
 NORM(A)=   0.10457304D+01
 Iteration Nr.   6
 **********************
 DD1Dir will call FoFMem   1 times, MxPair=        30
 NAB=    15 NAA=     0 NBB=     0.
 DE(CI)=     -0.27351603     E(CI)=       -92.983420212    
 NORM(A)=   0.10457251D+01
 Iteration Nr.   7
 **********************
 DD1Dir will call FoFMem   1 times, MxPair=        30
 NAB=    15 NAA=     0 NBB=     0.
 DE(CI)=     -0.27351346     E(CI)=       -92.983417636    
 NORM(A)=   0.10457261D+01
 Iteration Nr.   8
 **********************
 DD1Dir will call FoFMem   1 times, MxPair=        30
 NAB=    15 NAA=     0 NBB=     0.
 DE(CI)=     -0.27351342     E(CI)=       -92.983417600    
 NORM(A)=   0.10457263D+01
 Iteration Nr.   9
 **********************
 DD1Dir will call FoFMem   1 times, MxPair=        30
 NAB=    15 NAA=     0 NBB=     0.
 DE(CI)=     -0.27351370     E(CI)=       -92.983417879    
 NORM(A)=   0.10457264D+01
 Iteration Nr.  10
 **********************
 DD1Dir will call FoFMem   1 times, MxPair=        30
 NAB=    15 NAA=     0 NBB=     0.
 DE(CI)=     -0.27351366     E(CI)=       -92.983417839    
 NORM(A)=   0.10457264D+01
 Iteration Nr.  11
 **********************
 DD1Dir will call FoFMem   1 times, MxPair=        30
 NAB=    15 NAA=     0 NBB=     0.
 DE(CI)=     -0.27351369     E(CI)=       -92.983417865    
 NORM(A)=   0.10457264D+01
 Iteration Nr.  12
 **********************
 DD1Dir will call FoFMem   1 times, MxPair=        30
 NAB=    15 NAA=     0 NBB=     0.
 DE(CI)=     -0.27351368     E(CI)=       -92.983417863    
 NORM(A)=   0.10457264D+01
 ***************************************************************
 Largest amplitude= 3.76D-02
 Discarding MO integrals.
          IDoAtm=111
          Differentiating once with respect to electric field.
                with respect to dipole field.
          Differentiating once with respect to nuclear coordinates.
 Keep R1 ints in memory in symmetry-blocked form, NReq=1726980.
          There are     1 degrees of freedom in the 1st order CPHF.  IDoFFX=0 NUNeed=     1.
 LinEq1:  Iter=  0 NonCon=     1 RMS=6.21D-03 Max=4.51D-02 NDo=     1
 AX will form     1 AO Fock derivatives at one time.
 LinEq1:  Iter=  1 NonCon=     1 RMS=1.82D-03 Max=1.51D-02 NDo=     1
 LinEq1:  Iter=  2 NonCon=     1 RMS=6.19D-04 Max=3.42D-03 NDo=     1
 LinEq1:  Iter=  3 NonCon=     1 RMS=1.96D-04 Max=1.03D-03 NDo=     1
 LinEq1:  Iter=  4 NonCon=     1 RMS=3.68D-05 Max=3.24D-04 NDo=     1
 LinEq1:  Iter=  5 NonCon=     1 RMS=3.93D-06 Max=2.04D-05 NDo=     1
 LinEq1:  Iter=  6 NonCon=     1 RMS=4.01D-07 Max=3.44D-06 NDo=     1
 LinEq1:  Iter=  7 NonCon=     1 RMS=4.68D-08 Max=2.61D-07 NDo=     1
 LinEq1:  Iter=  8 NonCon=     1 RMS=4.11D-09 Max=3.18D-08 NDo=     1
 LinEq1:  Iter=  9 NonCon=     1 RMS=3.70D-10 Max=2.07D-09 NDo=     1
 LinEq1:  Iter= 10 NonCon=     0 RMS=2.89D-11 Max=1.89D-10 NDo=     1
 Linear equations converged to 1.000D-10 1.000D-09 after    10 iterations.
 End of Minotr F.D. properties file   721 does not exist.
 End of Minotr F.D. properties file   722 does not exist.
 End of Minotr F.D. properties file   788 does not exist.
 Calling FoFJK, ICntrl=  10002127 FMM=F ISym2X=1 I1Cent= 0 IOpClX= 0 NMat=1 NMatS=1 NMatT=0.
 ***** Axes restored to original set *****
 -------------------------------------------------------------------
 Center     Atomic                   Forces (Hartrees/Bohr)
 Number     Number              X              Y              Z
 -------------------------------------------------------------------
      1        7           0.000000000    0.000000000    0.855697470
      2        6           0.000000000    0.000000000    0.025541365
      3        1           0.000000000    0.000000000   -0.881238835
 -------------------------------------------------------------------
 Cartesian Forces:  Max     0.881238835 RMS     0.409532580

 GradGradGradGradGradGradGradGradGradGradGradGradGradGradGradGradGradGrad
 Berny optimization.
 Using GEDIIS/GDIIS optimizer.
 Internal  Forces:  Max     0.881238835 RMS     0.440804448
 Search for a local minimum.
 Step number   3 out of a maximum of   20
 All quantities printed in internal units (Hartrees-Bohrs-Radians)
 Mixed Optimization -- RFO/linear search
 Update second derivatives using D2CorX and points    1    3    2
 DE=  1.37D-01 DEPred=-5.45D-02 R=-2.52D+00
 Trust test=-2.52D+00 RLast= 8.96D-01 DXMaxT set to 2.52D-01
 The second derivative matrix:
                          R1        R2        A1        A2
           R1           2.30081
           R2           0.08519   1.13049
           A1           0.00000   0.00000   0.00230
           A2           0.00000   0.00000   0.00000   0.00230
 ITU= -1  1  0
 Use linear search instead of GDIIS.
     Eigenvalues ---    0.00230   0.00230   1.12432   2.30698
 RFO step:  Lambda=-2.32102624D-02 EMin= 2.30000000D-03
 Quartic linear search produced a step of -0.56444.
 Iteration  1 RMS(Cart)=  0.08419323 RMS(Int)=  0.16252826
 Iteration  2 RMS(Cart)=  0.08164966 RMS(Int)=  0.06252826
 Iteration  3 RMS(Cart)=  0.05105411 RMS(Int)=  0.00000000
 Iteration  4 RMS(Cart)=  0.00000000 RMS(Int)=  0.00000000
 ClnCor:  largest displacement from symmetrization is 2.22D-16 for atom     2.
 Variable       Old X    -DE/DX   Delta X   Delta X   Delta X     New X
                                 (Linear)    (Quad)   (Total)
    R1        2.17679   0.02554  -0.08524   0.09718   0.01194   2.18874
    R2        1.30624   0.88124   0.49841   0.02664   0.52506   1.83130
    A1        3.14159   0.00000   0.00000   0.00000   0.00000   3.14159
    A2        3.14159   0.00000   0.00000   0.00000   0.00000   3.14159
         Item               Value     Threshold  Converged?
 Maximum Force            0.881239     0.000015     NO 
 RMS     Force            0.440804     0.000010     NO 
 Maximum Displacement     0.354018     0.000060     NO 
 RMS     Displacement     0.216832     0.000040     NO 
 Predicted change in Energy=-1.694485D-01
 GradGradGradGradGradGradGradGradGradGradGradGradGradGradGradGradGradGrad

                          Input orientation:                          
 ---------------------------------------------------------------------
 Center     Atomic      Atomic             Coordinates (Angstroms)
 Number     Number       Type             X           Y           Z
 ---------------------------------------------------------------------
      1          7           0        0.000000    0.000000   -0.163050
      2          6           0        0.000000    0.000000    0.995180
      3          1           0        0.000000    0.000000   -1.132130
 ---------------------------------------------------------------------
                    Distance matrix (angstroms):
                    1          2          3
     1  N    0.000000
     2  C    1.158230   0.000000
     3  H    0.969081   2.127310   0.000000
 Stoichiometry    CHN
 Framework group  C*V[C*(CNH)]
 Deg. of freedom     2
 Full point group                 C*V     NOp   4
 Largest Abelian subgroup         C2V     NOp   4
 Largest concise Abelian subgroup C1      NOp   1
                         Standard orientation:                         
 ---------------------------------------------------------------------
 Center     Atomic      Atomic             Coordinates (Angstroms)
 Number     Number       Type             X           Y           Z
 ---------------------------------------------------------------------
      1          7           0        0.000000    0.000000    0.427164
      2          6           0        0.000000    0.000000   -0.731066
      3          1           0        0.000000    0.000000    1.396245
 ---------------------------------------------------------------------
 Rotational constants (GHZ):      0.0000000     46.5253263     46.5253263
 Standard basis: 6-311++G(d,p) (5D, 7F)
 There are    29 symmetry adapted cartesian basis functions of A1  symmetry.
 There are     2 symmetry adapted cartesian basis functions of A2  symmetry.
 There are    11 symmetry adapted cartesian basis functions of B1  symmetry.
 There are    11 symmetry adapted cartesian basis functions of B2  symmetry.
 There are    27 symmetry adapted basis functions of A1  symmetry.
 There are     2 symmetry adapted basis functions of A2  symmetry.
 There are    11 symmetry adapted basis functions of B1  symmetry.
 There are    11 symmetry adapted basis functions of B2  symmetry.
    51 basis functions,    81 primitive gaussians,    53 cartesian basis functions
     7 alpha electrons        7 beta electrons
       nuclear repulsion energy        24.5041041186 Hartrees.
 NAtoms=    3 NActive=    3 NUniq=    3 SFac= 1.00D+00 NAtFMM=   60 NAOKFM=F Big=F
 Integral buffers will be    131072 words long.
 Raffenetti 1 integral format.
 Two-electron integral symmetry is turned on.
 One-electron integrals computed using PRISM.
 NBasis=    51 RedAO= T EigKep=  2.35D-03  NBF=    27     2    11    11
 NBsUse=    51 1.00D-06 EigRej= -1.00D+00 NBFU=    27     2    11    11
 Lowest energy guess from the checkpoint file:  "HNC0CISDfc.chk"
 B after Tr=     0.000000    0.000000    0.000000
         Rot=    1.000000    0.000000    0.000000    0.000000 Ang=   0.00 deg.
 B after Tr=     0.000000    0.000000    0.000000
         Rot=    1.000000    0.000000    0.000000    0.000000 Ang=   0.00 deg.
 Initial guess orbital symmetries:
       Occupied  (SG) (PI) (PI) (SG) (SG) (SG) (SG)
       Virtual   (SG) (PI) (PI) (SG) (SG) (SG) (SG) (SG) (DLTA)
                 (SG) (DLTA) (SG) (SG) (SG) (SG) (SG) (SG) (SG)
                 (SG) (SG) (SG) (SG) (DLTA) (DLTA) (?A) (?A) (?A)
                 (PI) (?A) (?A) (PI) (PI) (PI) (?A) (?A) (?A) (?A)
                 (PI) (?A) (?A) (PI) (PI) (PI) (?A)
 Keep R1 ints in memory in symmetry-blocked form, NReq=1746638.
 Requested convergence on RMS density matrix=1.00D-08 within 128 cycles.
 Requested convergence on MAX density matrix=1.00D-06.
 Requested convergence on             energy=1.00D-06.
 No special actions if energy rises.
 An orbital has undefined symmetry, so N**3 symmetry is turned off.
 SCF Done:  E(RHF) =  -92.8842352923     A.U. after   10 cycles
            NFock= 10  Conv=0.24D-08     -V/T= 2.0005
 ExpMin= 3.60D-02 ExpMax= 6.29D+03 ExpMxC= 9.49D+02 IAcc=3 IRadAn=         5 AccDes= 0.00D+00
 HarFok:  IExCor=  205 AccDes= 0.00D+00 IRadAn=         5 IDoV=-2 UseB2=F ITyADJ=14
 ICtDFT= 12500011 ScaDFX=  1.000000  1.000000  1.000000  1.000000
 Range of M.O.s used for correlation:     3    51
 NBasis=    51 NAE=     7 NBE=     7 NFC=     2 NFV=     0
 NROrb=     49 NOA=     5 NOB=     5 NVA=    44 NVB=    44

 **** Warning!!: The largest alpha MO coefficient is  0.12052243D+02

 Semi-Direct transformation.
 ModeAB=           2 MOrb=             5 LenV=     805106241
 LASXX=       268235 LTotXX=      268235 LenRXX=      268235
 LTotAB=      284575 MaxLAS=      350595 LenRXY=      350595
 NonZer=      536470 LenScr=     1571840 LnRSAI=           0
 LnScr1=           0 LExtra=           0 Total=      2190670
 MaxDsk=          -1 SrtSym=           F ITran=            4
 JobTyp=0 Pass  1:  I=   1 to   5.
 (rs|ai) integrals will be sorted in core.
 SymMOI:  orbitals are not symmetric.
 Spin components of T(2) and E(2):
     alpha-alpha T2 =       0.1257938903D-01 E2=     -0.3627517138D-01
     alpha-beta  T2 =       0.7470623663D-01 E2=     -0.2147763671D+00
     beta-beta   T2 =       0.1257938903D-01 E2=     -0.3627517138D-01
 ANorm=    0.1048744494D+01
 E2 =    -0.2873267098D+00 EUMP2 =    -0.93171562002166D+02
 Keep R2 and R3 ints in memory in canonical form, NReq=2580950.
 Iterations=  50 Convergence= 0.100D-07
 Iteration Nr.   1
 **********************
 DD1Dir will call FoFMem   1 times, MxPair=        30
 NAB=    15 NAA=     0 NBB=     0.
 E3=       -0.58253707D-02        EUMP3=      -0.93177387373D+02
 DE(CI)=     -0.26709689     E(CI)=       -93.151332184    
 NORM(A)=   0.10429418D+01
 Iteration Nr.   2
 **********************
 DD1Dir will call FoFMem   1 times, MxPair=        30
 NAB=    15 NAA=     0 NBB=     0.
 DE(CI)=     -0.27772806     E(CI)=       -93.161963357    
 NORM(A)=   0.10469389D+01
 Iteration Nr.   3
 **********************
 DD1Dir will call FoFMem   1 times, MxPair=        30
 NAB=    15 NAA=     0 NBB=     0.
 DE(CI)=     -0.27804662     E(CI)=       -93.162281914    
 NORM(A)=   0.10478689D+01
 Iteration Nr.   4
 **********************
 DD1Dir will call FoFMem   1 times, MxPair=        30
 NAB=    15 NAA=     0 NBB=     0.
 DE(CI)=     -0.27872502     E(CI)=       -93.162960314    
 NORM(A)=   0.10481309D+01
 Iteration Nr.   5
 **********************
 DD1Dir will call FoFMem   1 times, MxPair=        30
 NAB=    15 NAA=     0 NBB=     0.
 DE(CI)=     -0.27876442     E(CI)=       -93.162999714    
 NORM(A)=   0.10481562D+01
 Iteration Nr.   6
 **********************
 DD1Dir will call FoFMem   1 times, MxPair=        30
 NAB=    15 NAA=     0 NBB=     0.
 DE(CI)=     -0.27877464     E(CI)=       -93.163009932    
 NORM(A)=   0.10481500D+01
 Iteration Nr.   7
 **********************
 DD1Dir will call FoFMem   1 times, MxPair=        30
 NAB=    15 NAA=     0 NBB=     0.
 DE(CI)=     -0.27877143     E(CI)=       -93.163006726    
 NORM(A)=   0.10481515D+01
 Iteration Nr.   8
 **********************
 DD1Dir will call FoFMem   1 times, MxPair=        30
 NAB=    15 NAA=     0 NBB=     0.
 DE(CI)=     -0.27877134     E(CI)=       -93.163006630    
 NORM(A)=   0.10481519D+01
 Iteration Nr.   9
 **********************
 DD1Dir will call FoFMem   1 times, MxPair=        30
 NAB=    15 NAA=     0 NBB=     0.
 DE(CI)=     -0.27877171     E(CI)=       -93.163006998    
 NORM(A)=   0.10481521D+01
 Iteration Nr.  10
 **********************
 DD1Dir will call FoFMem   1 times, MxPair=        30
 NAB=    15 NAA=     0 NBB=     0.
 DE(CI)=     -0.27877167     E(CI)=       -93.163006959    
 NORM(A)=   0.10481521D+01
 Iteration Nr.  11
 **********************
 DD1Dir will call FoFMem   1 times, MxPair=        30
 NAB=    15 NAA=     0 NBB=     0.
 DE(CI)=     -0.27877171     E(CI)=       -93.163006999    
 NORM(A)=   0.10481522D+01
 Iteration Nr.  12
 **********************
 DD1Dir will call FoFMem   1 times, MxPair=        30
 NAB=    15 NAA=     0 NBB=     0.
 DE(CI)=     -0.27877170     E(CI)=       -93.163006996    
 NORM(A)=   0.10481522D+01
 ***************************************************************
 Largest amplitude= 2.60D-02
 Discarding MO integrals.
          IDoAtm=111
          Differentiating once with respect to electric field.
                with respect to dipole field.
          Differentiating once with respect to nuclear coordinates.
 Keep R1 ints in memory in canonical form, NReq=1722308.
          There are     1 degrees of freedom in the 1st order CPHF.  IDoFFX=0 NUNeed=     1.
 LinEq1:  Iter=  0 NonCon=     1 RMS=6.37D-03 Max=3.74D-02 NDo=     1
 AX will form     1 AO Fock derivatives at one time.
 LinEq1:  Iter=  1 NonCon=     1 RMS=1.91D-03 Max=1.51D-02 NDo=     1
 LinEq1:  Iter=  2 NonCon=     1 RMS=5.49D-04 Max=2.63D-03 NDo=     1
 LinEq1:  Iter=  3 NonCon=     1 RMS=2.16D-04 Max=9.09D-04 NDo=     1
 LinEq1:  Iter=  4 NonCon=     1 RMS=4.62D-05 Max=3.25D-04 NDo=     1
 LinEq1:  Iter=  5 NonCon=     1 RMS=4.81D-06 Max=2.38D-05 NDo=     1
 LinEq1:  Iter=  6 NonCon=     1 RMS=5.02D-07 Max=3.87D-06 NDo=     1
 LinEq1:  Iter=  7 NonCon=     1 RMS=5.49D-08 Max=3.15D-07 NDo=     1
 LinEq1:  Iter=  8 NonCon=     1 RMS=5.52D-09 Max=4.82D-08 NDo=     1
 LinEq1:  Iter=  9 NonCon=     1 RMS=4.78D-10 Max=2.52D-09 NDo=     1
 LinEq1:  Iter= 10 NonCon=     0 RMS=4.25D-11 Max=2.81D-10 NDo=     1
 Linear equations converged to 1.000D-10 1.000D-09 after    10 iterations.
 End of Minotr F.D. properties file   721 does not exist.
 End of Minotr F.D. properties file   722 does not exist.
 End of Minotr F.D. properties file   788 does not exist.
 Calling FoFJK, ICntrl=  10002127 FMM=F ISym2X=1 I1Cent= 0 IOpClX= 0 NMat=1 NMatS=1 NMatT=0.
 ***** Axes restored to original set *****
 -------------------------------------------------------------------
 Center     Atomic                   Forces (Hartrees/Bohr)
 Number     Number              X              Y              Z
 -------------------------------------------------------------------
      1        7           0.000000000    0.000000000    0.005498708
      2        6           0.000000000    0.000000000    0.022790641
      3        1           0.000000000    0.000000000   -0.028289348
 -------------------------------------------------------------------
 Cartesian Forces:  Max     0.028289348 RMS     0.012247160

 GradGradGradGradGradGradGradGradGradGradGradGradGradGradGradGradGradGrad
 Berny optimization.
 Using GEDIIS/GDIIS optimizer.
 Internal  Forces:  Max     0.028289348 RMS     0.018163841
 Search for a local minimum.
 Step number   4 out of a maximum of   20
 All quantities printed in internal units (Hartrees-Bohrs-Radians)
 Mixed Optimization -- RFO/linear search
 Update second derivatives using D2CorX and points    3    2    4
 DE= -4.26D-02 DEPred=-1.69D-01 R= 2.51D-01
 Trust test= 2.51D-01 RLast= 3.93D-01 DXMaxT set to 2.52D-01
 The second derivative matrix:
                          R1        R2        A1        A2
           R1           2.55289
           R2           0.39397   0.54931
           A1           0.00000   0.00000   0.00230
           A2           0.00000   0.00000   0.00000   0.00230
 ITU=  0 -1  1  0
 Use linear search instead of GDIIS.
     Eigenvalues ---    0.00230   0.00230   0.47462   2.62757
 RFO step:  Lambda=-9.23866538D-04 EMin= 2.30000000D-03
 Quartic linear search produced a step of -0.05893.
 Iteration  1 RMS(Cart)=  0.01914110 RMS(Int)=  0.00000000
 Iteration  2 RMS(Cart)=  0.00000000 RMS(Int)=  0.00000000
 ClnCor:  largest displacement from symmetrization is 6.20D-12 for atom     1.
 Variable       Old X    -DE/DX   Delta X   Delta X   Delta X     New X
                                 (Linear)    (Quad)   (Total)
    R1        2.18874   0.02279  -0.00960   0.01188   0.00227   2.19101
    R2        1.83130   0.02829   0.02109   0.02461   0.04571   1.87700
    A1        3.14159   0.00000   0.00000   0.00000   0.00000   3.14159
    A2        3.14159   0.00000   0.00000   0.00000   0.00000   3.14159
         Item               Value     Threshold  Converged?
 Maximum Force            0.028289     0.000015     NO 
 RMS     Force            0.018164     0.000010     NO 
 Maximum Displacement     0.031230     0.000060     NO 
 RMS     Displacement     0.019141     0.000040     NO 
 Predicted change in Energy=-7.235136D-04
 GradGradGradGradGradGradGradGradGradGradGradGradGradGradGradGradGradGrad

                          Input orientation:                          
 ---------------------------------------------------------------------
 Center     Atomic      Atomic             Coordinates (Angstroms)
 Number     Number       Type             X           Y           Z
 ---------------------------------------------------------------------
      1          7           0        0.000000    0.000000   -0.155388
      2          6           0        0.000000    0.000000    1.004044
      3          1           0        0.000000    0.000000   -1.148656
 ---------------------------------------------------------------------
                    Distance matrix (angstroms):
                    1          2          3
     1  N    0.000000
     2  C    1.159432   0.000000
     3  H    0.993268   2.152701   0.000000
 Stoichiometry    CHN
 Framework group  C*V[C*(CNH)]
 Deg. of freedom     2
 Full point group                 C*V     NOp   4
 Largest Abelian subgroup         C2V     NOp   4
 Largest concise Abelian subgroup C1      NOp   1
                         Standard orientation:                         
 ---------------------------------------------------------------------
 Center     Atomic      Atomic             Coordinates (Angstroms)
 Number     Number       Type             X           Y           Z
 ---------------------------------------------------------------------
      1          7           0        0.000000    0.000000    0.425952
      2          6           0        0.000000    0.000000   -0.733480
      3          1           0        0.000000    0.000000    1.419220
 ---------------------------------------------------------------------
 Rotational constants (GHZ):      0.0000000     46.1396519     46.1396519
 Standard basis: 6-311++G(d,p) (5D, 7F)
 There are    29 symmetry adapted cartesian basis functions of A1  symmetry.
 There are     2 symmetry adapted cartesian basis functions of A2  symmetry.
 There are    11 symmetry adapted cartesian basis functions of B1  symmetry.
 There are    11 symmetry adapted cartesian basis functions of B2  symmetry.
 There are    27 symmetry adapted basis functions of A1  symmetry.
 There are     2 symmetry adapted basis functions of A2  symmetry.
 There are    11 symmetry adapted basis functions of B1  symmetry.
 There are    11 symmetry adapted basis functions of B2  symmetry.
    51 basis functions,    81 primitive gaussians,    53 cartesian basis functions
     7 alpha electrons        7 beta electrons
       nuclear repulsion energy        24.3735119408 Hartrees.
 NAtoms=    3 NActive=    3 NUniq=    3 SFac= 1.00D+00 NAtFMM=   60 NAOKFM=F Big=F
 Integral buffers will be    131072 words long.
 Raffenetti 1 integral format.
 Two-electron integral symmetry is turned on.
 One-electron integrals computed using PRISM.
 NBasis=    51 RedAO= T EigKep=  2.41D-03  NBF=    27     2    11    11
 NBsUse=    51 1.00D-06 EigRej= -1.00D+00 NBFU=    27     2    11    11
 Initial guess from the checkpoint file:  "HNC0CISDfc.chk"
 B after Tr=     0.000000    0.000000    0.000000
         Rot=    1.000000    0.000000    0.000000    0.000000 Ang=   0.00 deg.
 Initial guess orbital symmetries:
       Occupied  (SG) (SG) (SG) (SG) (PI) (PI) (SG)
       Virtual   (SG) (SG) (SG) (SG) (SG) (SG) (SG) (SG) (DLTA)
                 (SG) (DLTA) (SG) (SG) (SG) (SG) (SG) (SG) (SG)
                 (SG) (SG) (SG) (SG) (DLTA) (DLTA) (PI) (PI) (PI)
                 (PI) (PI) (PI) (PI) (PI) (PI) (PI) (PI) (PI) (PI)
                 (PI) (PI) (PI) (PI) (PI) (PI) (PI)
 ExpMin= 3.60D-02 ExpMax= 6.29D+03 ExpMxC= 9.49D+02 IAcc=3 IRadAn=         5 AccDes= 0.00D+00
 Harris functional with IExCor=  205 and IRadAn=       5 diagonalized for initial guess.
 HarFok:  IExCor=  205 AccDes= 0.00D+00 IRadAn=         5 IDoV= 1 UseB2=F ITyADJ=14
 ICtDFT=  3500011 ScaDFX=  1.000000  1.000000  1.000000  1.000000
 FoFCou: FMM=F IPFlag=           0 FMFlag=      100000 FMFlg1=           0
         NFxFlg=           0 DoJE=T BraDBF=F KetDBF=T FulRan=T
         wScrn=  0.000000 ICntrl=     500 IOpCl=  0 I1Cent=   200000004 NGrid=           0
         NMat0=    1 NMatS0=      1 NMatT0=    0 NMatD0=    1 NMtDS0=    0 NMtDT0=    0
 Petite list used in FoFCou.
 Keep R1 ints in memory in symmetry-blocked form, NReq=1746638.
 Requested convergence on RMS density matrix=1.00D-08 within 128 cycles.
 Requested convergence on MAX density matrix=1.00D-06.
 Requested convergence on             energy=1.00D-06.
 No special actions if energy rises.
 An orbital has undefined symmetry, so N**3 symmetry is turned off.
 SCF Done:  E(RHF) =  -92.8844028929     A.U. after    9 cycles
            NFock=  9  Conv=0.49D-08     -V/T= 2.0010
 ExpMin= 3.60D-02 ExpMax= 6.29D+03 ExpMxC= 9.49D+02 IAcc=3 IRadAn=         5 AccDes= 0.00D+00
 HarFok:  IExCor=  205 AccDes= 0.00D+00 IRadAn=         5 IDoV=-2 UseB2=F ITyADJ=14
 ICtDFT= 12500011 ScaDFX=  1.000000  1.000000  1.000000  1.000000
 Range of M.O.s used for correlation:     3    51
 NBasis=    51 NAE=     7 NBE=     7 NFC=     2 NFV=     0
 NROrb=     49 NOA=     5 NOB=     5 NVA=    44 NVB=    44

 **** Warning!!: The largest alpha MO coefficient is  0.11698995D+02

 Semi-Direct transformation.
 ModeAB=           2 MOrb=             5 LenV=     805106241
 LASXX=       268235 LTotXX=      268235 LenRXX=      268235
 LTotAB=      284575 MaxLAS=      350595 LenRXY=      350595
 NonZer=      536470 LenScr=     1571840 LnRSAI=           0
 LnScr1=           0 LExtra=           0 Total=      2190670
 MaxDsk=          -1 SrtSym=           F ITran=            4
 JobTyp=0 Pass  1:  I=   1 to   5.
 (rs|ai) integrals will be sorted in core.
 SymMOI:  orbitals are not symmetric.
 Spin components of T(2) and E(2):
     alpha-alpha T2 =       0.1267018724D-01 E2=     -0.3637466403D-01
     alpha-beta  T2 =       0.7527246641D-01 E2=     -0.2154052473D+00
     beta-beta   T2 =       0.1267018724D-01 E2=     -0.3637466403D-01
 ANorm=    0.1049100968D+01
 E2 =    -0.2881545754D+00 EUMP2 =    -0.93172557468267D+02
 Keep R2 and R3 ints in memory in canonical form, NReq=2580950.
 Iterations=  50 Convergence= 0.100D-07
 Iteration Nr.   1
 **********************
 DD1Dir will call FoFMem   1 times, MxPair=        30
 NAB=    15 NAA=     0 NBB=     0.
 E3=       -0.56183359D-02        EUMP3=      -0.93178175804D+02
 DE(CI)=     -0.26748465     E(CI)=       -93.151887545    
 NORM(A)=   0.10431658D+01
 Iteration Nr.   2
 **********************
 DD1Dir will call FoFMem   1 times, MxPair=        30
 NAB=    15 NAA=     0 NBB=     0.
 DE(CI)=     -0.27826454     E(CI)=       -93.162667433    
 NORM(A)=   0.10472186D+01
 Iteration Nr.   3
 **********************
 DD1Dir will call FoFMem   1 times, MxPair=        30
 NAB=    15 NAA=     0 NBB=     0.
 DE(CI)=     -0.27858812     E(CI)=       -93.162991011    
 NORM(A)=   0.10481633D+01
 Iteration Nr.   4
 **********************
 DD1Dir will call FoFMem   1 times, MxPair=        30
 NAB=    15 NAA=     0 NBB=     0.
 DE(CI)=     -0.27927549     E(CI)=       -93.163678382    
 NORM(A)=   0.10484301D+01
 Iteration Nr.   5
 **********************
 DD1Dir will call FoFMem   1 times, MxPair=        30
 NAB=    15 NAA=     0 NBB=     0.
 DE(CI)=     -0.27931566     E(CI)=       -93.163718551    
 NORM(A)=   0.10484562D+01
 Iteration Nr.   6
 **********************
 DD1Dir will call FoFMem   1 times, MxPair=        30
 NAB=    15 NAA=     0 NBB=     0.
 DE(CI)=     -0.27932623     E(CI)=       -93.163729121    
 NORM(A)=   0.10484499D+01
 Iteration Nr.   7
 **********************
 DD1Dir will call FoFMem   1 times, MxPair=        30
 NAB=    15 NAA=     0 NBB=     0.
 DE(CI)=     -0.27932290     E(CI)=       -93.163725790    
 NORM(A)=   0.10484515D+01
 Iteration Nr.   8
 **********************
 DD1Dir will call FoFMem   1 times, MxPair=        30
 NAB=    15 NAA=     0 NBB=     0.
 DE(CI)=     -0.27932280     E(CI)=       -93.163725689    
 NORM(A)=   0.10484519D+01
 Iteration Nr.   9
 **********************
 DD1Dir will call FoFMem   1 times, MxPair=        30
 NAB=    15 NAA=     0 NBB=     0.
 DE(CI)=     -0.27932319     E(CI)=       -93.163726079    
 NORM(A)=   0.10484521D+01
 Iteration Nr.  10
 **********************
 DD1Dir will call FoFMem   1 times, MxPair=        30
 NAB=    15 NAA=     0 NBB=     0.
 DE(CI)=     -0.27932314     E(CI)=       -93.163726036    
 NORM(A)=   0.10484521D+01
 Iteration Nr.  11
 **********************
 DD1Dir will call FoFMem   1 times, MxPair=        30
 NAB=    15 NAA=     0 NBB=     0.
 DE(CI)=     -0.27932319     E(CI)=       -93.163726079    
 NORM(A)=   0.10484522D+01
 Iteration Nr.  12
 **********************
 DD1Dir will call FoFMem   1 times, MxPair=        30
 NAB=    15 NAA=     0 NBB=     0.
 DE(CI)=     -0.27932318     E(CI)=       -93.163726076    
 NORM(A)=   0.10484522D+01
 ***************************************************************
 Largest amplitude= 3.85D-02
 Discarding MO integrals.
          IDoAtm=111
          Differentiating once with respect to electric field.
                with respect to dipole field.
          Differentiating once with respect to nuclear coordinates.
 Keep R1 ints in memory in canonical form, NReq=1722308.
          There are     1 degrees of freedom in the 1st order CPHF.  IDoFFX=0 NUNeed=     1.
 LinEq1:  Iter=  0 NonCon=     1 RMS=6.42D-03 Max=4.17D-02 NDo=     1
 AX will form     1 AO Fock derivatives at one time.
 LinEq1:  Iter=  1 NonCon=     1 RMS=1.93D-03 Max=1.50D-02 NDo=     1
 LinEq1:  Iter=  2 NonCon=     1 RMS=5.48D-04 Max=2.99D-03 NDo=     1
 LinEq1:  Iter=  3 NonCon=     1 RMS=2.18D-04 Max=1.18D-03 NDo=     1
 LinEq1:  Iter=  4 NonCon=     1 RMS=4.73D-05 Max=3.18D-04 NDo=     1
 LinEq1:  Iter=  5 NonCon=     1 RMS=4.91D-06 Max=2.48D-05 NDo=     1
 LinEq1:  Iter=  6 NonCon=     1 RMS=5.18D-07 Max=3.93D-06 NDo=     1
 LinEq1:  Iter=  7 NonCon=     1 RMS=5.65D-08 Max=3.21D-07 NDo=     1
 LinEq1:  Iter=  8 NonCon=     1 RMS=5.73D-09 Max=4.93D-08 NDo=     1
 LinEq1:  Iter=  9 NonCon=     1 RMS=4.98D-10 Max=2.55D-09 NDo=     1
 LinEq1:  Iter= 10 NonCon=     0 RMS=4.43D-11 Max=3.04D-10 NDo=     1
 Linear equations converged to 1.000D-10 1.000D-09 after    10 iterations.
 End of Minotr F.D. properties file   721 does not exist.
 End of Minotr F.D. properties file   722 does not exist.
 End of Minotr F.D. properties file   788 does not exist.
 Calling FoFJK, ICntrl=  10002127 FMM=F ISym2X=1 I1Cent= 0 IOpClX= 0 NMat=1 NMatS=1 NMatT=0.
 ***** Axes restored to original set *****
 -------------------------------------------------------------------
 Center     Atomic                   Forces (Hartrees/Bohr)
 Number     Number              X              Y              Z
 -------------------------------------------------------------------
      1        7           0.000000000    0.000000000   -0.019003187
      2        6           0.000000000    0.000000000    0.020680163
      3        1           0.000000000    0.000000000   -0.001676976
 -------------------------------------------------------------------
 Cartesian Forces:  Max     0.020680163 RMS     0.009378477

 GradGradGradGradGradGradGradGradGradGradGradGradGradGradGradGradGradGrad
 Berny optimization.
 Using GEDIIS/GDIIS optimizer.
 Internal  Forces:  Max     0.020680163 RMS     0.010374023
 Search for a local minimum.
 Step number   5 out of a maximum of   20
 All quantities printed in internal units (Hartrees-Bohrs-Radians)
 Mixed Optimization -- RFO/linear search
 Update second derivatives using D2CorX and points    3    2    4    5
 DE= -7.19D-04 DEPred=-7.24D-04 R= 9.94D-01
 TightC=F SS=  1.41D+00  RLast= 4.58D-02 DXNew= 4.2426D-01 1.3729D-01
 Trust test= 9.94D-01 RLast= 4.58D-02 DXMaxT set to 2.52D-01
 The second derivative matrix:
                          R1        R2        A1        A2
           R1           1.99804
           R2          -0.05318   0.58487
           A1           0.00000   0.00000   0.00230
           A2           0.00000   0.00000   0.00000   0.00230
 ITU=  1  0 -1  1  0
 Use linear search instead of GDIIS.
     Eigenvalues ---    0.00230   0.00230   0.58287   2.00004
 RFO step:  Lambda=-2.09860413D-04 EMin= 2.30000000D-03
 Quartic linear search produced a step of  0.11024.
 Iteration  1 RMS(Cart)=  0.00534978 RMS(Int)=  0.00000000
 Iteration  2 RMS(Cart)=  0.00000000 RMS(Int)=  0.00000001
 ClnCor:  largest displacement from symmetrization is 3.57D-12 for atom     1.
 Variable       Old X    -DE/DX   Delta X   Delta X   Delta X     New X
                                 (Linear)    (Quad)   (Total)
    R1        2.19101   0.02068   0.00025   0.01022   0.01047   2.20148
    R2        1.87700   0.00168   0.00504  -0.00081   0.00423   1.88123
    A1        3.14159   0.00000   0.00000   0.00000   0.00000   3.14159
    A2        3.14159   0.00000   0.00000   0.00000   0.00000   3.14159
         Item               Value     Threshold  Converged?
 Maximum Force            0.020680     0.000015     NO 
 RMS     Force            0.010374     0.000010     NO 
 Maximum Displacement     0.008388     0.000060     NO 
 RMS     Displacement     0.005350     0.000040     NO 
 Predicted change in Energy=-1.112247D-04
 GradGradGradGradGradGradGradGradGradGradGradGradGradGradGradGradGradGrad

                          Input orientation:                          
 ---------------------------------------------------------------------
 Center     Atomic      Atomic             Coordinates (Angstroms)
 Number     Number       Type             X           Y           Z
 ---------------------------------------------------------------------
      1          7           0        0.000000    0.000000   -0.156489
      2          6           0        0.000000    0.000000    1.008483
      3          1           0        0.000000    0.000000   -1.151995
 ---------------------------------------------------------------------
                    Distance matrix (angstroms):
                    1          2          3
     1  N    0.000000
     2  C    1.164972   0.000000
     3  H    0.995506   2.160478   0.000000
[...]
 SCF Done:  E(RHF) =  -92.8838034370     A.U. after    7 cycles
            NFock=  7  Conv=0.65D-08     -V/T= 2.0015
 ExpMin= 3.60D-02 ExpMax= 6.29D+03 ExpMxC= 9.49D+02 IAcc=3 IRadAn=         5 AccDes= 0.00D+00
 HarFok:  IExCor=  205 AccDes= 0.00D+00 IRadAn=         5 IDoV=-2 UseB2=F ITyADJ=14
 ICtDFT= 12500011 ScaDFX=  1.000000  1.000000  1.000000  1.000000
 Range of M.O.s used for correlation:     3    51
 NBasis=    51 NAE=     7 NBE=     7 NFC=     2 NFV=     0
 NROrb=     49 NOA=     5 NOB=     5 NVA=    44 NVB=    44

 **** Warning!!: The largest alpha MO coefficient is  0.11601150D+02

 Semi-Direct transformation.
 ModeAB=           2 MOrb=             5 LenV=     805106598
 LASXX=       268235 LTotXX=      268235 LenRXX=      268235
 LTotAB=      284575 MaxLAS=      350595 LenRXY=      350595
 NonZer=      536470 LenScr=     1571840 LnRSAI=           0
 LnScr1=           0 LExtra=           0 Total=      2190670
 MaxDsk=          -1 SrtSym=           F ITran=            4
 JobTyp=0 Pass  1:  I=   1 to   5.
 (rs|ai) integrals will be sorted in core.
 Spin components of T(2) and E(2):
     alpha-alpha T2 =       0.1283624872D-01 E2=     -0.3654858435D-01
     alpha-beta  T2 =       0.7613048431D-01 E2=     -0.2162913669D+00
     beta-beta   T2 =       0.1283624872D-01 E2=     -0.3654858435D-01
 ANorm=    0.1049668034D+01
 E2 =    -0.2893885356D+00 EUMP2 =    -0.93173191972611D+02
 Keep R2 and R3 ints in memory in canonical form, NReq=2580899.
 Iterations=  50 Convergence= 0.100D-07
 Iteration Nr.   1
 **********************
 DD1Dir will call FoFMem   1 times, MxPair=        30
 NAB=    15 NAA=     0 NBB=     0.
 E3=       -0.51773089D-02        EUMP3=      -0.93178369282D+02
 DE(CI)=     -0.26794951     E(CI)=       -93.151752948    
 NORM(A)=   0.10434612D+01
 Iteration Nr.   2
 **********************
 DD1Dir will call FoFMem   1 times, MxPair=        30
 NAB=    15 NAA=     0 NBB=     0.
 DE(CI)=     -0.27905472     E(CI)=       -93.162858154    
 NORM(A)=   0.10476046D+01
 Iteration Nr.   3
 **********************
 DD1Dir will call FoFMem   1 times, MxPair=        30
 NAB=    15 NAA=     0 NBB=     0.
 DE(CI)=     -0.27933864     E(CI)=       -93.163142074    
 NORM(A)=   0.10485762D+01
 Iteration Nr.   4
 **********************
 DD1Dir will call FoFMem   1 times, MxPair=        30
 NAB=    15 NAA=     0 NBB=     0.
 DE(CI)=     -0.28004901     E(CI)=       -93.163852449    
 NORM(A)=   0.10488578D+01
 Iteration Nr.   5
 **********************
 DD1Dir will call FoFMem   1 times, MxPair=        30
 NAB=    15 NAA=     0 NBB=     0.
 DE(CI)=     -0.28009118     E(CI)=       -93.163894620    
 NORM(A)=   0.10488869D+01
 Iteration Nr.   6
 **********************
 DD1Dir will call FoFMem   1 times, MxPair=        30
 NAB=    15 NAA=     0 NBB=     0.
 DE(CI)=     -0.28010286     E(CI)=       -93.163906298    
 NORM(A)=   0.10488802D+01
 Iteration Nr.   7
 **********************
 DD1Dir will call FoFMem   1 times, MxPair=        30
 NAB=    15 NAA=     0 NBB=     0.
 DE(CI)=     -0.28009929     E(CI)=       -93.163902726    
 NORM(A)=   0.10488818D+01
 Iteration Nr.   8
 **********************
 DD1Dir will call FoFMem   1 times, MxPair=        30
 NAB=    15 NAA=     0 NBB=     0.
 DE(CI)=     -0.28009916     E(CI)=       -93.163902594    
 NORM(A)=   0.10488822D+01
 Iteration Nr.   9
 **********************
 DD1Dir will call FoFMem   1 times, MxPair=        30
 NAB=    15 NAA=     0 NBB=     0.
 DE(CI)=     -0.28009957     E(CI)=       -93.163903007    
 NORM(A)=   0.10488825D+01
 Iteration Nr.  10
 **********************
 DD1Dir will call FoFMem   1 times, MxPair=        30
 NAB=    15 NAA=     0 NBB=     0.
 DE(CI)=     -0.28009952     E(CI)=       -93.163902962    
 NORM(A)=   0.10488825D+01
 Iteration Nr.  11
 **********************
 DD1Dir will call FoFMem   1 times, MxPair=        30
 NAB=    15 NAA=     0 NBB=     0.
 DE(CI)=     -0.28009957     E(CI)=       -93.163903008    
 NORM(A)=   0.10488825D+01
 Iteration Nr.  12
 **********************
 DD1Dir will call FoFMem   1 times, MxPair=        30
 NAB=    15 NAA=     0 NBB=     0.
 DE(CI)=     -0.28009957     E(CI)=       -93.163903005    
 NORM(A)=   0.10488825D+01
 ***************************************************************
 Largest amplitude= 3.39D-02
 Discarding MO integrals.
          IDoAtm=111
          Differentiating once with respect to electric field.
                with respect to dipole field.
          Differentiating once with respect to nuclear coordinates.
 Keep R1 ints in memory in canonical form, NReq=1722248.
          There are     1 degrees of freedom in the 1st order CPHF.  IDoFFX=0 NUNeed=     1.
 LinEq1:  Iter=  0 NonCon=     1 RMS=6.53D-03 Max=4.47D-02 NDo=     1
 AX will form     1 AO Fock derivatives at one time.
 LinEq1:  Iter=  1 NonCon=     1 RMS=1.97D-03 Max=1.53D-02 NDo=     1
 LinEq1:  Iter=  2 NonCon=     1 RMS=5.73D-04 Max=3.18D-03 NDo=     1
 LinEq1:  Iter=  3 NonCon=     1 RMS=2.29D-04 Max=1.14D-03 NDo=     1
 LinEq1:  Iter=  4 NonCon=     1 RMS=4.93D-05 Max=3.29D-04 NDo=     1
 LinEq1:  Iter=  5 NonCon=     1 RMS=5.26D-06 Max=2.65D-05 NDo=     1
 LinEq1:  Iter=  6 NonCon=     1 RMS=5.52D-07 Max=4.29D-06 NDo=     1
 LinEq1:  Iter=  7 NonCon=     1 RMS=6.05D-08 Max=3.32D-07 NDo=     1
 LinEq1:  Iter=  8 NonCon=     1 RMS=6.04D-09 Max=5.13D-08 NDo=     1
 LinEq1:  Iter=  9 NonCon=     1 RMS=5.18D-10 Max=2.66D-09 NDo=     1
 LinEq1:  Iter= 10 NonCon=     0 RMS=4.63D-11 Max=3.19D-10 NDo=     1
 Linear equations converged to 1.000D-10 1.000D-09 after    10 iterations.
 End of Minotr F.D. properties file   721 does not exist.
 End of Minotr F.D. properties file   722 does not exist.
 End of Minotr F.D. properties file   788 does not exist.

 **********************************************************************

            Population analysis using the CI density.

 **********************************************************************

 Alpha  occ. eigenvalues --  -15.60740 -11.30129  -1.27038  -0.87970  -0.52252
 Alpha  occ. eigenvalues --   -0.52252  -0.49230
 Alpha virt. eigenvalues --    0.03790   0.10151   0.10872   0.10872   0.13757
 Alpha virt. eigenvalues --    0.16655   0.16655   0.21873   0.26150   0.26150
 Alpha virt. eigenvalues --    0.28573   0.36828   0.55078   0.65349   0.73919
 Alpha virt. eigenvalues --    0.73919   1.00082   1.01174   1.01174   1.10242
 Alpha virt. eigenvalues --    1.25441   1.38349   1.44032   1.44032   1.53553
 Alpha virt. eigenvalues --    1.53553   1.95546   1.95546   2.22102   2.33399
 Alpha virt. eigenvalues --    2.33399   2.61056   2.95983   2.96397   2.96397
 Alpha virt. eigenvalues --    3.27134   3.27134   3.64033   4.07793   4.32502
 Alpha virt. eigenvalues --    4.32502   5.27896  25.13293  37.13424
          Condensed to atoms (all electrons):
               1          2          3
     1  N    6.404360   0.373872   0.365776
     2  C    0.373872   5.824399  -0.044448
     3  H    0.365776  -0.044448   0.380842
 Mulliken charges:
               1
     1  N   -0.144008
     2  C   -0.153822
     3  H    0.297831
 Sum of Mulliken charges =   0.00000
 Mulliken charges with hydrogens summed into heavy atoms:
               1
     1  N    0.153822
     2  C   -0.153822
 Electronic spatial extent (au):  <R**2>=             49.4007
 Charge=              0.0000 electrons
 Dipole moment (field-independent basis, Debye):
    X=              0.0000    Y=              0.0000    Z=              3.0812  Tot=              3.0812
 Quadrupole moment (field-independent basis, Debye-Ang):
   XX=            -12.1316   YY=            -12.1316   ZZ=            -10.5072
   XY=              0.0000   XZ=              0.0000   YZ=              0.0000
 Traceless Quadrupole moment (field-independent basis, Debye-Ang):
   XX=             -0.5414   YY=             -0.5414   ZZ=              1.0829
   XY=              0.0000   XZ=              0.0000   YZ=              0.0000
 Octapole moment (field-independent basis, Debye-Ang**2):
  XXX=              0.0000  YYY=              0.0000  ZZZ=             14.6996  XYY=              0.0000
  XXY=              0.0000  XXZ=              1.5443  XZZ=              0.0000  YZZ=              0.0000
  YYZ=              1.5443  XYZ=              0.0000
 Hexadecapole moment (field-independent basis, Debye-Ang**3):
 XXXX=            -12.8727 YYYY=            -12.8727 ZZZZ=            -42.9778 XXXY=              0.0000
 XXXZ=              0.0000 YYYX=              0.0000 YYYZ=              0.0000 ZZZX=              0.0000
 ZZZY=              0.0000 XXYY=             -4.2909 XXZZ=            -10.0765 YYZZ=            -10.0765
 XXYZ=              0.0000 YYXZ=              0.0000 ZZXY=              0.0000
 N-N= 2.421507410770D+01 E-N=-2.660602962789D+02  KE= 9.310135945569D+01
 Calling FoFJK, ICntrl=  10002127 FMM=F ISym2X=0 I1Cent= 0 IOpClX= 0 NMat=1 NMatS=1 NMatT=0.
 -------------------------------------------------------------------
 Center     Atomic                   Forces (Hartrees/Bohr)
 Number     Number              X              Y              Z
 -------------------------------------------------------------------
      1        7           0.000000000    0.000000000   -0.001042737
      2        6           0.000000000    0.000000000    0.000030200
      3        1           0.000000000    0.000000000    0.001012537
 -------------------------------------------------------------------
 Cartesian Forces:  Max     0.001042737 RMS     0.000484590
 NDeriv=   9 NFrqRd=  0 NDerD0=   0 MskFDP=       0 MskDFD=       0 MskDF0=       0
 Re-enter D2Numr: IAtom=  3 IXYZ=3 IStep= 2.
 Maximum difference in off-diagonal FC elements:
 I=  8 J=  5 Difference=    1.4646463052D-05
 Max difference between analytic and numerical forces:
 I=  6 Difference=    2.9602996746D-06
 Full mass-weighted force constant matrix:
 Low frequencies ---   -1.4593   -1.4592    0.0075    0.7258    0.7260  515.5576
 Low frequencies ---  515.5576 2141.0529 3913.7712
 Diagonal vibrational polarizability:
       16.8590976      16.8590977       0.9359999
 Harmonic frequencies (cm**-1), IR intensities (KM/Mole), Raman scattering
 activities (A**4/AMU), depolarization ratios for plane and unpolarized
 incident light, reduced masses (AMU), force constants (mDyne/A),
 and normal coordinates:
                      1                      2                      3
                     PI                     PI                     SG
 Frequencies --    515.5576               515.5576              2141.0529
 Red. masses --      1.2885                 1.2885                 7.0655
 Frc consts  --      0.2018                 0.2018                19.0831
 IR Inten    --    166.5159               166.5159                70.6718
  Atom  AN      X      Y      Z        X      Y      Z        X      Y      Z
     1   7    -0.07   0.11   0.00     0.11   0.07   0.00     0.00   0.00   0.44
     2   6     0.04  -0.06   0.00    -0.06  -0.04   0.00     0.00   0.00  -0.57
     3   1     0.50  -0.86   0.00    -0.86  -0.50   0.00     0.00   0.00   0.70
                      4
                     SG
 Frequencies --   3913.7712
 Red. masses --      1.1181
 Frc consts  --     10.0906
 IR Inten    --    296.6157
  Atom  AN      X      Y      Z
     1   7     0.00   0.00   0.09
     2   6     0.00   0.00  -0.02
     3   1     0.00   0.00  -1.00

 -------------------
 - Thermochemistry -
 -------------------
 Temperature   298.150 Kelvin.  Pressure   1.00000 Atm.
 Atom     1 has atomic number  7 and mass  14.00307
 Atom     2 has atomic number  6 and mass  12.00000
 Atom     3 has atomic number  1 and mass   1.00783
 Molecular mass:    27.01090 amu.
 Principal axes and moments of inertia in atomic units:
                           1         2         3
     Eigenvalues --     0.00000  39.66466  39.66466
           X            0.00000   0.00000   1.00000
           Y            0.00000   1.00000   0.00000
           Z            1.00000   0.00000   0.00000
 This molecule is a prolate symmetric top.
 Rotational symmetry number  1.
 Rotational temperature (Kelvin)      2.18365
 Rotational constant (GHZ):          45.499984
 Zero-point vibrational energy      42383.3 (Joules/Mol)
                                   10.12986 (Kcal/Mol)
 Warning -- explicit consideration of   2 degrees of freedom as
           vibrations may cause significant error
 Vibrational temperatures:    741.77   741.77  3080.49  5631.04
          (Kelvin)
 
 Zero-point correction=                           0.016143 (Hartree/Particle)
 Thermal correction to Energy=                    0.018929
 Thermal correction to Enthalpy=                  0.019874
 Thermal correction to Gibbs Free Energy=        -0.003320
 Sum of electronic and zero-point Energies=            -93.147761
 Sum of electronic and thermal Energies=               -93.144975
 Sum of electronic and thermal Enthalpies=             -93.144030
 Sum of electronic and thermal Free Energies=          -93.167224
 
                     E (Thermal)             CV                S
                      KCal/Mol        Cal/Mol-Kelvin    Cal/Mol-Kelvin
 Total                   11.878              7.406             48.815
 Electronic               0.000              0.000              0.000
 Translational            0.889              2.981             35.816
 Rotational               0.592              1.987             11.758
 Vibrational             10.397              2.438              1.241
 Vibration     1          0.871              1.216              0.620
 Vibration     2          0.871              1.216              0.620
                       Q            Log10(Q)             Ln(Q)
 Total Bot       0.336620D+02          1.527140          3.516370
 Total V=0       0.896127D+09          8.952369         20.613592
 Vib (Bot)       0.446812D-07         -7.349875        -16.923712
 Vib (Bot)    1  0.314359D+00         -0.502574         -1.157218
 Vib (Bot)    2  0.314359D+00         -0.502574         -1.157218
 Vib (V=0)       0.118947D+01          0.075354          0.173510
 Vib (V=0)    1  0.109061D+01          0.037670          0.086738
 Vib (V=0)    2  0.109061D+01          0.037670          0.086738
 Electronic      0.100000D+01          0.000000          0.000000
 Translational   0.551777D+07          6.741764         15.523485
 Rotational      0.136537D+03          2.135251          4.916598
 ***** Axes restored to original set *****
 -------------------------------------------------------------------
 Center     Atomic                   Forces (Hartrees/Bohr)
 Number     Number              X              Y              Z
 -------------------------------------------------------------------
      1        7           0.000000000    0.000000000    0.000000148
      2        6           0.000000000    0.000000000   -0.000000160
      3        1           0.000000000    0.000000000    0.000000012
 -------------------------------------------------------------------
 Cartesian Forces:  Max     0.000000160 RMS     0.000000073
 FormGI is forming the generalized inverse of G from B-inverse, IUseBI=4.

 GradGradGradGradGradGradGradGradGradGradGradGradGradGradGradGradGradGrad
 Berny optimization.
 Internal  Forces:  Max     0.000000160 RMS     0.000000080
 Search for a local minimum.
 Step number   1 out of a maximum of    2
 All quantities printed in internal units (Hartrees-Bohrs-Radians)
 Second derivative matrix not updated -- analytic derivatives used.
 The second derivative matrix:
                          R1        R2        A1        A2
           R1           1.18082
           R2          -0.01588   0.53416
           A1           0.00000   0.00000   0.02744
           A2           0.00000   0.00000   0.00000   0.02744
 ITU=  0
     Eigenvalues ---    0.02744   0.02744   0.53377   1.18121
 Angle between quadratic step and forces=  90.00 degrees.
 Linear search not attempted -- first point.
 Iteration  1 RMS(Cart)=  0.00000006 RMS(Int)=  0.00000000
 ClnCor:  largest displacement from symmetrization is 2.22D-16 for atom     2.
 Variable       Old X    -DE/DX   Delta X   Delta X   Delta X     New X
                                 (Linear)    (Quad)   (Total)
    R1        2.20808   0.00000   0.00000   0.00000   0.00000   2.20808
    R2        1.88063   0.00000   0.00000   0.00000   0.00000   1.88063
    A1        3.14159   0.00000   0.00000   0.00000   0.00000   3.14159
    A2        3.14159   0.00000   0.00000   0.00000   0.00000   3.14159
         Item               Value     Threshold  Converged?
 Maximum Force            0.000000     0.000015     YES
 RMS     Force            0.000000     0.000010     YES
 Maximum Displacement     0.000000     0.000060     YES
 RMS     Displacement     0.000000     0.000040     YES
 Predicted change in Energy=-1.110161D-14
 Optimization completed.
    -- Stationary point found.
                           ----------------------------
                           !   Optimized Parameters   !
                           ! (Angstroms and Degrees)  !
 --------------------------                            --------------------------
 ! Name  Definition              Value          Derivative Info.                !
 --------------------------------------------------------------------------------
 ! R1    R(1,2)                  1.1685         -DE/DX =    0.0                 !
 ! R2    R(1,3)                  0.9952         -DE/DX =    0.0                 !
 ! A1    L(2,1,3,-1,-1)        180.0            -DE/DX =    0.0                 !
 ! A2    L(2,1,3,-2,-2)        180.0            -DE/DX =    0.0                 !
 --------------------------------------------------------------------------------
 GradGradGradGradGradGradGradGradGradGradGradGradGradGradGradGradGradGrad

 1\1\GINC-TC-NODE166\Freq\RCISD-FC\6-311++G(d,p)\C1H1N1\MAXB2\30-Sep-20
 16\0\\#N Geom=AllCheck Guess=TCheck SCRF=Check GenChk RCISD(FC)/6-311+
 +G(d,p) Freq\\HNC-HCN\\0,1\N,0.,0.,-0.1577595276\C,0.,0.,1.0107064842\
 H,0.,0.,-1.1529469566\\Version=ES64L-G09RevD.01\State=1-SG\HF=-92.8837
 856\MP2=-93.1732023\MP3=-93.178373\CISD=-93.163904\RMSD=8.125e-10\RMSF
 =7.291e-08\ZeroPoint=0.016143\Thermal=0.0189294\Dipole=0.,0.,-1.213081
 9\DipoleDeriv=-0.2817682,0.,0.,0.,-0.2817682,0.,0.,0.,-1.2785698,-0.16
 70885,0.,0.,0.,-0.1670885,0.,0.,0.,0.8260871,0.4488598,0.,0.,0.,0.4488
 598,0.,0.,0.,0.4524721\Quadrupole=-0.4041396,-0.4041396,0.8082792,0.,0
 .,0.\QuadrupoleDeriv=0.,0.,0.,0.,0.7068451,0.,0.,0.,0.,0.,0.,0.7068451
 ,0.2863382,0.2863382,-0.5726764,0.,0.,0.,0.,0.,0.,0.,-0.8274616,0.,0.,
 0.,0.,0.,0.,-0.8274616,-0.3198585,-0.3198585,0.639717,0.,0.,0.,0.,0.,0
 .,0.,-1.0924516,0.,0.,0.,0.,0.,0.,-1.0924515,0.8422661,0.8422661,-1.68
 45322,0.,0.,0.\PG=C*V [C*(C1N1H1)]\NImag=0\\0.02659870,0.,0.02659870,0
 .,0.,1.74674725,-0.01224135,0.,0.,0.00563406,0.,-0.01224135,0.,0.,0.00
 563406,0.,0.,-1.19670616,0.,0.,1.18082310,-0.01435781,0.,0.,0.00660783
 ,0.,0.,0.00774991,0.,-0.01435781,0.,0.,0.00660783,0.,0.,0.00774991,0.,
 0.,-0.55003965,0.,0.,0.01588272,0.,0.,0.53415584\\0.,0.,-0.00000015,0.
 ,0.,0.00000016,0.,0.,-0.00000001\\\@


 THE ENLIGHTENED ONE, BECAUSE HE SAW MANKIND DROWNING  
 IN THE GREAT SEA OF BIRTH, DEATH, AND SORROW, LONGED TO SAVE 
 THEM, FOR THIS HE WAS MOVED TO PITY.                         
 BECAUSE HE SAW MEN OF THE WORLD STRAYING IN FALSE PATHS, AND 
 NONE TO GUIDE THEM, FOR THIS HE WAS MOVED TO PITY.           
                     ..................                       
 BECAUSE HE SAW THE MEN OF THE WORLD PLOUGHING THEIR FIELDS,  
 SOWING THE SEED, TRAFFICKING, HUCKSTERING, BUYING, SELLING,  
 AND AT THE END WINNOWING NOTHING BUT BITTERNESS,             
 FOR THIS HE WAS MOVED TO PITY......                   
                   BUDAH'S PITY - UPSAKA SILA SUTRA           
 Job cpu time:       0 days  0 hours  2 minutes 18.1 seconds.
 File lengths (MBytes):  RWF=    138 Int=      0 D2E=      0 Chk=     39 Scr=      1
 Normal termination of Gaussian 09 at Fri Sep 30 11:33:01 2016.
