 Entering Gaussian System, Link 0=g09
 Initial command:
 /cluster/software/gaussian/gaussian-09-D.01/g09/l1.exe "/local/scratch/maxb2/Gau-8311.inp" -scrdir="/local/scratch/maxb2/"
 Entering Link 1 = /cluster/software/gaussian/gaussian-09-D.01/g09/l1.exe PID=      8312.
  
 Copyright (c) 1988,1990,1992,1993,1995,1998,2003,2009,2013,
            Gaussian, Inc.  All Rights Reserved.
  
 This is part of the Gaussian(R) 09 program.  It is based on
 the Gaussian(R) 03 system (copyright 2003, Gaussian, Inc.),
 the Gaussian(R) 98 system (copyright 1998, Gaussian, Inc.),
 the Gaussian(R) 94 system (copyright 1995, Gaussian, Inc.),
 the Gaussian 92(TM) system (copyright 1992, Gaussian, Inc.),
 the Gaussian 90(TM) system (copyright 1990, Gaussian, Inc.),
 the Gaussian 88(TM) system (copyright 1988, Gaussian, Inc.),
 the Gaussian 86(TM) system (copyright 1986, Carnegie Mellon
 University), and the Gaussian 82(TM) system (copyright 1983,
 Carnegie Mellon University). Gaussian is a federally registered
 trademark of Gaussian, Inc.
  
 This software contains proprietary and confidential information,
 including trade secrets, belonging to Gaussian, Inc.
  
 This software is provided under written license and may be
 used, copied, transmitted, or stored only in accord with that
 written license.
  
 The following legend is applicable only to US Government
 contracts under FAR:
  
                    RESTRICTED RIGHTS LEGEND
  
 Use, reproduction and disclosure by the US Government is
 subject to restrictions as set forth in subparagraphs (a)
 and (c) of the Commercial Computer Software - Restricted
 Rights clause in FAR 52.227-19.
  
 Gaussian, Inc.
 340 Quinnipiac St., Bldg. 40, Wallingford CT 06492
  
  
 ---------------------------------------------------------------
 Warning -- This program may not be used in any manner that
 competes with the business of Gaussian, Inc. or will provide
 assistance to any competitor of Gaussian, Inc.  The licensee
 of this program is prohibited from giving any competitor of
 Gaussian, Inc. access to this program.  By using this program,
 the user acknowledges that Gaussian, Inc. is engaged in the
 business of creating and licensing software in the field of
 computational chemistry and represents and warrants to the
 licensee that it is not a competitor of Gaussian, Inc. and that
 it will not use this program in any manner prohibited above.
 ---------------------------------------------------------------
  

 Cite this work as:
 Gaussian 09, Revision D.01,
 M. J. Frisch, G. W. Trucks, H. B. Schlegel, G. E. Scuseria, 
 M. A. Robb, J. R. Cheeseman, G. Scalmani, V. Barone, B. Mennucci, 
 G. A. Petersson, H. Nakatsuji, M. Caricato, X. Li, H. P. Hratchian, 
 A. F. Izmaylov, J. Bloino, G. Zheng, J. L. Sonnenberg, M. Hada, 
 M. Ehara, K. Toyota, R. Fukuda, J. Hasegawa, M. Ishida, T. Nakajima, 
 Y. Honda, O. Kitao, H. Nakai, T. Vreven, J. A. Montgomery, Jr., 
 J. E. Peralta, F. Ogliaro, M. Bearpark, J. J. Heyd, E. Brothers, 
 K. N. Kudin, V. N. Staroverov, T. Keith, R. Kobayashi, J. Normand, 
 K. Raghavachari, A. Rendell, J. C. Burant, S. S. Iyengar, J. Tomasi, 
 M. Cossi, N. Rega, J. M. Millam, M. Klene, J. E. Knox, J. B. Cross, 
 V. Bakken, C. Adamo, J. Jaramillo, R. Gomperts, R. E. Stratmann, 
 O. Yazyev, A. J. Austin, R. Cammi, C. Pomelli, J. W. Ochterski, 
 R. L. Martin, K. Morokuma, V. G. Zakrzewski, G. A. Voth, 
 P. Salvador, J. J. Dannenberg, S. Dapprich, A. D. Daniels, 
 O. Farkas, J. B. Foresman, J. V. Ortiz, J. Cioslowski, 
 and D. J. Fox, Gaussian, Inc., Wallingford CT, 2013.
 
 ******************************************
 Gaussian 09:  ES64L-G09RevD.01 24-Apr-2013
                30-Sep-2016 
 ******************************************
 %nosave
 %mem=6GB
 %nprocshared=2
 Will use up to    2 processors via shared memory.
 %chk=HNC0MP2fc
 ---------------------------------------
 # opt=tight freq MP2(fc)/6-311++g** gfp
 ---------------------------------------
 1/7=10,18=20,19=15,38=1/1,3;
 2/9=110,12=2,17=6,18=5,40=1/2;
 3/5=4,6=6,7=1111,11=9,16=1,24=100,25=1,30=1,71=1/1,2,3;
 4//1;
 5/5=2,38=5/2;
 8/6=4,10=2/1;
 9/15=2,16=-3/6;
 10/5=1/2;
 6/7=2,8=2,9=2,10=2/1;
 7/12=2/1,2,3,16;
 1/7=10,18=20,19=15/3(2);
 2/9=110/2;
 99//99;
 2/9=110/2;
 3/5=4,6=6,7=1111,11=9,16=1,25=1,30=1,71=1/1,2,3;
 4/5=5,16=3,69=1/1;
 5/5=2,38=5/2;
 8/6=4,10=2/1;
 9/15=2,16=-3/6;
 10/5=1/2;
 7/12=2/1,2,3,16;
 1/7=10,18=20,19=15/3(-8);
 2/9=110/2;
 6/7=2,8=2,9=2,10=2/1;
 99//99;
 -------
 HNC-HCN
 -------
 Symbolic Z-matrix:
 Charge =  0 Multiplicity = 1
 N
 C                    1    B1
 H                    2    B2       1    A1
       Variables:
  B1                    1.                       
  B2                    2.3                      
  A1                    0.                       
 
 Add virtual bond connecting atoms H3         and N1         Dist= 2.46D+00.

 GradGradGradGradGradGradGradGradGradGradGradGradGradGradGradGradGradGrad
 Berny optimization.
 Initialization pass.
                           ----------------------------
                           !    Initial Parameters    !
                           ! (Angstroms and Degrees)  !
 --------------------------                            --------------------------
 ! Name  Definition              Value          Derivative Info.                !
 --------------------------------------------------------------------------------
 ! R1    R(1,2)                  1.0            estimate D2E/DX2                !
 ! R2    R(1,3)                  1.3            estimate D2E/DX2                !
 ! A1    L(2,1,3,-1,-1)        180.0            estimate D2E/DX2                !
 ! A2    L(2,1,3,-2,-2)        180.0            estimate D2E/DX2                !
 --------------------------------------------------------------------------------
 Trust Radius=3.00D-01 FncErr=1.00D-07 GrdErr=1.00D-07
 Number of steps in this run=     20 maximum allowed number of steps=    100.
 GradGradGradGradGradGradGradGradGradGradGradGradGradGradGradGradGradGrad

                          Input orientation:                          
 ---------------------------------------------------------------------
 Center     Atomic      Atomic             Coordinates (Angstroms)
 Number     Number       Type             X           Y           Z
 ---------------------------------------------------------------------
      1          7           0        0.000000    0.000000    0.000000
      2          6           0        0.000000    0.000000    1.000000
      3          1           0        0.000000    0.000000   -1.300000
 ---------------------------------------------------------------------
                    Distance matrix (angstroms):
                    1          2          3
     1  N    0.000000
     2  C    1.000000   0.000000
     3  H    1.300000   2.300000   0.000000
 Stoichiometry    CHN
 Framework group  C*V[C*(CNH)]
 Deg. of freedom     2
 Full point group                 C*V     NOp   4
 Largest Abelian subgroup         C2V     NOp   4
 Largest concise Abelian subgroup C1      NOp   1
                         Standard orientation:                         
 ---------------------------------------------------------------------
 Center     Atomic      Atomic             Coordinates (Angstroms)
 Number     Number       Type             X           Y           Z
 ---------------------------------------------------------------------
      1          7           0        0.000000    0.000000    0.335714
      2          6           0        0.000000    0.000000   -0.664286
      3          1           0        0.000000    0.000000    1.635714
 ---------------------------------------------------------------------
 Rotational constants (GHZ):      0.0000000     53.3515517     53.3515517
 Standard basis: 6-311++G(d,p) (5D, 7F)
 AO basis set (Overlap normalization):
 Atom N1       Shell     1 S   6     bf    1 -     1          0.000000000000          0.000000000000          0.634408058897
      0.6293480000D+04  0.1969788147D-02
      0.9490440000D+03  0.1496128592D-01
      0.2187760000D+03  0.7350053084D-01
      0.6369160000D+02  0.2489367658D+00
      0.1882820000D+02  0.6024594331D+00
      0.2720230000D+01  0.2562017589D+00
 Atom N1       Shell     2 SP   3    bf    2 -     5          0.000000000000          0.000000000000          0.634408058897
      0.3063310000D+02  0.1119060795D+00  0.3831191864D-01
      0.7026140000D+01  0.9216666549D+00  0.2374031155D+00
      0.2112050000D+01 -0.2569191826D-02  0.8175923978D+00
 Atom N1       Shell     3 SP   1    bf    6 -     9          0.000000000000          0.000000000000          0.634408058897
      0.6840090000D+00  0.1000000000D+01  0.1000000000D+01
 Atom N1       Shell     4 SP   1    bf   10 -    13          0.000000000000          0.000000000000          0.634408058897
      0.2008780000D+00  0.1000000000D+01  0.1000000000D+01
 Atom N1       Shell     5 SP   1    bf   14 -    17          0.000000000000          0.000000000000          0.634408058897
      0.6390000000D-01  0.1000000000D+01  0.1000000000D+01
 Atom N1       Shell     6 D   1     bf   18 -    22          0.000000000000          0.000000000000          0.634408058897
      0.9130000000D+00  0.1000000000D+01
 Atom C2       Shell     7 S   6     bf   23 -    23          0.000000000000          0.000000000000         -1.255318073988
      0.4563240000D+04  0.1966650249D-02
      0.6820240000D+03  0.1523060193D-01
      0.1549730000D+03  0.7612690966D-01
      0.4445530000D+02  0.2608010331D+00
      0.1302900000D+02  0.6164620782D+00
      0.1827730000D+01  0.2210060280D+00
 Atom C2       Shell     8 SP   3    bf   24 -    27          0.000000000000          0.000000000000         -1.255318073988
      0.2096420000D+02  0.1146600807D+00  0.4024869267D-01
      0.4803310000D+01  0.9199996477D+00  0.2375939567D+00
      0.1459330000D+01 -0.3030682134D-02  0.8158538515D+00
 Atom C2       Shell     9 SP   1    bf   28 -    31          0.000000000000          0.000000000000         -1.255318073988
      0.4834560000D+00  0.1000000000D+01  0.1000000000D+01
 Atom C2       Shell    10 SP   1    bf   32 -    35          0.000000000000          0.000000000000         -1.255318073988
      0.1455850000D+00  0.1000000000D+01  0.1000000000D+01
 Atom C2       Shell    11 SP   1    bf   36 -    39          0.000000000000          0.000000000000         -1.255318073988
      0.4380000000D-01  0.1000000000D+01  0.1000000000D+01
 Atom C2       Shell    12 D   1     bf   40 -    44          0.000000000000          0.000000000000         -1.255318073988
      0.6260000000D+00  0.1000000000D+01
 Atom H3       Shell    13 S   3     bf   45 -    45          0.000000000000          0.000000000000          3.091052031649
      0.3386500000D+02  0.2549381454D-01
      0.5094790000D+01  0.1903731086D+00
      0.1158790000D+01  0.8521614860D+00
 Atom H3       Shell    14 S   1     bf   46 -    46          0.000000000000          0.000000000000          3.091052031649
      0.3258400000D+00  0.1000000000D+01
 Atom H3       Shell    15 S   1     bf   47 -    47          0.000000000000          0.000000000000          3.091052031649
      0.1027410000D+00  0.1000000000D+01
 Atom H3       Shell    16 S   1     bf   48 -    48          0.000000000000          0.000000000000          3.091052031649
      0.3600000000D-01  0.1000000000D+01
 Atom H3       Shell    17 P   1     bf   49 -    51          0.000000000000          0.000000000000          3.091052031649
      0.7500000000D+00  0.1000000000D+01
 There are    29 symmetry adapted cartesian basis functions of A1  symmetry.
 There are     2 symmetry adapted cartesian basis functions of A2  symmetry.
 There are    11 symmetry adapted cartesian basis functions of B1  symmetry.
 There are    11 symmetry adapted cartesian basis functions of B2  symmetry.
 There are    27 symmetry adapted basis functions of A1  symmetry.
 There are     2 symmetry adapted basis functions of A2  symmetry.
 There are    11 symmetry adapted basis functions of B1  symmetry.
 There are    11 symmetry adapted basis functions of B2  symmetry.
    51 basis functions,    81 primitive gaussians,    53 cartesian basis functions
     7 alpha electrons        7 beta electrons
       nuclear repulsion energy        26.4553207826 Hartrees.
 NAtoms=    3 NActive=    3 NUniq=    3 SFac= 1.00D+00 NAtFMM=   60 NAOKFM=F Big=F
 Integral buffers will be    131072 words long.
 Raffenetti 1 integral format.
 Two-electron integral symmetry is turned on.
 One-electron integrals computed using PRISM.
 NBasis=    51 RedAO= T EigKep=  1.79D-03  NBF=    27     2    11    11
 NBsUse=    51 1.00D-06 EigRej= -1.00D+00 NBFU=    27     2    11    11
 ExpMin= 3.60D-02 ExpMax= 6.29D+03 ExpMxC= 9.49D+02 IAcc=3 IRadAn=         5 AccDes= 0.00D+00
 Harris functional with IExCor=  205 and IRadAn=       5 diagonalized for initial guess.
 HarFok:  IExCor=  205 AccDes= 0.00D+00 IRadAn=         5 IDoV= 1 UseB2=F ITyADJ=14
 ICtDFT=  3500011 ScaDFX=  1.000000  1.000000  1.000000  1.000000
 FoFCou: FMM=F IPFlag=           0 FMFlag=      100000 FMFlg1=           0
         NFxFlg=           0 DoJE=T BraDBF=F KetDBF=T FulRan=T
         wScrn=  0.000000 ICntrl=     500 IOpCl=  0 I1Cent=   200000004 NGrid=           0
         NMat0=    1 NMatS0=      1 NMatT0=    0 NMatD0=    1 NMtDS0=    0 NMtDT0=    0
 Petite list used in FoFCou.
 Initial guess orbital symmetries:
       Occupied  (SG) (SG) (SG) (SG) (PI) (PI) (SG)
       Virtual   (SG) (PI) (PI) (SG) (PI) (PI) (SG) (SG) (PI) (PI)
                 (SG) (SG) (SG) (SG) (PI) (PI) (PI) (PI) (SG) (SG)
                 (SG) (DLTA) (DLTA) (SG) (PI) (PI) (PI) (PI) (SG)
                 (DLTA) (DLTA) (SG) (PI) (PI) (SG) (PI) (PI) (SG)
                 (SG) (PI) (PI) (SG) (SG) (SG)
 The electronic state of the initial guess is 1-SG.
 Keep R1 ints in memory in symmetry-blocked form, NReq=1746640.
 Requested convergence on RMS density matrix=1.00D-08 within 128 cycles.
 Requested convergence on MAX density matrix=1.00D-06.
 Requested convergence on             energy=1.00D-06.
 No special actions if energy rises.
 SCF Done:  E(RHF) =  -92.7520603033     A.U. after   10 cycles
            NFock= 10  Conv=0.91D-08     -V/T= 1.9919
 ExpMin= 3.60D-02 ExpMax= 6.29D+03 ExpMxC= 9.49D+02 IAcc=3 IRadAn=         5 AccDes= 0.00D+00
 HarFok:  IExCor=  205 AccDes= 0.00D+00 IRadAn=         5 IDoV=-2 UseB2=F ITyADJ=14
 ICtDFT= 12500011 ScaDFX=  1.000000  1.000000  1.000000  1.000000
 Range of M.O.s used for correlation:     3    51
 NBasis=    51 NAE=     7 NBE=     7 NFC=     2 NFV=     0
 NROrb=     49 NOA=     5 NOB=     5 NVA=    44 NVB=    44

 **** Warning!!: The largest alpha MO coefficient is  0.12022570D+02

 Fully direct method using O(ONN) memory.
 JobTyp=1 Pass  1:  I=   3 to   7 NPSUse=  2 ParTrn=T ParDer=T DoDerP=T.
 Spin components of T(2) and E(2):
     alpha-alpha T2 =       0.1105400317D-01 E2=     -0.3465395365D-01
     alpha-beta  T2 =       0.6892937825D-01 E2=     -0.2080109147D+00
     beta-beta   T2 =       0.1105400317D-01 E2=     -0.3465395365D-01
 ANorm=    0.1044527350D+01
 E2 =    -0.2773188220D+00 EUMP2 =    -0.93029379125269D+02
          IDoAtm=111
          Differentiating once with respect to electric field.
                with respect to dipole field.
          Differentiating once with respect to nuclear coordinates.
 Keep R1 ints in memory in symmetry-blocked form, NReq=1726980.
          There are     1 degrees of freedom in the 1st order CPHF.  IDoFFX=0 NUNeed=     1.
 LinEq1:  Iter=  0 NonCon=     1 RMS=6.96D-03 Max=3.98D-02 NDo=     1
 AX will form     1 AO Fock derivatives at one time.
 LinEq1:  Iter=  1 NonCon=     1 RMS=1.74D-03 Max=1.21D-02 NDo=     1
 LinEq1:  Iter=  2 NonCon=     1 RMS=4.74D-04 Max=3.29D-03 NDo=     1
 LinEq1:  Iter=  3 NonCon=     1 RMS=1.19D-04 Max=6.63D-04 NDo=     1
 LinEq1:  Iter=  4 NonCon=     1 RMS=4.48D-05 Max=3.38D-04 NDo=     1
 LinEq1:  Iter=  5 NonCon=     1 RMS=6.15D-06 Max=3.99D-05 NDo=     1
 LinEq1:  Iter=  6 NonCon=     1 RMS=7.65D-07 Max=4.30D-06 NDo=     1
 LinEq1:  Iter=  7 NonCon=     1 RMS=8.47D-08 Max=6.66D-07 NDo=     1
 LinEq1:  Iter=  8 NonCon=     1 RMS=8.96D-09 Max=8.19D-08 NDo=     1
 LinEq1:  Iter=  9 NonCon=     1 RMS=9.07D-10 Max=4.60D-09 NDo=     1
 LinEq1:  Iter= 10 NonCon=     0 RMS=8.65D-11 Max=5.72D-10 NDo=     1
 Linear equations converged to 1.000D-10 1.000D-09 after    10 iterations.
 End of Minotr F.D. properties file   721 does not exist.
 End of Minotr F.D. properties file   722 does not exist.
 End of Minotr F.D. properties file   788 does not exist.

 **********************************************************************

            Population analysis using the SCF density.

 **********************************************************************

 Orbital symmetries:
       Occupied  (SG) (SG) (SG) (SG) (PI) (PI) (SG)
       Virtual   (SG) (SG) (PI) (PI) (SG) (SG) (PI) (PI) (SG) (PI)
                 (PI) (SG) (SG) (SG) (PI) (PI) (PI) (PI) (SG) (SG)
                 (SG) (PI) (PI) (DLTA) (DLTA) (SG) (PI) (PI) (SG)
                 (DLTA) (DLTA) (SG) (SG) (PI) (PI) (PI) (PI) (SG)
                 (SG) (PI) (PI) (SG) (SG) (SG)
 The electronic state is 1-SG.
 Alpha  occ. eigenvalues --  -15.59094 -11.21394  -1.32986  -0.77301  -0.57188
 Alpha  occ. eigenvalues --   -0.57188  -0.44417
 Alpha virt. eigenvalues --    0.01759   0.09745   0.11820   0.11820   0.13870
 Alpha virt. eigenvalues --    0.14647   0.18177   0.18177   0.28932   0.32015
 Alpha virt. eigenvalues --    0.32015   0.35202   0.52983   0.57327   0.75360
 Alpha virt. eigenvalues --    0.75360   1.02134   1.02134   1.06575   1.11371
 Alpha virt. eigenvalues --    1.29261   1.49249   1.49249   1.53669   1.53669
 Alpha virt. eigenvalues --    1.55542   1.93100   1.93100   2.07949   2.42337
 Alpha virt. eigenvalues --    2.42337   2.66642   2.90750   3.09108   3.09108
 Alpha virt. eigenvalues --    3.21822   3.21822   3.37650   4.09166   4.40944
 Alpha virt. eigenvalues --    4.40944   5.21391  25.41457  37.50419
          Condensed to atoms (all electrons):
               1          2          3
     1  N    6.428725   0.568134   0.298512
     2  C    0.568134   5.555288  -0.000750
     3  H    0.298512  -0.000750   0.284193
 Mulliken charges:
               1
     1  N   -0.295371
     2  C   -0.122673
     3  H    0.418044
 Sum of Mulliken charges =   0.00000
 Mulliken charges with hydrogens summed into heavy atoms:
               1
     1  N    0.122673
     2  C   -0.122673
 Electronic spatial extent (au):  <R**2>=             46.1407
 Charge=              0.0000 electrons
 Dipole moment (field-independent basis, Debye):
    X=              0.0000    Y=              0.0000    Z=              4.4605  Tot=              4.4605
 Quadrupole moment (field-independent basis, Debye-Ang):
   XX=            -11.9810   YY=            -11.9810   ZZ=             -8.7409
   XY=              0.0000   XZ=              0.0000   YZ=              0.0000
 Traceless Quadrupole moment (field-independent basis, Debye-Ang):
   XX=             -1.0800   YY=             -1.0800   ZZ=              2.1600
   XY=              0.0000   XZ=              0.0000   YZ=              0.0000
 Octapole moment (field-independent basis, Debye-Ang**2):
  XXX=              0.0000  YYY=              0.0000  ZZZ=             19.9177  XYY=              0.0000
  XXY=              0.0000  XXZ=              1.5647  XZZ=              0.0000  YZZ=              0.0000
  YYZ=              1.5647  XYZ=              0.0000
 Hexadecapole moment (field-independent basis, Debye-Ang**3):
 XXXX=            -12.4541 YYYY=            -12.4541 ZZZZ=            -30.7467 XXXY=              0.0000
 XXXZ=              0.0000 YYYX=              0.0000 YYYZ=              0.0000 ZZZX=              0.0000
 ZZZY=              0.0000 XXYY=             -4.1514 XXZZ=             -9.7277 YYZZ=             -9.7277
 XXYZ=              0.0000 YYXZ=              0.0000 ZZXY=              0.0000
 N-N= 2.645532078262D+01 E-N=-2.709324725029D+02  KE= 9.350906375014D+01
 Symmetry A1   KE= 8.735048845987D+01
 Symmetry A2   KE= 2.153190590180D-51
 Symmetry B1   KE= 3.079287645140D+00
 Symmetry B2   KE= 3.079287645140D+00
 Calling FoFJK, ICntrl=  10002127 FMM=F ISym2X=1 I1Cent= 0 IOpClX= 0 NMat=1 NMatS=1 NMatT=0.
 ***** Axes restored to original set *****
 -------------------------------------------------------------------
 Center     Atomic                   Forces (Hartrees/Bohr)
 Number     Number              X              Y              Z
 -------------------------------------------------------------------
      1        7           0.000000000    0.000000000   -0.806644218
      2        6           0.000000000    0.000000000    0.677988035
      3        1           0.000000000    0.000000000    0.128656182
 -------------------------------------------------------------------
 Cartesian Forces:  Max     0.806644218 RMS     0.353851049

 GradGradGradGradGradGradGradGradGradGradGradGradGradGradGradGradGradGrad
 Berny optimization.
 FormGI is forming the generalized inverse of G from B-inverse, IUseBI=4.
 Internal  Forces:  Max     0.677988035 RMS     0.345043544
 Search for a local minimum.
 Step number   1 out of a maximum of   20
 All quantities printed in internal units (Hartrees-Bohrs-Radians)
 Mixed Optimization -- RFO/linear search
 Second derivative matrix not updated -- first step.
 The second derivative matrix:
                          R1        R2        A1        A2
           R1           3.32740
           R2           0.00000   0.18600
           A1           0.00000   0.00000   0.00230
           A2           0.00000   0.00000   0.00000   0.00230
 ITU=  0
     Eigenvalues ---    0.00230   0.00230   0.18600   3.32740
 RFO step:  Lambda=-1.76800310D-01 EMin= 2.30000000D-03
 Linear search not attempted -- first point.
 Maximum step size (   0.300) exceeded in Quadratic search.
    -- Step size scaled by   0.743
 Iteration  1 RMS(Cart)=  0.07292497 RMS(Int)=  0.03167656
 Iteration  2 RMS(Cart)=  0.02586380 RMS(Int)=  0.00000000
 Iteration  3 RMS(Cart)=  0.00000000 RMS(Int)=  0.00000000
 ClnCor:  largest displacement from symmetrization is 2.78D-17 for atom     1.
 Variable       Old X    -DE/DX   Delta X   Delta X   Delta X     New X
                                 (Linear)    (Quad)   (Total)
    R1        1.88973   0.67799   0.00000   0.14368   0.14368   2.03341
    R2        2.45664  -0.12866   0.00000  -0.26335  -0.26335   2.19329
    A1        3.14159   0.00000   0.00000   0.00000   0.00000   3.14159
    A2        3.14159   0.00000   0.00000   0.00000   0.00000   3.14159
         Item               Value     Threshold  Converged?
 Maximum Force            0.677988     0.000015     NO 
 RMS     Force            0.345044     0.000010     NO 
 Maximum Displacement     0.135679     0.000060     NO 
 RMS     Displacement     0.093238     0.000040     NO 
 Predicted change in Energy=-9.050084D-02
 GradGradGradGradGradGradGradGradGradGradGradGradGradGradGradGradGradGrad

                          Input orientation:                          
 ---------------------------------------------------------------------
 Center     Atomic      Atomic             Coordinates (Angstroms)
 Number     Number       Type             X           Y           Z
 ---------------------------------------------------------------------
      1          7           0        0.000000    0.000000   -0.071798
      2          6           0        0.000000    0.000000    1.004236
      3          1           0        0.000000    0.000000   -1.232438
 ---------------------------------------------------------------------
                    Distance matrix (angstroms):
                    1          2          3
     1  N    0.000000
     2  C    1.076034   0.000000
     3  H    1.160640   2.236674   0.000000
 Stoichiometry    CHN
 Framework group  C*V[C*(CNH)]
 Deg. of freedom     2
 Full point group                 C*V     NOp   4
 Largest Abelian subgroup         C2V     NOp   4
 Largest concise Abelian subgroup C1      NOp   1
                         Standard orientation:                         
 ---------------------------------------------------------------------
 Center     Atomic      Atomic             Coordinates (Angstroms)
 Number     Number       Type             X           Y           Z
 ---------------------------------------------------------------------
      1          7           0        0.000000    0.000000    0.378255
      2          6           0        0.000000    0.000000   -0.697780
      3          1           0        0.000000    0.000000    1.538894
 ---------------------------------------------------------------------
 Rotational constants (GHZ):      0.0000000     49.8066425     49.8066425
 Standard basis: 6-311++G(d,p) (5D, 7F)
 There are    29 symmetry adapted cartesian basis functions of A1  symmetry.
 There are     2 symmetry adapted cartesian basis functions of A2  symmetry.
 There are    11 symmetry adapted cartesian basis functions of B1  symmetry.
 There are    11 symmetry adapted cartesian basis functions of B2  symmetry.
 There are    27 symmetry adapted basis functions of A1  symmetry.
 There are     2 symmetry adapted basis functions of A2  symmetry.
 There are    11 symmetry adapted basis functions of B1  symmetry.
 There are    11 symmetry adapted basis functions of B2  symmetry.
    51 basis functions,    81 primitive gaussians,    53 cartesian basis functions
     7 alpha electrons        7 beta electrons
       nuclear repulsion energy        25.2660538847 Hartrees.
 NAtoms=    3 NActive=    3 NUniq=    3 SFac= 1.00D+00 NAtFMM=   60 NAOKFM=F Big=F
 Integral buffers will be    131072 words long.
 Raffenetti 1 integral format.
 Two-electron integral symmetry is turned on.
 One-electron integrals computed using PRISM.
 NBasis=    51 RedAO= T EigKep=  2.13D-03  NBF=    27     2    11    11
 NBsUse=    51 1.00D-06 EigRej= -1.00D+00 NBFU=    27     2    11    11
 Initial guess from the checkpoint file:  "HNC0MP2fc.chk"
 B after Tr=     0.000000    0.000000    0.000000
         Rot=    1.000000    0.000000    0.000000    0.000000 Ang=   0.00 deg.
 Initial guess orbital symmetries:
       Occupied  (SG) (SG) (SG) (SG) (PI) (PI) (SG)
       Virtual   (SG) (SG) (SG) (SG) (SG) (SG) (SG) (DLTA) (SG)
                 (SG) (SG) (DLTA) (SG) (SG) (SG) (SG) (SG) (SG)
                 (SG) (SG) (SG) (SG) (DLTA) (DLTA) (PI) (PI) (PI)
                 (PI) (PI) (PI) (PI) (PI) (PI) (PI) (PI) (PI) (PI)
                 (PI) (PI) (PI) (PI) (PI) (PI) (PI)
 ExpMin= 3.60D-02 ExpMax= 6.29D+03 ExpMxC= 9.49D+02 IAcc=3 IRadAn=         5 AccDes= 0.00D+00
 Harris functional with IExCor=  205 and IRadAn=       5 diagonalized for initial guess.
 HarFok:  IExCor=  205 AccDes= 0.00D+00 IRadAn=         5 IDoV= 1 UseB2=F ITyADJ=14
 ICtDFT=  3500011 ScaDFX=  1.000000  1.000000  1.000000  1.000000
 FoFCou: FMM=F IPFlag=           0 FMFlag=      100000 FMFlg1=           0
         NFxFlg=           0 DoJE=T BraDBF=F KetDBF=T FulRan=T
         wScrn=  0.000000 ICntrl=     500 IOpCl=  0 I1Cent=   200000004 NGrid=           0
         NMat0=    1 NMatS0=      1 NMatT0=    0 NMatD0=    1 NMtDS0=    0 NMtDT0=    0
 Petite list used in FoFCou.
 Keep R1 ints in memory in symmetry-blocked form, NReq=1746653.
 Requested convergence on RMS density matrix=1.00D-08 within 128 cycles.
 Requested convergence on MAX density matrix=1.00D-06.
 Requested convergence on             energy=1.00D-06.
 No special actions if energy rises.
 SCF Done:  E(RHF) =  -92.8465420615     A.U. after   11 cycles
            NFock= 11  Conv=0.27D-08     -V/T= 1.9979
 ExpMin= 3.60D-02 ExpMax= 6.29D+03 ExpMxC= 9.49D+02 IAcc=3 IRadAn=         5 AccDes= 0.00D+00
 HarFok:  IExCor=  205 AccDes= 0.00D+00 IRadAn=         5 IDoV=-2 UseB2=F ITyADJ=14
 ICtDFT= 12500011 ScaDFX=  1.000000  1.000000  1.000000  1.000000
 Range of M.O.s used for correlation:     3    51
 NBasis=    51 NAE=     7 NBE=     7 NFC=     2 NFV=     0
 NROrb=     49 NOA=     5 NOB=     5 NVA=    44 NVB=    44
 Fully direct method using O(ONN) memory.
 JobTyp=1 Pass  1:  I=   3 to   7 NPSUse=  2 ParTrn=T ParDer=T DoDerP=T.
 Spin components of T(2) and E(2):
     alpha-alpha T2 =       0.1177134296D-01 E2=     -0.3543786822D-01
     alpha-beta  T2 =       0.7152085433D-01 E2=     -0.2114039477D+00
     beta-beta   T2 =       0.1177134296D-01 E2=     -0.3543786822D-01
 ANorm=    0.1046452837D+01
 E2 =    -0.2822796841D+00 EUMP2 =    -0.93128821745624D+02
          IDoAtm=111
          Differentiating once with respect to electric field.
                with respect to dipole field.
          Differentiating once with respect to nuclear coordinates.
 Keep R1 ints in memory in symmetry-blocked form, NReq=1726940.
          There are     1 degrees of freedom in the 1st order CPHF.  IDoFFX=0 NUNeed=     1.
 LinEq1:  Iter=  0 NonCon=     1 RMS=7.79D-03 Max=3.79D-02 NDo=     1
 AX will form     1 AO Fock derivatives at one time.
 LinEq1:  Iter=  1 NonCon=     1 RMS=2.23D-03 Max=1.71D-02 NDo=     1
 LinEq1:  Iter=  2 NonCon=     1 RMS=6.24D-04 Max=3.80D-03 NDo=     1
 LinEq1:  Iter=  3 NonCon=     1 RMS=2.31D-04 Max=1.28D-03 NDo=     1
 LinEq1:  Iter=  4 NonCon=     1 RMS=5.36D-05 Max=2.79D-04 NDo=     1
 LinEq1:  Iter=  5 NonCon=     1 RMS=5.10D-06 Max=2.41D-05 NDo=     1
 LinEq1:  Iter=  6 NonCon=     1 RMS=5.72D-07 Max=3.81D-06 NDo=     1
 LinEq1:  Iter=  7 NonCon=     1 RMS=5.43D-08 Max=3.97D-07 NDo=     1
 LinEq1:  Iter=  8 NonCon=     1 RMS=5.41D-09 Max=3.23D-08 NDo=     1
 LinEq1:  Iter=  9 NonCon=     1 RMS=6.46D-10 Max=2.83D-09 NDo=     1
 LinEq1:  Iter= 10 NonCon=     0 RMS=5.59D-11 Max=2.89D-10 NDo=     1
 Linear equations converged to 1.000D-10 1.000D-09 after    10 iterations.
 End of Minotr F.D. properties file   721 does not exist.
 End of Minotr F.D. properties file   722 does not exist.
 End of Minotr F.D. properties file   788 does not exist.
 Calling FoFJK, ICntrl=  10002127 FMM=F ISym2X=1 I1Cent= 0 IOpClX= 0 NMat=1 NMatS=1 NMatT=0.
 ***** Axes restored to original set *****
 -------------------------------------------------------------------
 Center     Atomic                   Forces (Hartrees/Bohr)
 Number     Number              X              Y              Z
 -------------------------------------------------------------------
      1        7           0.000000000    0.000000000   -0.403988907
      2        6           0.000000000    0.000000000    0.303952617
      3        1           0.000000000    0.000000000    0.100036290
 -------------------------------------------------------------------
 Cartesian Forces:  Max     0.403988907 RMS     0.171788465

 GradGradGradGradGradGradGradGradGradGradGradGradGradGradGradGradGradGrad
 Berny optimization.
 Using GEDIIS/GDIIS optimizer.
 Internal  Forces:  Max     0.303952617 RMS     0.159995666
 Search for a local minimum.
 Step number   2 out of a maximum of   20
 All quantities printed in internal units (Hartrees-Bohrs-Radians)
 Mixed Optimization -- RFO/linear search
 Update second derivatives using D2CorX and points    1    2
 DE= -9.94D-02 DEPred=-9.05D-02 R= 1.10D+00
 TightC=F SS=  1.41D+00  RLast= 3.00D-01 DXNew= 5.0454D-01 9.0000D-01
 Trust test= 1.10D+00 RLast= 3.00D-01 DXMaxT set to 5.05D-01
 The second derivative matrix:
                          R1        R2        A1        A2
           R1           2.80906
           R2           0.11233   0.16996
           A1           0.00000   0.00000   0.00230
           A2           0.00000   0.00000   0.00000   0.00230
 ITU=  1  0
 Use linear search instead of GDIIS.
     Eigenvalues ---    0.00230   0.00230   0.16519   2.81383
 RFO step:  Lambda=-8.44154604D-02 EMin= 2.30000000D-03
 Quartic linear search produced a step of  1.59355.
 Maximum step size (   0.505) exceeded in Quadratic search.
    -- Step size scaled by   0.995
 Iteration  1 RMS(Cart)=  0.07525660 RMS(Int)=  0.35994285
 SLEqS3 Cycle:    91 Max:0.231011E-02 RMS:0.109811E-02 Conv:0.200000E-06
 Iteration  2 RMS(Cart)=  0.08164966 RMS(Int)=  0.25994285
 Iteration  3 RMS(Cart)=  0.08164966 RMS(Int)=  0.15994285
 Iteration  4 RMS(Cart)=  0.08164965 RMS(Int)=  0.05994286
 Iteration  5 RMS(Cart)=  0.04894314 RMS(Int)=  0.00000000
 SLEqS3 Cycle:    91 Max:0.102068E-11 RMS:0.596200E-12 Conv:0.847974E-15
 SLEqS3 Cycle:    91 Max:0.509519E-12 RMS:0.297621E-12 Conv:0.847974E-15
 Iteration  6 RMS(Cart)=  0.00000000 RMS(Int)=  0.00000000
 ClnCor:  largest displacement from symmetrization is 9.98D-08 for atom     1.
 Variable       Old X    -DE/DX   Delta X   Delta X   Delta X     New X
                                 (Linear)    (Quad)   (Total)
    R1        2.03341   0.30395   0.22897  -0.06587   0.16310   2.19651
    R2        2.19329  -0.10004  -0.41967  -0.50022  -0.91989   1.27341
    A1        3.14159   0.00000   0.00000   0.00000   0.00000   3.14159
    A2        3.14159   0.00000   0.00000   0.00000   0.00000   3.14159
         Item               Value     Threshold  Converged?
 Maximum Force            0.303953     0.000015     NO 
 RMS     Force            0.159996     0.000010     NO 
 Maximum Displacement     0.558891     0.000060     NO 
 RMS     Displacement     0.347073     0.000040     NO 
 Predicted change in Energy=-4.917757D-02
 GradGradGradGradGradGradGradGradGradGradGradGradGradGradGradGradGradGrad

                          Input orientation:                          
 ---------------------------------------------------------------------
 Center     Atomic      Atomic             Coordinates (Angstroms)
 Number     Number       Type             X           Y           Z
 ---------------------------------------------------------------------
      1          7           0        0.000000    0.000000   -0.262828
      2          6           0        0.000000    0.000000    0.899514
      3          1           0        0.000000    0.000000   -0.936685
 ---------------------------------------------------------------------
                    Distance matrix (angstroms):
                    1          2          3
     1  N    0.000000
     2  C    1.162342   0.000000
     3  H    0.673857   1.836199   0.000000
 Stoichiometry    CHN
 Framework group  C*V[C*(CNH)]
 Deg. of freedom     2
 Full point group                 C*V     NOp   4
 Largest Abelian subgroup         C2V     NOp   4
 Largest concise Abelian subgroup C1      NOp   1
                         Standard orientation:                         
 ---------------------------------------------------------------------
 Center     Atomic      Atomic             Coordinates (Angstroms)
 Number     Number       Type             X           Y           Z
 ---------------------------------------------------------------------
      1          7           0        0.000000    0.000000    0.450014
      2          6           0        0.000000    0.000000   -0.712328
      3          1           0        0.000000    0.000000    1.123871
 ---------------------------------------------------------------------
 Rotational constants (GHZ):      0.0000000     49.7822827     49.7822827
 Standard basis: 6-311++G(d,p) (5D, 7F)
 There are    29 symmetry adapted cartesian basis functions of A1  symmetry.
 There are     2 symmetry adapted cartesian basis functions of A2  symmetry.
 There are    11 symmetry adapted cartesian basis functions of B1  symmetry.
 There are    11 symmetry adapted cartesian basis functions of B2  symmetry.
 There are    27 symmetry adapted basis functions of A1  symmetry.
 There are     2 symmetry adapted basis functions of A2  symmetry.
 There are    11 symmetry adapted basis functions of B1  symmetry.
 There are    11 symmetry adapted basis functions of B2  symmetry.
    51 basis functions,    81 primitive gaussians,    53 cartesian basis functions
     7 alpha electrons        7 beta electrons
       nuclear repulsion energy        26.3474807118 Hartrees.
 NAtoms=    3 NActive=    3 NUniq=    3 SFac= 1.00D+00 NAtFMM=   60 NAOKFM=F Big=F
 Integral buffers will be    131072 words long.
 Raffenetti 1 integral format.
 Two-electron integral symmetry is turned on.
 One-electron integrals computed using PRISM.
 NBasis=    51 RedAO= T EigKep=  1.67D-03  NBF=    27     2    11    11
 NBsUse=    51 1.00D-06 EigRej= -1.00D+00 NBFU=    27     2    11    11
 Initial guess from the checkpoint file:  "HNC0MP2fc.chk"
 B after Tr=     0.000000    0.000000    0.000000
         Rot=    1.000000    0.000000    0.000000    0.000000 Ang=   0.00 deg.
 Initial guess orbital symmetries:
       Occupied  (SG) (SG) (SG) (SG) (PI) (PI) (SG)
       Virtual   (SG) (SG) (SG) (SG) (SG) (SG) (SG) (SG) (DLTA)
                 (SG) (DLTA) (SG) (SG) (SG) (SG) (SG) (SG) (SG)
                 (SG) (SG) (SG) (SG) (DLTA) (DLTA) (PI) (PI) (PI)
                 (PI) (PI) (PI) (PI) (PI) (PI) (PI) (PI) (PI) (PI)
                 (PI) (PI) (PI) (PI) (PI) (PI) (PI)
 ExpMin= 3.60D-02 ExpMax= 6.29D+03 ExpMxC= 9.49D+02 IAcc=3 IRadAn=         5 AccDes= 0.00D+00
 Harris functional with IExCor=  205 and IRadAn=       5 diagonalized for initial guess.
 HarFok:  IExCor=  205 AccDes= 0.00D+00 IRadAn=         5 IDoV= 1 UseB2=F ITyADJ=14
 ICtDFT=  3500011 ScaDFX=  1.000000  1.000000  1.000000  1.000000
 FoFCou: FMM=F IPFlag=           0 FMFlag=      100000 FMFlg1=           0
         NFxFlg=           0 DoJE=T BraDBF=F KetDBF=T FulRan=T
         wScrn=  0.000000 ICntrl=     500 IOpCl=  0 I1Cent=   200000004 NGrid=           0
         NMat0=    1 NMatS0=      1 NMatT0=    0 NMatD0=    1 NMtDS0=    0 NMtDT0=    0
 Petite list used in FoFCou.
 Keep R1 ints in memory in symmetry-blocked form, NReq=1746682.
 Requested convergence on RMS density matrix=1.00D-08 within 128 cycles.
 Requested convergence on MAX density matrix=1.00D-06.
 Requested convergence on             energy=1.00D-06.
 No special actions if energy rises.
 SCF Done:  E(RHF) =  -92.6787088716     A.U. after   11 cycles
            NFock= 11  Conv=0.59D-08     -V/T= 1.9881
 ExpMin= 3.60D-02 ExpMax= 6.29D+03 ExpMxC= 9.49D+02 IAcc=3 IRadAn=         5 AccDes= 0.00D+00
 HarFok:  IExCor=  205 AccDes= 0.00D+00 IRadAn=         5 IDoV=-2 UseB2=F ITyADJ=14
 ICtDFT= 12500011 ScaDFX=  1.000000  1.000000  1.000000  1.000000
 Range of M.O.s used for correlation:     3    51
 NBasis=    51 NAE=     7 NBE=     7 NFC=     2 NFV=     0
 NROrb=     49 NOA=     5 NOB=     5 NVA=    44 NVB=    44

 **** Warning!!: The largest alpha MO coefficient is  0.13294088D+02

 Fully direct method using O(ONN) memory.
 JobTyp=1 Pass  1:  I=   3 to   7 NPSUse=  2 ParTrn=T ParDer=T DoDerP=T.
 Spin components of T(2) and E(2):
     alpha-alpha T2 =       0.1194665143D-01 E2=     -0.3559599419D-01
     alpha-beta  T2 =       0.7070153872D-01 E2=     -0.2096236438D+00
     beta-beta   T2 =       0.1194665143D-01 E2=     -0.3559599419D-01
 ANorm=    0.1046228867D+01
 E2 =    -0.2808156322D+00 EUMP2 =    -0.92959524503732D+02
          IDoAtm=111
          Differentiating once with respect to electric field.
                with respect to dipole field.
          Differentiating once with respect to nuclear coordinates.
 Keep R1 ints in memory in symmetry-blocked form, NReq=1726978.
          There are     1 degrees of freedom in the 1st order CPHF.  IDoFFX=0 NUNeed=     1.
 LinEq1:  Iter=  0 NonCon=     1 RMS=9.32D-03 Max=6.73D-02 NDo=     1
 AX will form     1 AO Fock derivatives at one time.
 LinEq1:  Iter=  1 NonCon=     1 RMS=3.01D-03 Max=2.48D-02 NDo=     1
 LinEq1:  Iter=  2 NonCon=     1 RMS=1.05D-03 Max=6.47D-03 NDo=     1
 LinEq1:  Iter=  3 NonCon=     1 RMS=2.93D-04 Max=1.52D-03 NDo=     1
 LinEq1:  Iter=  4 NonCon=     1 RMS=5.19D-05 Max=4.81D-04 NDo=     1
 LinEq1:  Iter=  5 NonCon=     1 RMS=6.02D-06 Max=3.33D-05 NDo=     1
 LinEq1:  Iter=  6 NonCon=     1 RMS=6.92D-07 Max=5.95D-06 NDo=     1
 LinEq1:  Iter=  7 NonCon=     1 RMS=7.85D-08 Max=4.36D-07 NDo=     1
 LinEq1:  Iter=  8 NonCon=     1 RMS=6.38D-09 Max=5.14D-08 NDo=     1
 LinEq1:  Iter=  9 NonCon=     1 RMS=5.71D-10 Max=3.74D-09 NDo=     1
 LinEq1:  Iter= 10 NonCon=     0 RMS=4.50D-11 Max=2.72D-10 NDo=     1
 Linear equations converged to 1.000D-10 1.000D-09 after    10 iterations.
 End of Minotr F.D. properties file   721 does not exist.
 End of Minotr F.D. properties file   722 does not exist.
 End of Minotr F.D. properties file   788 does not exist.
 Calling FoFJK, ICntrl=  10002127 FMM=F ISym2X=1 I1Cent= 0 IOpClX= 0 NMat=1 NMatS=1 NMatT=0.
 ***** Axes restored to original set *****
 -------------------------------------------------------------------
 Center     Atomic                   Forces (Hartrees/Bohr)
 Number     Number              X              Y              Z
 -------------------------------------------------------------------
      1        7           0.000000000    0.000000000    0.977069446
      2        6           0.000000000    0.000000000    0.023327603
      3        1           0.000000000    0.000000000   -1.000397049
 -------------------------------------------------------------------
 Cartesian Forces:  Max     1.000397049 RMS     0.466190606

 GradGradGradGradGradGradGradGradGradGradGradGradGradGradGradGradGradGrad
 Berny optimization.
 Using GEDIIS/GDIIS optimizer.
 Internal  Forces:  Max     1.000397049 RMS     0.500334496
 Search for a local minimum.
 Step number   3 out of a maximum of   20
 All quantities printed in internal units (Hartrees-Bohrs-Radians)
 Mixed Optimization -- RFO/linear search
 Update second derivatives using D2CorX and points    1    3    2
 DE=  1.69D-01 DEPred=-4.92D-02 R=-3.44D+00
 Trust test=-3.44D+00 RLast= 9.34D-01 DXMaxT set to 2.52D-01
 The second derivative matrix:
                          R1        R2        A1        A2
           R1           2.20235
           R2           0.08542   1.21142
           A1           0.00000   0.00000   0.00230
           A2           0.00000   0.00000   0.00000   0.00230
 ITU= -1  1  0
 Use linear search instead of GDIIS.
     Eigenvalues ---    0.00230   0.00230   1.20411   2.20966
 RFO step:  Lambda=-2.72369591D-02 EMin= 2.30000000D-03
 Quartic linear search produced a step of -0.57483.
 Iteration  1 RMS(Cart)=  0.08461887 RMS(Int)=  0.17801577
 Iteration  2 RMS(Cart)=  0.08164966 RMS(Int)=  0.07801577
 Iteration  3 RMS(Cart)=  0.06369960 RMS(Int)=  0.00000000
 Iteration  4 RMS(Cart)=  0.00000000 RMS(Int)=  0.00000000
 ClnCor:  largest displacement from symmetrization is 2.24D-07 for atom     1.
 Variable       Old X    -DE/DX   Delta X   Delta X   Delta X     New X
                                 (Linear)    (Quad)   (Total)
    R1        2.19651   0.02333  -0.09375   0.10760   0.01385   2.21036
    R2        1.27341   1.00040   0.52878   0.02725   0.55603   1.82944
    A1        3.14159   0.00000   0.00000   0.00000   0.00000   3.14159
    A2        3.14159   0.00000   0.00000   0.00000   0.00000   3.14159
         Item               Value     Threshold  Converged?
 Maximum Force            1.000397     0.000015     NO 
 RMS     Force            0.500334     0.000010     NO 
 Maximum Displacement     0.375305     0.000060     NO 
 RMS     Displacement     0.229878     0.000040     NO 
 Predicted change in Energy=-1.991416D-01
 GradGradGradGradGradGradGradGradGradGradGradGradGradGradGradGradGradGrad

                          Input orientation:                          
 ---------------------------------------------------------------------
 Center     Atomic      Atomic             Coordinates (Angstroms)
 Number     Number       Type             X           Y           Z
 ---------------------------------------------------------------------
      1          7           0        0.000000    0.000000   -0.167192
      2          6           0        0.000000    0.000000    1.002480
      3          1           0        0.000000    0.000000   -1.135288
 ---------------------------------------------------------------------
                    Distance matrix (angstroms):
                    1          2          3
     1  N    0.000000
     2  C    1.169672   0.000000
     3  H    0.968096   2.137768   0.000000
 Stoichiometry    CHN
 Framework group  C*V[C*(CNH)]
 Deg. of freedom     2
 Full point group                 C*V     NOp   4
 Largest Abelian subgroup         C2V     NOp   4
 Largest concise Abelian subgroup C1      NOp   1
                         Standard orientation:                         
 ---------------------------------------------------------------------
 Center     Atomic      Atomic             Coordinates (Angstroms)
 Number     Number       Type             X           Y           Z
 ---------------------------------------------------------------------
      1          7           0        0.000000    0.000000    0.432138
      2          6           0        0.000000    0.000000   -0.737534
      3          1           0        0.000000    0.000000    1.400234
 ---------------------------------------------------------------------
 Rotational constants (GHZ):      0.0000000     45.7475325     45.7475325
 Standard basis: 6-311++G(d,p) (5D, 7F)
 There are    29 symmetry adapted cartesian basis functions of A1  symmetry.
 There are     2 symmetry adapted cartesian basis functions of A2  symmetry.
 There are    11 symmetry adapted cartesian basis functions of B1  symmetry.
 There are    11 symmetry adapted cartesian basis functions of B2  symmetry.
 There are    27 symmetry adapted basis functions of A1  symmetry.
 There are     2 symmetry adapted basis functions of A2  symmetry.
 There are    11 symmetry adapted basis functions of B1  symmetry.
 There are    11 symmetry adapted basis functions of B2  symmetry.
    51 basis functions,    81 primitive gaussians,    53 cartesian basis functions
     7 alpha electrons        7 beta electrons
       nuclear repulsion energy        24.3129724110 Hartrees.
 NAtoms=    3 NActive=    3 NUniq=    3 SFac= 1.00D+00 NAtFMM=   60 NAOKFM=F Big=F
 Integral buffers will be    131072 words long.
 Raffenetti 1 integral format.
 Two-electron integral symmetry is turned on.
 One-electron integrals computed using PRISM.
 NBasis=    51 RedAO= T EigKep=  2.42D-03  NBF=    27     2    11    11
 NBsUse=    51 1.00D-06 EigRej= -1.00D+00 NBFU=    27     2    11    11
 Lowest energy guess from the checkpoint file:  "HNC0MP2fc.chk"
 B after Tr=     0.000000    0.000000    0.000000
         Rot=    1.000000    0.000000    0.000000    0.000000 Ang=   0.00 deg.
 B after Tr=     0.000000    0.000000    0.000000
         Rot=    1.000000    0.000000    0.000000    0.000000 Ang=   0.00 deg.
 Initial guess orbital symmetries:
       Occupied  (SG) (PI) (PI) (SG) (SG) (SG) (SG)
       Virtual   (SG) (PI) (PI) (SG) (SG) (SG) (SG) (SG) (DLTA)
                 (SG) (DLTA) (SG) (SG) (SG) (SG) (SG) (SG) (SG)
                 (SG) (SG) (SG) (SG) (DLTA) (DLTA) (?A) (?A) (?A)
                 (PI) (?A) (?A) (PI) (PI) (PI) (?A) (?A) (?A) (?A)
                 (PI) (?A) (?A) (PI) (PI) (PI) (?A)
 Keep R1 ints in memory in symmetry-blocked form, NReq=1746638.
 Requested convergence on RMS density matrix=1.00D-08 within 128 cycles.
 Requested convergence on MAX density matrix=1.00D-06.
 Requested convergence on             energy=1.00D-06.
 No special actions if energy rises.
 An orbital has undefined symmetry, so N**3 symmetry is turned off.
 SCF Done:  E(RHF) =  -92.8834445092     A.U. after   10 cycles
            NFock= 10  Conv=0.27D-08     -V/T= 2.0010
 ExpMin= 3.60D-02 ExpMax= 6.29D+03 ExpMxC= 9.49D+02 IAcc=3 IRadAn=         5 AccDes= 0.00D+00
 HarFok:  IExCor=  205 AccDes= 0.00D+00 IRadAn=         5 IDoV=-2 UseB2=F ITyADJ=14
 ICtDFT= 12500011 ScaDFX=  1.000000  1.000000  1.000000  1.000000
 Range of M.O.s used for correlation:     3    51
 NBasis=    51 NAE=     7 NBE=     7 NFC=     2 NFV=     0
 NROrb=     49 NOA=     5 NOB=     5 NVA=    44 NVB=    44

 **** Warning!!: The largest alpha MO coefficient is  0.11959442D+02

 Fully direct method using O(ONN) memory.
 JobTyp=1 Pass  1:  I=   3 to   7 NPSUse=  2 ParTrn=T ParDer=T DoDerP=T.
 Spin components of T(2) and E(2):
     alpha-alpha T2 =       0.1278221356D-01 E2=     -0.3648702643D-01
     alpha-beta  T2 =       0.7574793925D-01 E2=     -0.2158489927D+00
     beta-beta   T2 =       0.1278221356D-01 E2=     -0.3648702643D-01
 ANorm=    0.1049434308D+01
 E2 =    -0.2888230456D+00 EUMP2 =    -0.93172267554819D+02
          IDoAtm=111
          Differentiating once with respect to electric field.
                with respect to dipole field.
          Differentiating once with respect to nuclear coordinates.
 Keep R1 ints in memory in canonical form, NReq=1722308.
          There are     1 degrees of freedom in the 1st order CPHF.  IDoFFX=0 NUNeed=     1.
 LinEq1:  Iter=  0 NonCon=     1 RMS=9.54D-03 Max=6.31D-02 NDo=     1
 AX will form     1 AO Fock derivatives at one time.
 LinEq1:  Iter=  1 NonCon=     1 RMS=3.04D-03 Max=2.44D-02 NDo=     1
 LinEq1:  Iter=  2 NonCon=     1 RMS=1.06D-03 Max=5.48D-03 NDo=     1
 LinEq1:  Iter=  3 NonCon=     1 RMS=3.61D-04 Max=2.02D-03 NDo=     1
 LinEq1:  Iter=  4 NonCon=     1 RMS=6.79D-05 Max=5.19D-04 NDo=     1
 LinEq1:  Iter=  5 NonCon=     1 RMS=7.66D-06 Max=4.16D-05 NDo=     1
 LinEq1:  Iter=  6 NonCon=     1 RMS=8.34D-07 Max=7.05D-06 NDo=     1
 LinEq1:  Iter=  7 NonCon=     1 RMS=9.12D-08 Max=5.67D-07 NDo=     1
 LinEq1:  Iter=  8 NonCon=     1 RMS=8.82D-09 Max=7.92D-08 NDo=     1
 LinEq1:  Iter=  9 NonCon=     1 RMS=7.65D-10 Max=4.45D-09 NDo=     1
 LinEq1:  Iter= 10 NonCon=     0 RMS=6.89D-11 Max=4.80D-10 NDo=     1
 Linear equations converged to 1.000D-10 1.000D-09 after    10 iterations.
 End of Minotr F.D. properties file   721 does not exist.
 End of Minotr F.D. properties file   722 does not exist.
 End of Minotr F.D. properties file   788 does not exist.
 Calling FoFJK, ICntrl=  10002127 FMM=F ISym2X=1 I1Cent= 0 IOpClX= 0 NMat=1 NMatS=1 NMatT=0.
 ***** Axes restored to original set *****
 -------------------------------------------------------------------
 Center     Atomic                   Forces (Hartrees/Bohr)
 Number     Number              X              Y              Z
 -------------------------------------------------------------------
      1        7           0.000000000    0.000000000    0.011644740
      2        6           0.000000000    0.000000000    0.022963834
      3        1           0.000000000    0.000000000   -0.034608574
 -------------------------------------------------------------------
 Cartesian Forces:  Max     0.034608574 RMS     0.014378576

 GradGradGradGradGradGradGradGradGradGradGradGradGradGradGradGradGradGrad
 Berny optimization.
 Using GEDIIS/GDIIS optimizer.
 Internal  Forces:  Max     0.034608574 RMS     0.020767108
 Search for a local minimum.
 Step number   4 out of a maximum of   20
 All quantities printed in internal units (Hartrees-Bohrs-Radians)
 Mixed Optimization -- RFO/linear search
 Update second derivatives using D2CorX and points    3    2    4
 DE= -4.34D-02 DEPred=-1.99D-01 R= 2.18D-01
 Trust test= 2.18D-01 RLast= 4.05D-01 DXMaxT set to 2.52D-01
 The second derivative matrix:
                          R1        R2        A1        A2
           R1           2.44537
           R2           0.41697   0.57283
           A1           0.00000   0.00000   0.00230
           A2           0.00000   0.00000   0.00000   0.00230
 ITU=  0 -1  1  0
 Use linear search instead of GDIIS.
     Eigenvalues ---    0.00230   0.00230   0.48418   2.53402
 RFO step:  Lambda=-1.24427551D-03 EMin= 2.30000000D-03
 Quartic linear search produced a step of -0.07510.
 Iteration  1 RMS(Cart)=  0.02283769 RMS(Int)=  0.00000000
 SLEqS3 Cycle:    91 Max:0.127545E-08 RMS:0.689901E-09 Conv:0.160464E-14
 SLEqS3 Cycle:    91 Max:0.142341E-09 RMS:0.822161E-10 Conv:0.160464E-14
 Iteration  2 RMS(Cart)=  0.00000000 RMS(Int)=  0.00000000
 ClnCor:  largest displacement from symmetrization is 3.77D-08 for atom     1.
 Variable       Old X    -DE/DX   Delta X   Delta X   Delta X     New X
                                 (Linear)    (Quad)   (Total)
    R1        2.21036   0.02296  -0.01329   0.01366   0.00037   2.21073
    R2        1.82944   0.03461   0.02732   0.02843   0.05575   1.88519
    A1        3.14159   0.00000   0.00000   0.00000   0.00000   3.14159
    A2        3.14159   0.00000   0.00000   0.00000   0.00000   3.14159
         Item               Value     Threshold  Converged?
 Maximum Force            0.034609     0.000015     NO 
 RMS     Force            0.020767     0.000010     NO 
 Maximum Displacement     0.037293     0.000060     NO 
 RMS     Displacement     0.022838     0.000040     NO 
 Predicted change in Energy=-1.038967D-03
 GradGradGradGradGradGradGradGradGradGradGradGradGradGradGradGradGradGrad

                          Input orientation:                          
 ---------------------------------------------------------------------
 Center     Atomic      Atomic             Coordinates (Angstroms)
 Number     Number       Type             X           Y           Z
 ---------------------------------------------------------------------
      1          7           0        0.000000    0.000000   -0.157422
      2          6           0        0.000000    0.000000    1.012445
      3          1           0        0.000000    0.000000   -1.155023
 ---------------------------------------------------------------------
                    Distance matrix (angstroms):
                    1          2          3
     1  N    0.000000
     2  C    1.169868   0.000000
     3  H    0.997600   2.167468   0.000000
 Stoichiometry    CHN
 Framework group  C*V[C*(CNH)]
 Deg. of freedom     2
 Full point group                 C*V     NOp   4
 Largest Abelian subgroup         C2V     NOp   4
 Largest concise Abelian subgroup C1      NOp   1
                         Standard orientation:                         
 ---------------------------------------------------------------------
 Center     Atomic      Atomic             Coordinates (Angstroms)
 Number     Number       Type             X           Y           Z
 ---------------------------------------------------------------------
      1          7           0        0.000000    0.000000    0.430115
      2          6           0        0.000000    0.000000   -0.739753
      3          1           0        0.000000    0.000000    1.427715
 ---------------------------------------------------------------------
 Rotational constants (GHZ):      0.0000000     45.3762011     45.3762011
 Standard basis: 6-311++G(d,p) (5D, 7F)
 There are    29 symmetry adapted cartesian basis functions of A1  symmetry.
 There are     2 symmetry adapted cartesian basis functions of A2  symmetry.
 There are    11 symmetry adapted cartesian basis functions of B1  symmetry.
 There are    11 symmetry adapted cartesian basis functions of B2  symmetry.
 There are    27 symmetry adapted basis functions of A1  symmetry.
 There are     2 symmetry adapted basis functions of A2  symmetry.
 There are    11 symmetry adapted basis functions of B1  symmetry.
 There are    11 symmetry adapted basis functions of B2  symmetry.
    51 basis functions,    81 primitive gaussians,    53 cartesian basis functions
     7 alpha electrons        7 beta electrons
       nuclear repulsion energy        24.1762761880 Hartrees.
 NAtoms=    3 NActive=    3 NUniq=    3 SFac= 1.00D+00 NAtFMM=   60 NAOKFM=F Big=F
 Integral buffers will be    131072 words long.
 Raffenetti 1 integral format.
 Two-electron integral symmetry is turned on.
 One-electron integrals computed using PRISM.
 NBasis=    51 RedAO= T EigKep=  2.49D-03  NBF=    27     2    11    11
 NBsUse=    51 1.00D-06 EigRej= -1.00D+00 NBFU=    27     2    11    11
 Initial guess from the checkpoint file:  "HNC0MP2fc.chk"
 B after Tr=     0.000000    0.000000    0.000000
         Rot=    1.000000    0.000000    0.000000    0.000000 Ang=   0.00 deg.
 Initial guess orbital symmetries:
       Occupied  (SG) (SG) (SG) (SG) (PI) (PI) (SG)
       Virtual   (SG) (SG) (SG) (SG) (SG) (SG) (SG) (SG) (DLTA)
                 (SG) (DLTA) (SG) (SG) (SG) (SG) (SG) (SG) (SG)
                 (SG) (SG) (SG) (SG) (DLTA) (DLTA) (PI) (PI) (PI)
                 (PI) (PI) (PI) (PI) (PI) (PI) (PI) (PI) (PI) (PI)
                 (PI) (PI) (PI) (PI) (PI) (PI) (PI)
 ExpMin= 3.60D-02 ExpMax= 6.29D+03 ExpMxC= 9.49D+02 IAcc=3 IRadAn=         5 AccDes= 0.00D+00
 Harris functional with IExCor=  205 and IRadAn=       5 diagonalized for initial guess.
 HarFok:  IExCor=  205 AccDes= 0.00D+00 IRadAn=         5 IDoV= 1 UseB2=F ITyADJ=14
 ICtDFT=  3500011 ScaDFX=  1.000000  1.000000  1.000000  1.000000
 FoFCou: FMM=F IPFlag=           0 FMFlag=      100000 FMFlg1=           0
         NFxFlg=           0 DoJE=T BraDBF=F KetDBF=T FulRan=T
         wScrn=  0.000000 ICntrl=     500 IOpCl=  0 I1Cent=   200000004 NGrid=           0
         NMat0=    1 NMatS0=      1 NMatT0=    0 NMatD0=    1 NMtDS0=    0 NMtDT0=    0
 Petite list used in FoFCou.
 Keep R1 ints in memory in symmetry-blocked form, NReq=1746638.
 Requested convergence on RMS density matrix=1.00D-08 within 128 cycles.
 Requested convergence on MAX density matrix=1.00D-06.
 Requested convergence on             energy=1.00D-06.
 No special actions if energy rises.
 SCF Done:  E(RHF) =  -92.8836124986     A.U. after    9 cycles
            NFock=  9  Conv=0.60D-08     -V/T= 2.0017
 ExpMin= 3.60D-02 ExpMax= 6.29D+03 ExpMxC= 9.49D+02 IAcc=3 IRadAn=         5 AccDes= 0.00D+00
 HarFok:  IExCor=  205 AccDes= 0.00D+00 IRadAn=         5 IDoV=-2 UseB2=F ITyADJ=14
 ICtDFT= 12500011 ScaDFX=  1.000000  1.000000  1.000000  1.000000
 Range of M.O.s used for correlation:     3    51
 NBasis=    51 NAE=     7 NBE=     7 NFC=     2 NFV=     0
 NROrb=     49 NOA=     5 NOB=     5 NVA=    44 NVB=    44

 **** Warning!!: The largest alpha MO coefficient is  0.11535581D+02

 Fully direct method using O(ONN) memory.
 JobTyp=1 Pass  1:  I=   3 to   7 NPSUse=  2 ParTrn=T ParDer=T DoDerP=T.
 Spin components of T(2) and E(2):
     alpha-alpha T2 =       0.1287202412D-01 E2=     -0.3658663580D-01
     alpha-beta  T2 =       0.7632842299D-01 E2=     -0.2165004471D+00
     beta-beta   T2 =       0.1287202412D-01 E2=     -0.3658663580D-01
 ANorm=    0.1049796395D+01
 E2 =    -0.2896737187D+00 EUMP2 =    -0.93173286217308D+02
          IDoAtm=111
          Differentiating once with respect to electric field.
                with respect to dipole field.
          Differentiating once with respect to nuclear coordinates.
 Keep R1 ints in memory in symmetry-blocked form, NReq=1726898.
          There are     1 degrees of freedom in the 1st order CPHF.  IDoFFX=0 NUNeed=     1.
 LinEq1:  Iter=  0 NonCon=     1 RMS=9.58D-03 Max=6.33D-02 NDo=     1
 AX will form     1 AO Fock derivatives at one time.
 LinEq1:  Iter=  1 NonCon=     1 RMS=3.05D-03 Max=2.43D-02 NDo=     1
 LinEq1:  Iter=  2 NonCon=     1 RMS=1.06D-03 Max=5.82D-03 NDo=     1
 LinEq1:  Iter=  3 NonCon=     1 RMS=3.68D-04 Max=2.09D-03 NDo=     1
 LinEq1:  Iter=  4 NonCon=     1 RMS=6.98D-05 Max=5.06D-04 NDo=     1
 LinEq1:  Iter=  5 NonCon=     1 RMS=7.83D-06 Max=4.33D-05 NDo=     1
 LinEq1:  Iter=  6 NonCon=     1 RMS=8.52D-07 Max=7.13D-06 NDo=     1
 LinEq1:  Iter=  7 NonCon=     1 RMS=9.26D-08 Max=5.80D-07 NDo=     1
 LinEq1:  Iter=  8 NonCon=     1 RMS=9.11D-09 Max=8.16D-08 NDo=     1
 LinEq1:  Iter=  9 NonCon=     1 RMS=7.96D-10 Max=4.33D-09 NDo=     1
 LinEq1:  Iter= 10 NonCon=     0 RMS=7.30D-11 Max=4.76D-10 NDo=     1
 Linear equations converged to 1.000D-10 1.000D-09 after    10 iterations.
 End of Minotr F.D. properties file   721 does not exist.
 End of Minotr F.D. properties file   722 does not exist.
 End of Minotr F.D. properties file   788 does not exist.
 Calling FoFJK, ICntrl=  10002127 FMM=F ISym2X=1 I1Cent= 0 IOpClX= 0 NMat=1 NMatS=1 NMatT=0.
 ***** Axes restored to original set *****
 -------------------------------------------------------------------
 Center     Atomic                   Forces (Hartrees/Bohr)
 Number     Number              X              Y              Z
 -------------------------------------------------------------------
      1        7           0.000000000    0.000000000   -0.021145207
      2        6           0.000000000    0.000000000    0.023745952
      3        1           0.000000000    0.000000000   -0.002600745
 -------------------------------------------------------------------
 Cartesian Forces:  Max     0.023745952 RMS     0.010634085

 GradGradGradGradGradGradGradGradGradGradGradGradGradGradGradGradGradGrad
 Berny optimization.
 Using GEDIIS/GDIIS optimizer.
 Internal  Forces:  Max     0.023745952 RMS     0.011943974
 Search for a local minimum.
 Step number   5 out of a maximum of   20
 All quantities printed in internal units (Hartrees-Bohrs-Radians)
 Mixed Optimization -- RFO/linear search
 Update second derivatives using D2CorX and points    2    4    5
 DE= -1.02D-03 DEPred=-1.04D-03 R= 9.80D-01
 TightC=F SS=  1.41D+00  RLast= 5.58D-02 DXNew= 4.2426D-01 1.6727D-01
 Trust test= 9.80D-01 RLast= 5.58D-02 DXMaxT set to 2.52D-01
 The second derivative matrix:
                          R1        R2        A1        A2
           R1           1.98848
           R2          -0.02723   0.57426
           A1           0.00000   0.00000   0.00230
           A2           0.00000   0.00000   0.00000   0.00230
 ITU=  1  0 -1  1  0
 Use linear search instead of GDIIS.
     Eigenvalues ---    0.00230   0.00230   0.57374   1.98901
 RFO step:  Lambda=-2.85413179D-04 EMin= 2.30000000D-03
 Quartic linear search produced a step of  0.09563.
 Iteration  1 RMS(Cart)=  0.00637259 RMS(Int)=  0.00000000
 Iteration  2 RMS(Cart)=  0.00000000 RMS(Int)=  0.00000001
 ClnCor:  largest displacement from symmetrization is 1.38D-08 for atom     1.
 Variable       Old X    -DE/DX   Delta X   Delta X   Delta X     New X
                                 (Linear)    (Quad)   (Total)
    R1        2.21073   0.02375   0.00004   0.01198   0.01202   2.22275
    R2        1.88519   0.00260   0.00533   0.00029   0.00562   1.89082
    A1        3.14159   0.00000   0.00000   0.00000   0.00000   3.14159
    A2        3.14159   0.00000   0.00000   0.00000   0.00000   3.14159
         Item               Value     Threshold  Converged?
 Maximum Force            0.023746     0.000015     NO 
 RMS     Force            0.011944     0.000010     NO 
 Maximum Displacement     0.009887     0.000060     NO 
 RMS     Displacement     0.006373     0.000040     NO 
 Predicted change in Energy=-1.491631D-04
 GradGradGradGradGradGradGradGradGradGradGradGradGradGradGradGradGradGrad

                          Input orientation:                          
 ---------------------------------------------------------------------
 Center     Atomic      Atomic             Coordinates (Angstroms)
 Number     Number       Type             X           Y           Z
 ---------------------------------------------------------------------
      1          7           0        0.000000    0.000000   -0.158550
      2          6           0        0.000000    0.000000    1.017677
      3          1           0        0.000000    0.000000   -1.159127
 ---------------------------------------------------------------------
                    Distance matrix (angstroms):
                    1          2          3
     1  N    0.000000
     2  C    1.176227   0.000000
     3  H    1.000577   2.176804   0.000000
 Stoichiometry    CHN
 Framework group  C*V[C*(CNH)]
 Deg. of freedom     2
 Full point group                 C*V     NOp   4
 Largest Abelian subgroup         C2V     NOp   4
 Largest concise Abelian subgroup C1      NOp   1
                         Standard orientation:                         
 ---------------------------------------------------------------------
 Center     Atomic      Atomic             Coordinates (Angstroms)
 Number     Number       Type             X           Y           Z
 ---------------------------------------------------------------------
      1          7           0        0.000000    0.000000    0.432628
      2          6           0        0.000000    0.000000   -0.743600
      3          1           0        0.000000    0.000000    1.433204
 ---------------------------------------------------------------------
 Rotational constants (GHZ):      0.0000000     44.9161022     44.9161022
 Standard basis: 6-311++G(d,p) (5D, 7F)
 There are    29 symmetry adapted cartesian basis functions of A1  symmetry.
 There are     2 symmetry adapted cartesian basis functions of A2  symmetry.
 There are    11 symmetry adapted cartesian basis functions of B1  symmetry.
 There are    11 symmetry adapted cartesian basis functions of B2  symmetry.
 There are    27 symmetry adapted basis functions of A1  symmetry.
 There are     2 symmetry adapted basis functions of A2  symmetry.
 There are    11 symmetry adapted basis functions of B1  symmetry.
 There are    11 symmetry adapted basis functions of B2  symmetry.
    51 basis functions,    81 primitive gaussians,    53 cartesian basis functions
     7 alpha electrons        7 beta electrons
       nuclear repulsion energy        24.0562282114 Hartrees.
 NAtoms=    3 NActive=    3 NUniq=    3 SFac= 1.00D+00 NAtFMM=   60 NAOKFM=F Big=F
 Integral buffers will be    131072 words long.
 Raffenetti 1 integral format.
 Two-electron integral symmetry is turned on.
 One-electron integrals computed using PRISM.
 NBasis=    51 RedAO= T EigKep=  2.54D-03  NBF=    27     2    11    11
 NBsUse=    51 1.00D-06 EigRej= -1.00D+00 NBFU=    27     2    11    11
 Initial guess from the checkpoint file:  "HNC0MP2fc.chk"
 B after Tr=     0.000000    0.000000    0.000000
         Rot=    1.000000    0.000000    0.000000    0.000000 Ang=   0.00 deg.
 Initial guess orbital symmetries:
       Occupied  (SG) (SG) (SG) (SG) (PI) (PI) (SG)
       Virtual   (SG) (SG) (SG) (SG) (SG) (SG) (SG) (SG) (DLTA)
                 (SG) (DLTA) (SG) (SG) (SG) (SG) (SG) (SG) (SG)
                 (SG) (SG) (SG) (SG) (DLTA) (DLTA) (PI) (PI) (PI)
                 (PI) (PI) (PI) (PI) (PI) (PI) (PI) (PI) (PI) (PI)
                 (PI) (PI) (PI) (PI) (PI) (PI) (PI)
 Keep R1 ints in memory in symmetry-blocked form, NReq=1746638.
 Requested convergence on RMS density matrix=1.00D-08 within 128 cycles.
 Requested convergence on MAX density matrix=1.00D-06.
 Requested convergence on             energy=1.00D-06.
 No special actions if energy rises.
 SCF Done:  E(RHF) =  -92.8828786629     A.U. after    9 cycles
            NFock=  9  Conv=0.13D-08     -V/T= 2.0021
 ExpMin= 3.60D-02 ExpMax= 6.29D+03 ExpMxC= 9.49D+02 IAcc=3 IRadAn=         5 AccDes= 0.00D+00
 HarFok:  IExCor=  205 AccDes= 0.00D+00 IRadAn=         5 IDoV=-2 UseB2=F ITyADJ=14
 ICtDFT= 12500011 ScaDFX=  1.000000  1.000000  1.000000  1.000000
 Range of M.O.s used for correlation:     3    51
 NBasis=    51 NAE=     7 NBE=     7 NFC=     2 NFV=     0
 NROrb=     49 NOA=     5 NOB=     5 NVA=    44 NVB=    44

 **** Warning!!: The largest alpha MO coefficient is  0.11429805D+02

 Fully direct method using O(ONN) memory.
 JobTyp=1 Pass  1:  I=   3 to   7 NPSUse=  2 ParTrn=T ParDer=T DoDerP=T.
 Spin components of T(2) and E(2):
     alpha-alpha T2 =       0.1299858323D-01 E2=     -0.3671906650D-01
     alpha-beta  T2 =       0.7698948786D-01 E2=     -0.2171821233D+00
     beta-beta   T2 =       0.1299858323D-01 E2=     -0.3671906650D-01
 ANorm=    0.1050231715D+01
 E2 =    -0.2906202563D+00 EUMP2 =    -0.93173498919217D+02
          IDoAtm=111
          Differentiating once with respect to electric field.
                with respect to dipole field.
          Differentiating once with respect to nuclear coordinates.
 Keep R1 ints in memory in symmetry-blocked form, NReq=1726898.
          There are     1 degrees of freedom in the 1st order CPHF.  IDoFFX=0 NUNeed=     1.
 LinEq1:  Iter=  0 NonCon=     1 RMS=9.74D-03 Max=6.49D-02 NDo=     1
 AX will form     1 AO Fock derivatives at one time.
 LinEq1:  Iter=  1 NonCon=     1 RMS=3.13D-03 Max=2.47D-02 NDo=     1
 LinEq1:  Iter=  2 NonCon=     1 RMS=1.10D-03 Max=6.10D-03 NDo=     1
 LinEq1:  Iter=  3 NonCon=     1 RMS=3.81D-04 Max=2.17D-03 NDo=     1
 LinEq1:  Iter=  4 NonCon=     1 RMS=7.24D-05 Max=5.18D-04 NDo=     1
 LinEq1:  Iter=  5 NonCon=     1 RMS=8.28D-06 Max=4.53D-05 NDo=     1
 LinEq1:  Iter=  6 NonCon=     1 RMS=8.93D-07 Max=7.55D-06 NDo=     1
 LinEq1:  Iter=  7 NonCon=     1 RMS=9.76D-08 Max=5.95D-07 NDo=     1
 LinEq1:  Iter=  8 NonCon=     1 RMS=9.52D-09 Max=8.45D-08 NDo=     1
 LinEq1:  Iter=  9 NonCon=     1 RMS=8.26D-10 Max=4.27D-09 NDo=     1
 LinEq1:  Iter= 10 NonCon=     0 RMS=7.68D-11 Max=4.92D-10 NDo=     1
 Linear equations converged to 1.000D-10 1.000D-09 after    10 iterations.
 End of Minotr F.D. properties file   721 does not exist.
 End of Minotr F.D. properties file   722 does not exist.
 End of Minotr F.D. properties file   788 does not exist.
 Calling FoFJK, ICntrl=  10002127 FMM=F ISym2X=1 I1Cent= 0 IOpClX= 0 NMat=1 NMatS=1 NMatT=0.
 ***** Axes restored to original set *****
 -------------------------------------------------------------------
 Center     Atomic                   Forces (Hartrees/Bohr)
 Number     Number              X              Y              Z
 -------------------------------------------------------------------
      1        7           0.000000000    0.000000000   -0.010614575
      2        6           0.000000000    0.000000000    0.010558004
      3        1           0.000000000    0.000000000    0.000056571
 -------------------------------------------------------------------
 Cartesian Forces:  Max     0.010614575 RMS     0.004990478

 GradGradGradGradGradGradGradGradGradGradGradGradGradGradGradGradGradGrad
 Berny optimization.
 Using GEDIIS/GDIIS optimizer.
 Internal  Forces:  Max     0.010558004 RMS     0.005279078
 Search for a local minimum.
 Step number   6 out of a maximum of   20
 All quantities printed in internal units (Hartrees-Bohrs-Radians)
 Mixed Optimization -- RFO/linear search
 Update second derivatives using D2CorX and points    2    4    5    6
 DE= -2.13D-04 DEPred=-1.49D-04 R= 1.43D+00
 TightC=F SS=  1.41D+00  RLast= 1.33D-02 DXNew= 4.2426D-01 3.9807D-02
 Trust test= 1.43D+00 RLast= 1.33D-02 DXMaxT set to 2.52D-01
 The second derivative matrix:
                          R1        R2        A1        A2
           R1           1.12429
           R2          -0.05757   0.59548
           A1           0.00000   0.00000   0.00230
           A2           0.00000   0.00000   0.00000   0.00230
 ITU=  1  1  0 -1  1
 Use linear search instead of GDIIS.
     Eigenvalues ---    0.00230   0.00230   0.58929   1.13048
 RFO step:  Lambda=-6.63662947D-06 EMin= 2.30000000D-03
 Quartic linear search produced a step of  0.75645.
 Iteration  1 RMS(Cart)=  0.00421250 RMS(Int)=  0.00000000
 Iteration  2 RMS(Cart)=  0.00000000 RMS(Int)=  0.00000000
 ClnCor:  largest displacement from symmetrization is 1.92D-09 for atom     1.
 Variable       Old X    -DE/DX   Delta X   Delta X   Delta X     New X
                                 (Linear)    (Quad)   (Total)
    R1        2.22275   0.01056   0.00909   0.00064   0.00973   2.23248
    R2        1.89082  -0.00006   0.00425  -0.00316   0.00109   1.89191
    A1        3.14159   0.00000   0.00000   0.00000   0.00000   3.14159
    A2        3.14159   0.00000   0.00000   0.00000   0.00000   3.14159
         Item               Value     Threshold  Converged?
 Maximum Force            0.010558     0.000015     NO 
 RMS     Force            0.005279     0.000010     NO 
 Maximum Displacement     0.006850     0.000060     NO 
 RMS     Displacement     0.004212     0.000040     NO 
 Predicted change in Energy=-4.970480D-05
 GradGradGradGradGradGradGradGradGradGradGradGradGradGradGradGradGradGrad

                          Input orientation:                          
 ---------------------------------------------------------------------
 Center     Atomic      Atomic             Coordinates (Angstroms)
 Number     Number       Type             X           Y           Z
 ---------------------------------------------------------------------
      1          7           0        0.000000    0.000000   -0.160073
      2          6           0        0.000000    0.000000    1.021302
      3          1           0        0.000000    0.000000   -1.161229
 ---------------------------------------------------------------------
                    Distance matrix (angstroms):
                    1          2          3
     1  N    0.000000
     2  C    1.181375   0.000000
     3  H    1.001155   2.182531   0.000000
 Stoichiometry    CHN
 Framework group  C*V[C*(CNH)]
 Deg. of freedom     2
 Full point group                 C*V     NOp   4
 Largest Abelian subgroup         C2V     NOp   4
 Largest concise Abelian subgroup C1      NOp   1
                         Standard orientation:                         
 ---------------------------------------------------------------------
 Center     Atomic      Atomic             Coordinates (Angstroms)
 Number     Number       Type             X           Y           Z
 ---------------------------------------------------------------------
      1          7           0        0.000000    0.000000    0.434793
      2          6           0        0.000000    0.000000   -0.746583
      3          1           0        0.000000    0.000000    1.435948
 ---------------------------------------------------------------------
 Rotational constants (GHZ):      0.0000000     44.5703451     44.5703451
 Standard basis: 6-311++G(d,p) (5D, 7F)
 There are    29 symmetry adapted cartesian basis functions of A1  symmetry.
 There are     2 symmetry adapted cartesian basis functions of A2  symmetry.
 There are    11 symmetry adapted cartesian basis functions of B1  symmetry.
 There are    11 symmetry adapted cartesian basis functions of B2  symmetry.
 There are    27 symmetry adapted basis functions of A1  symmetry.
 There are     2 symmetry adapted basis functions of A2  symmetry.
 There are    11 symmetry adapted basis functions of B1  symmetry.
 There are    11 symmetry adapted basis functions of B2  symmetry.
    51 basis functions,    81 primitive gaussians,    53 cartesian basis functions
     7 alpha electrons        7 beta electrons
       nuclear repulsion energy        23.9679237427 Hartrees.
 NAtoms=    3 NActive=    3 NUniq=    3 SFac= 1.00D+00 NAtFMM=   60 NAOKFM=F Big=F
 Integral buffers will be    131072 words long.
 Raffenetti 1 integral format.
 Two-electron integral symmetry is turned on.
 One-electron integrals computed using PRISM.
 NBasis=    51 RedAO= T EigKep=  2.57D-03  NBF=    27     2    11    11
 NBsUse=    51 1.00D-06 EigRej= -1.00D+00 NBFU=    27     2    11    11
 Initial guess from the checkpoint file:  "HNC0MP2fc.chk"
 B after Tr=     0.000000    0.000000    0.000000
         Rot=    1.000000    0.000000    0.000000    0.000000 Ang=   0.00 deg.
 Initial guess orbital symmetries:
       Occupied  (SG) (SG) (SG) (SG) (PI) (PI) (SG)
       Virtual   (SG) (SG) (SG) (SG) (SG) (SG) (SG) (SG) (DLTA)
                 (SG) (DLTA) (SG) (SG) (SG) (SG) (SG) (SG) (SG)
                 (SG) (SG) (SG) (SG) (DLTA) (DLTA) (PI) (PI) (PI)
                 (PI) (PI) (PI) (PI) (PI) (PI) (PI) (PI) (PI) (PI)
                 (PI) (PI) (PI) (PI) (PI) (PI) (PI)
 Keep R1 ints in memory in symmetry-blocked form, NReq=1746623.
 Requested convergence on RMS density matrix=1.00D-08 within 128 cycles.
 Requested convergence on MAX density matrix=1.00D-06.
 Requested convergence on             energy=1.00D-06.
 No special actions if energy rises.
 SCF Done:  E(RHF) =  -92.8822104332     A.U. after    8 cycles
            NFock=  8  Conv=0.59D-08     -V/T= 2.0023
 ExpMin= 3.60D-02 ExpMax= 6.29D+03 ExpMxC= 9.49D+02 IAcc=3 IRadAn=         5 AccDes= 0.00D+00
 HarFok:  IExCor=  205 AccDes= 0.00D+00 IRadAn=         5 IDoV=-2 UseB2=F ITyADJ=14
 ICtDFT= 12500011 ScaDFX=  1.000000  1.000000  1.000000  1.000000
 Range of M.O.s used for correlation:     3    51
 NBasis=    51 NAE=     7 NBE=     7 NFC=     2 NFV=     0
 NROrb=     49 NOA=     5 NOB=     5 NVA=    44 NVB=    44

 **** Warning!!: The largest alpha MO coefficient is  0.11372645D+02

 Fully direct method using O(ONN) memory.
 JobTyp=1 Pass  1:  I=   3 to   7 NPSUse=  2 ParTrn=T ParDer=T DoDerP=T.
 Spin components of T(2) and E(2):
     alpha-alpha T2 =       0.1309692797D-01 E2=     -0.3682126392D-01
     alpha-beta  T2 =       0.7749472354D-01 E2=     -0.2176978031D+00
     beta-beta   T2 =       0.1309692797D-01 E2=     -0.3682126392D-01
 ANorm=    0.1050565838D+01
 E2 =    -0.2913403310D+00 EUMP2 =    -0.93173550764211D+02
          IDoAtm=111
          Differentiating once with respect to electric field.
                with respect to dipole field.
          Differentiating once with respect to nuclear coordinates.
 Keep R1 ints in memory in symmetry-blocked form, NReq=1726898.
          There are     1 degrees of freedom in the 1st order CPHF.  IDoFFX=0 NUNeed=     1.
 LinEq1:  Iter=  0 NonCon=     1 RMS=9.88D-03 Max=6.63D-02 NDo=     1
 AX will form     1 AO Fock derivatives at one time.
 LinEq1:  Iter=  1 NonCon=     1 RMS=3.18D-03 Max=2.51D-02 NDo=     1
 LinEq1:  Iter=  2 NonCon=     1 RMS=1.13D-03 Max=6.35D-03 NDo=     1
 LinEq1:  Iter=  3 NonCon=     1 RMS=3.91D-04 Max=2.23D-03 NDo=     1
 LinEq1:  Iter=  4 NonCon=     1 RMS=7.44D-05 Max=5.29D-04 NDo=     1
 LinEq1:  Iter=  5 NonCon=     1 RMS=8.64D-06 Max=4.68D-05 NDo=     1
 LinEq1:  Iter=  6 NonCon=     1 RMS=9.26D-07 Max=7.88D-06 NDo=     1
 LinEq1:  Iter=  7 NonCon=     1 RMS=1.02D-07 Max=6.05D-07 NDo=     1
 LinEq1:  Iter=  8 NonCon=     1 RMS=9.83D-09 Max=8.66D-08 NDo=     1
 LinEq1:  Iter=  9 NonCon=     1 RMS=8.49D-10 Max=4.22D-09 NDo=     1
 LinEq1:  Iter= 10 NonCon=     0 RMS=7.97D-11 Max=5.05D-10 NDo=     1
 Linear equations converged to 1.000D-10 1.000D-09 after    10 iterations.
 End of Minotr F.D. properties file   721 does not exist.
 End of Minotr F.D. properties file   722 does not exist.
 End of Minotr F.D. properties file   788 does not exist.
 Calling FoFJK, ICntrl=  10002127 FMM=F ISym2X=1 I1Cent= 0 IOpClX= 0 NMat=1 NMatS=1 NMatT=0.
 ***** Axes restored to original set *****
 -------------------------------------------------------------------
 Center     Atomic                   Forces (Hartrees/Bohr)
 Number     Number              X              Y              Z
 -------------------------------------------------------------------
      1        7           0.000000000    0.000000000   -0.000621200
      2        6           0.000000000    0.000000000    0.000212362
      3        1           0.000000000    0.000000000    0.000408838
 -------------------------------------------------------------------
 Cartesian Forces:  Max     0.000621200 RMS     0.000257797

 GradGradGradGradGradGradGradGradGradGradGradGradGradGradGradGradGradGrad
 Berny optimization.
 Using GEDIIS/GDIIS optimizer.
 Internal  Forces:  Max     0.000408838 RMS     0.000230351
 Search for a local minimum.
 Step number   7 out of a maximum of   20
 All quantities printed in internal units (Hartrees-Bohrs-Radians)
 Mixed Optimization -- En-DIIS/RFO-DIIS
 Update second derivatives using D2CorX and points    2    4    5    6    7
 DE= -5.18D-05 DEPred=-4.97D-05 R= 1.04D+00
 TightC=F SS=  1.41D+00  RLast= 9.79D-03 DXNew= 4.2426D-01 2.9368D-02
 Trust test= 1.04D+00 RLast= 9.79D-03 DXMaxT set to 2.52D-01
 The second derivative matrix:
                          R1        R2        A1        A2
           R1           1.06676
           R2          -0.02899   0.57987
           A1           0.00000   0.00000   0.00230
           A2           0.00000   0.00000   0.00000   0.00230
 ITU=  1  1  1  0 -1
 Use linear search instead of GDIIS.
     Eigenvalues ---    0.00230   0.00230   0.57815   1.06848
 RFO step:  Lambda=-2.96572210D-07 EMin= 2.30000000D-03
 Quartic linear search produced a step of  0.01630.
 Iteration  1 RMS(Cart)=  0.00025488 RMS(Int)=  0.00000000
[...]
                 (SG) (SG) (SG) (SG) (PI) (PI) (SG) (PI) (PI) (SG)
                 (SG) (SG) (PI) (PI) (DLTA) (DLTA) (PI) (PI) (SG)
                 (DLTA) (DLTA) (SG) (PI) (PI) (SG) (PI) (PI) (SG)
                 (SG) (PI) (PI) (SG) (SG) (SG)
 Keep R1 ints in memory in symmetry-blocked form, NReq=1746623.
 Requested convergence on RMS density matrix=1.00D-08 within 128 cycles.
 Requested convergence on MAX density matrix=1.00D-06.
 Requested convergence on             energy=1.00D-06.
 No special actions if energy rises.
 SCF Done:  E(RHF) =  -92.8822090109     A.U. after    1 cycles
            NFock=  1  Conv=0.69D-09     -V/T= 2.0023
 ExpMin= 3.60D-02 ExpMax= 6.29D+03 ExpMxC= 9.49D+02 IAcc=3 IRadAn=         5 AccDes= 0.00D+00
 HarFok:  IExCor=  205 AccDes= 0.00D+00 IRadAn=         5 IDoV=-2 UseB2=F ITyADJ=14
 ICtDFT= 12500011 ScaDFX=  1.000000  1.000000  1.000000  1.000000
 Range of M.O.s used for correlation:     3    51
 NBasis=    51 NAE=     7 NBE=     7 NFC=     2 NFV=     0
 NROrb=     49 NOA=     5 NOB=     5 NVA=    44 NVB=    44

 **** Warning!!: The largest alpha MO coefficient is  0.11378323D+02

 Disk-based method using ON**2 memory for  5 occupieds at a time.
 Permanent disk used for amplitudes=      114730 words.
 Estimated scratch disk usage=     1925400 words.
 Actual    scratch disk usage=     1925400 words.
 JobTyp=1 Pass  1:  I=   3 to   7 NPSUse=  2 ParTrn=T ParDer=T DoDerP=T.
 (rs|ai) integrals will be sorted in core.
 Spin components of T(2) and E(2):
     alpha-alpha T2 =       0.1309752865D-01 E2=     -0.3682178364D-01
     alpha-beta  T2 =       0.7749602611D-01 E2=     -0.2176983651D+00
     beta-beta   T2 =       0.1309752865D-01 E2=     -0.3682178364D-01
 ANorm=    0.1050567029D+01
 E2 =    -0.2913419324D+00 EUMP2 =    -0.93173550943377D+02
 G2DrvN: will do     4 centers at a time, making    1 passes.
 Calling FoFCou, ICntrl=  3107 FMM=F I1Cent=   0 AccDes= 0.00D+00.
 End of G2Drv F.D. properties file   721 does not exist.
 End of G2Drv F.D. properties file   722 does not exist.
 End of G2Drv F.D. properties file   788 does not exist.
          IDoAtm=111
          Differentiating once with respect to electric field.
                with respect to dipole field.
          Differentiating once with respect to nuclear coordinates.
 Keep R1 ints in memory in symmetry-blocked form, NReq=1726837.
          There are    12 degrees of freedom in the 1st order CPHF.  IDoFFX=6 NUNeed=    12.
      9 vectors produced by pass  0 Test12= 2.57D-15 8.33D-09 XBig12= 6.94D+00 1.17D+00.
 AX will form     9 AO Fock derivatives at one time.
      9 vectors produced by pass  1 Test12= 2.57D-15 8.33D-09 XBig12= 9.22D-01 3.54D-01.
      9 vectors produced by pass  2 Test12= 2.57D-15 8.33D-09 XBig12= 1.56D-02 4.15D-02.
      9 vectors produced by pass  3 Test12= 2.57D-15 8.33D-09 XBig12= 1.57D-04 3.35D-03.
      9 vectors produced by pass  4 Test12= 2.57D-15 8.33D-09 XBig12= 1.91D-06 3.48D-04.
      9 vectors produced by pass  5 Test12= 2.57D-15 8.33D-09 XBig12= 2.57D-08 4.79D-05.
      7 vectors produced by pass  6 Test12= 2.57D-15 8.33D-09 XBig12= 1.43D-10 3.16D-06.
      3 vectors produced by pass  7 Test12= 2.57D-15 8.33D-09 XBig12= 7.39D-13 3.01D-07.
      1 vectors produced by pass  8 Test12= 2.57D-15 8.33D-09 XBig12= 3.53D-15 1.65D-08.
 InvSVY:  IOpt=1 It=  1 EMax= 4.44D-16
 Solved reduced A of dimension    65 with     9 vectors.
 End of Minotr F.D. properties file   721 does not exist.
 End of Minotr F.D. properties file   722 does not exist.
 End of Minotr F.D. properties file   788 does not exist.
 MDV=   805306368.
 Form MO integral derivatives with frozen-active canonical formalism.
 Discarding MO integrals.
 Reordered first order wavefunction length =       189728
 In DefCFB: NBatch=  1 ICI=  7 ICA= 44 LFMax= 44
            Large arrays: LIAPS=     3330096 LIARS=     2628164 words.
 Semi-Direct transformation.
 ModeAB=           2 MOrb=             7 LenV=     805104111
 LASXX=       412797 LTotXX=      412797 LenRXX=      412797
 LTotAB=      436912 MaxLAS=      510867 LenRXY=      510867
 NonZer=      825594 LenScr=     1857024 LnRSAI=           0
 LnScr1=           0 LExtra=           0 Total=      2780688
 MaxDsk=          -1 SrtSym=           F ITran=            4
 JobTyp=0 Pass  1:  I=   1 to   7.
 (rs|ai) integrals will be sorted in core.
 Spin components of T(2) and E(2):
     alpha-alpha T2 =       0.1309752865D-01 E2=     -0.3682178364D-01
     alpha-beta  T2 =       0.7749602611D-01 E2=     -0.2176983651D+00
     beta-beta   T2 =       0.1309752865D-01 E2=     -0.3682178364D-01
 ANorm=    0.1485726141D+01
 E2 =    -0.2913419324D+00 EUMP2 =    -0.93173550943377D+02
          IDoAtm=111
          Differentiating once with respect to electric field.
                with respect to dipole field.
          Differentiating once with respect to nuclear coordinates.
          There are     1 degrees of freedom in the 1st order CPHF.  IDoFFX=0 NUNeed=     1.
 LinEq1:  Iter=  0 NonCon=     1 RMS=9.88D-03 Max=6.63D-02 NDo=     1
 LinEq1:  Iter=  1 NonCon=     1 RMS=3.19D-03 Max=2.51D-02 NDo=     1
 LinEq1:  Iter=  2 NonCon=     1 RMS=1.13D-03 Max=6.35D-03 NDo=     1
 LinEq1:  Iter=  3 NonCon=     1 RMS=3.91D-04 Max=2.23D-03 NDo=     1
 LinEq1:  Iter=  4 NonCon=     1 RMS=7.44D-05 Max=5.29D-04 NDo=     1
 LinEq1:  Iter=  5 NonCon=     1 RMS=8.65D-06 Max=4.68D-05 NDo=     1
 LinEq1:  Iter=  6 NonCon=     1 RMS=9.26D-07 Max=7.89D-06 NDo=     1
 LinEq1:  Iter=  7 NonCon=     1 RMS=1.02D-07 Max=6.05D-07 NDo=     1
 LinEq1:  Iter=  8 NonCon=     1 RMS=9.83D-09 Max=8.66D-08 NDo=     1
 LinEq1:  Iter=  9 NonCon=     1 RMS=8.49D-10 Max=4.22D-09 NDo=     1
 LinEq1:  Iter= 10 NonCon=     0 RMS=7.97D-11 Max=5.05D-10 NDo=     1
 Linear equations converged to 1.000D-10 1.000D-09 after    10 iterations.
 End of Minotr F.D. properties file   721 does not exist.
 End of Minotr F.D. properties file   722 does not exist.
 End of Minotr F.D. properties file   788 does not exist.
 Symmetrizing basis deriv contribution to polar:
 IMax=3 JMax=2 DiffMx= 0.00D+00
 G2DrvN: will do     4 centers at a time, making    1 passes.
 Calling FoFCou, ICntrl=  3107 FMM=F I1Cent=   0 AccDes= 0.00D+00.
 End of G2Drv F.D. properties file   721 does not exist.
 End of G2Drv F.D. properties file   722 does not exist.
 End of G2Drv F.D. properties file   788 does not exist.
 R2 and R3 integrals will be kept in memory, NReq=     2869192.
 DD1Dir will call FoFMem   1 times, MxPair=        56
 NAB=    28 NAA=     0 NBB=     0.
 Discarding MO integrals.

 **********************************************************************

            Population analysis using the SCF density.

 **********************************************************************

 Orbital symmetries:
       Occupied  (SG) (SG) (SG) (SG) (PI) (PI) (SG)
       Virtual   (SG) (SG) (PI) (PI) (SG) (PI) (PI) (SG) (PI) (PI)
                 (SG) (SG) (SG) (SG) (PI) (PI) (SG) (PI) (PI) (SG)
                 (SG) (SG) (PI) (PI) (DLTA) (DLTA) (PI) (PI) (SG)
                 (DLTA) (DLTA) (SG) (PI) (PI) (SG) (PI) (PI) (SG)
                 (SG) (PI) (PI) (SG) (SG) (SG)
 The electronic state is 1-SG.
 Alpha  occ. eigenvalues --  -15.60935 -11.30695  -1.26356  -0.87532  -0.51799
 Alpha  occ. eigenvalues --   -0.51799  -0.49481
 Alpha virt. eigenvalues --    0.03808   0.10140   0.10792   0.10792   0.13720
 Alpha virt. eigenvalues --    0.16522   0.16522   0.21812   0.25908   0.25908
 Alpha virt. eigenvalues --    0.28511   0.36749   0.54801   0.64946   0.73883
 Alpha virt. eigenvalues --    0.73883   0.99641   1.01201   1.01201   1.10502
 Alpha virt. eigenvalues --    1.23762   1.37934   1.43598   1.43598   1.53633
 Alpha virt. eigenvalues --    1.53633   1.94411   1.94411   2.21331   2.33023
 Alpha virt. eigenvalues --    2.33023   2.58807   2.94961   2.94961   2.95781
 Alpha virt. eigenvalues --    3.26648   3.26648   3.65239   4.04161   4.32070
 Alpha virt. eigenvalues --    4.32070   5.26223  25.09501  37.10545
          Condensed to atoms (all electrons):
               1          2          3
     1  N    6.368637   0.493397   0.382566
     2  C    0.493397   5.635247  -0.046781
     3  H    0.382566  -0.046781   0.337752
 Mulliken charges:
               1
     1  N   -0.244600
     2  C   -0.081863
     3  H    0.326463
 Sum of Mulliken charges =   0.00000
 Mulliken charges with hydrogens summed into heavy atoms:
               1
     1  N    0.081863
     2  C   -0.081863
 APT charges:
               1
     1  N   -0.503868
     2  C    0.058706
     3  H    0.445162
 Sum of APT charges =   0.00000
 APT charges with hydrogens summed into heavy atoms:
               1
     1  N   -0.058706
     2  C    0.058706
 Electronic spatial extent (au):  <R**2>=             49.8803
 Charge=              0.0000 electrons
 Dipole moment (field-independent basis, Debye):
    X=              0.0000    Y=              0.0000    Z=              2.8217  Tot=              2.8217
 Quadrupole moment (field-independent basis, Debye-Ang):
   XX=            -12.2583   YY=            -12.2583   ZZ=            -10.2521
   XY=              0.0000   XZ=              0.0000   YZ=              0.0000
 Traceless Quadrupole moment (field-independent basis, Debye-Ang):
   XX=             -0.6688   YY=             -0.6688   ZZ=              1.3375
   XY=              0.0000   XZ=              0.0000   YZ=              0.0000
 Octapole moment (field-independent basis, Debye-Ang**2):
  XXX=              0.0000  YYY=              0.0000  ZZZ=             14.9399  XYY=              0.0000
  XXY=              0.0000  XXZ=              1.2890  XZZ=              0.0000  YZZ=              0.0000
  YYZ=              1.2890  XYZ=              0.0000
 Hexadecapole moment (field-independent basis, Debye-Ang**3):
 XXXX=            -12.9841 YYYY=            -12.9841 ZZZZ=            -42.4193 XXXY=              0.0000
 XXXZ=              0.0000 YYYX=              0.0000 YYYZ=              0.0000 ZZZX=              0.0000
 ZZZY=              0.0000 XXYY=             -4.3280 XXZZ=            -10.0587 YYZZ=            -10.0587
 XXYZ=              0.0000 YYXZ=              0.0000 ZZXY=              0.0000
 N-N= 2.396810638186D+01 E-N=-2.651945110945D+02  KE= 9.266583972351D+01
 Symmetry A1   KE= 8.695438927925D+01
 Symmetry A2   KE= 3.140356244144D-51
 Symmetry B1   KE= 2.855725222128D+00
 Symmetry B2   KE= 2.855725222128D+00
  Exact polarizability:  12.307   0.000  12.307   0.000   0.000  23.528
 Approx polarizability:   9.806   0.000   9.806   0.000   0.000  21.127
 Calling FoFJK, ICntrl=  10100127 FMM=F ISym2X=1 I1Cent= 0 IOpClX= 0 NMat=1 NMatS=1 NMatT=0.
 Full mass-weighted force constant matrix:
 Low frequencies ---    0.0007    0.0007    0.0012    0.9013    0.9013  507.8351
 Low frequencies ---  507.8351 2014.9821 3836.4335
 Diagonal vibrational polarizability:
       16.3607304      16.3607304       0.6999110
 Harmonic frequencies (cm**-1), IR intensities (KM/Mole), Raman scattering
 activities (A**4/AMU), depolarization ratios for plane and unpolarized
 incident light, reduced masses (AMU), force constants (mDyne/A),
 and normal coordinates:
                      1                      2                      3
                     PI                     PI                     SG
 Frequencies --    507.8351               507.8351              2014.9821
 Red. masses --      1.2868                 1.2868                 7.1293
 Frc consts  --      0.1955                 0.1955                17.0544
 IR Inten    --    156.7888               156.7888                32.2053
  Atom  AN      X      Y      Z        X      Y      Z        X      Y      Z
     1   7     0.00   0.13   0.00     0.13   0.00   0.00     0.00   0.00   0.44
     2   6     0.00  -0.07   0.00    -0.07   0.00   0.00     0.00   0.00  -0.57
     3   1     0.00  -0.99   0.00    -0.99   0.00   0.00     0.00   0.00   0.69
                      4
                     SG
 Frequencies --   3836.4335
 Red. masses --      1.1165
 Frc consts  --      9.6821
 IR Inten    --    266.0483
  Atom  AN      X      Y      Z
     1   7     0.00   0.00   0.09
     2   6     0.00   0.00  -0.02
     3   1     0.00   0.00  -1.00

 -------------------
 - Thermochemistry -
 -------------------
 Temperature   298.150 Kelvin.  Pressure   1.00000 Atm.
 Atom     1 has atomic number  7 and mass  14.00307
 Atom     2 has atomic number  6 and mass  12.00000
 Atom     3 has atomic number  1 and mass   1.00783
 Molecular mass:    27.01090 amu.
 Principal axes and moments of inertia in atomic units:
                           1         2         3
     Eigenvalues --     0.00000  40.49338  40.49338
           X            0.00000   0.00000   1.00000
           Y            0.00000   1.00000   0.00000
           Z            1.00000   0.00000   0.00000
 This molecule is a prolate symmetric top.
 Rotational symmetry number  1.
 Rotational temperature (Kelvin)      2.13896
 Rotational constant (GHZ):          44.568797
 Zero-point vibrational energy      41074.3 (Joules/Mol)
                                    9.81699 (Kcal/Mol)
 Warning -- explicit consideration of   2 degrees of freedom as
           vibrations may cause significant error
 Vibrational temperatures:    730.66   730.66  2899.11  5519.77
          (Kelvin)
 
 Zero-point correction=                           0.015644 (Hartree/Particle)
 Thermal correction to Energy=                    0.018442
 Thermal correction to Enthalpy=                  0.019386
 Thermal correction to Gibbs Free Energy=        -0.003845
 Sum of electronic and zero-point Energies=            -93.157907
 Sum of electronic and thermal Energies=               -93.155109
 Sum of electronic and thermal Enthalpies=             -93.154165
 Sum of electronic and thermal Free Energies=          -93.177396
 
                     E (Thermal)             CV                S
                      KCal/Mol        Cal/Mol-Kelvin    Cal/Mol-Kelvin
 Total                   11.573              7.445             48.894
 Electronic               0.000              0.000              0.000
 Translational            0.889              2.981             35.816
 Rotational               0.592              1.987             11.799
 Vibrational             10.091              2.477              1.279
 Vibration     1          0.863              1.233              0.639
 Vibration     2          0.863              1.233              0.639
                       Q            Log10(Q)             Ln(Q)
 Total Bot       0.586757D+02          1.768459          4.072026
 Total V=0       0.921202D+09          8.964355         20.641190
 Vib (Bot)       0.762892D-07         -7.117537        -16.388734
 Vib (Bot)    1  0.321378D+00         -0.492984         -1.135139
 Vib (Bot)    2  0.321378D+00         -0.492984         -1.135139
 Vib (V=0)       0.119773D+01          0.078360          0.180430
 Vib (V=0)    1  0.109438D+01          0.039167          0.090185
 Vib (V=0)    2  0.109438D+01          0.039167          0.090185
 Electronic      0.100000D+01          0.000000          0.000000
 Translational   0.551777D+07          6.741764         15.523485
 Rotational      0.139390D+03          2.144232          4.937276
 ***** Axes restored to original set *****
 -------------------------------------------------------------------
 Center     Atomic                   Forces (Hartrees/Bohr)
 Number     Number              X              Y              Z
 -------------------------------------------------------------------
      1        7           0.000000000    0.000000000    0.000000439
      2        6           0.000000000    0.000000000   -0.000000493
      3        1           0.000000000    0.000000000    0.000000054
 -------------------------------------------------------------------
 Cartesian Forces:  Max     0.000000493 RMS     0.000000221
 FormGI is forming the generalized inverse of G from B-inverse, IUseBI=4.

 GradGradGradGradGradGradGradGradGradGradGradGradGradGradGradGradGradGrad
 Berny optimization.
 Internal  Forces:  Max     0.000000493 RMS     0.000000248
 Search for a local minimum.
 Step number   1 out of a maximum of    2
 All quantities printed in internal units (Hartrees-Bohrs-Radians)
 Second derivative matrix not updated -- analytic derivatives used.
 The second derivative matrix:
                          R1        R2        A1        A2
           R1           1.04704
           R2          -0.02143   0.51291
           A1           0.00000   0.00000   0.02694
           A2           0.00000   0.00000   0.00000   0.02694
 ITU=  0
     Eigenvalues ---    0.02694   0.02694   0.51205   1.04790
 Angle between quadratic step and forces=  90.00 degrees.
 Linear search not attempted -- first point.
 Iteration  1 RMS(Cart)=  0.00000022 RMS(Int)=  0.00000000
 ClnCor:  largest displacement from symmetrization is 4.44D-16 for atom     3.
 Variable       Old X    -DE/DX   Delta X   Delta X   Delta X     New X
                                 (Linear)    (Quad)   (Total)
    R1        2.23266   0.00000   0.00000   0.00000   0.00000   2.23266
    R2        1.89112   0.00000   0.00000   0.00000   0.00000   1.89112
    A1        3.14159   0.00000   0.00000   0.00000   0.00000   3.14159
    A2        3.14159   0.00000   0.00000   0.00000   0.00000   3.14159
         Item               Value     Threshold  Converged?
 Maximum Force            0.000000     0.000015     YES
 RMS     Force            0.000000     0.000010     YES
 Maximum Displacement     0.000000     0.000060     YES
 RMS     Displacement     0.000000     0.000040     YES
 Predicted change in Energy=-1.197980D-13
 Optimization completed.
    -- Stationary point found.
                           ----------------------------
                           !   Optimized Parameters   !
                           ! (Angstroms and Degrees)  !
 --------------------------                            --------------------------
 ! Name  Definition              Value          Derivative Info.                !
 --------------------------------------------------------------------------------
 ! R1    R(1,2)                  1.1815         -DE/DX =    0.0                 !
 ! R2    R(1,3)                  1.0007         -DE/DX =    0.0                 !
 ! A1    L(2,1,3,-1,-1)        180.0            -DE/DX =    0.0                 !
 ! A2    L(2,1,3,-2,-2)        180.0            -DE/DX =    0.0                 !
 --------------------------------------------------------------------------------
 GradGradGradGradGradGradGradGradGradGradGradGradGradGradGradGradGradGrad

 1\1\GINC-TC-NODE166\Freq\RMP2-FC\6-311++G(d,p)\C1H1N1\MAXB2\30-Sep-201
 6\0\\#N Geom=AllCheck Guess=TCheck SCRF=Check GenChk RMP2(FC)/6-311++G
 (d,p) Freq\\HNC-HCN\\0,1\N,0.,0.,-0.1602456248\C,0.,0.,1.0212285318\H,
 0.,0.,-1.160982907\\Version=ES64L-G09RevD.01\State=1-SG\HF=-92.882209\
 MP2=-93.1735509\RMSD=6.932e-10\RMSF=2.206e-07\ZeroPoint=0.0156444\Ther
 mal=0.0184421\Dipole=0.,0.,-1.3010381\DipoleDeriv=-0.2362246,0.,0.,0.,
 -0.2362246,0.,0.,0.,-1.0391539,-0.2071664,0.,0.,0.,-0.2071664,0.,0.,0.
 ,0.5904504,0.443391,0.,0.,0.,0.443391,0.,0.,0.,0.4487034\Polar=12.3066
 733,0.,12.3066733,0.,0.,23.5282317\PG=C*V [C*(C1N1H1)]\NImag=0\\0.0256
 9789,0.,0.02569789,0.,0.,1.60280714,-0.01178487,0.,0.,0.00540453,0.,-0
 .01178487,0.,0.,0.00540453,0.,0.,-1.06847050,0.,0.,1.04704136,-0.01391
 303,0.,0.,0.00638034,0.,0.,0.00753269,0.,-0.01391303,0.,0.,0.00638034,
 0.,0.,0.00753269,0.,0.,-0.53433665,0.,0.,0.02142914,0.,0.,0.51290751\\
 0.,0.,-0.00000044,0.,0.,0.00000049,0.,0.,-0.00000005\\\@


 STEINBACH'S GUIDELINES FOR SYSTEMS PROGRAMMING:
 NEVER TEST FOR AN ERROR CONDITION YOU DON'T KNOW HOW
 TO HANDLE.
 Job cpu time:       0 days  0 hours  0 minutes 17.8 seconds.
 File lengths (MBytes):  RWF=     57 Int=      0 D2E=      0 Chk=      2 Scr=      1
 Normal termination of Gaussian 09 at Fri Sep 30 11:33:35 2016.
