 Entering Gaussian System, Link 0=g09
 Initial command:
 /cluster/software/gaussian/gaussian-09-D.01/g09/l1.exe "/local/scratch/maxb2/Gau-9734.inp" -scrdir="/local/scratch/maxb2/"
 Entering Link 1 = /cluster/software/gaussian/gaussian-09-D.01/g09/l1.exe PID=      9735.
  
 Copyright (c) 1988,1990,1992,1993,1995,1998,2003,2009,2013,
            Gaussian, Inc.  All Rights Reserved.
  
 This is part of the Gaussian(R) 09 program.  It is based on
 the Gaussian(R) 03 system (copyright 2003, Gaussian, Inc.),
 the Gaussian(R) 98 system (copyright 1998, Gaussian, Inc.),
 the Gaussian(R) 94 system (copyright 1995, Gaussian, Inc.),
 the Gaussian 92(TM) system (copyright 1992, Gaussian, Inc.),
 the Gaussian 90(TM) system (copyright 1990, Gaussian, Inc.),
 the Gaussian 88(TM) system (copyright 1988, Gaussian, Inc.),
 the Gaussian 86(TM) system (copyright 1986, Carnegie Mellon
 University), and the Gaussian 82(TM) system (copyright 1983,
 Carnegie Mellon University). Gaussian is a federally registered
 trademark of Gaussian, Inc.
  
 This software contains proprietary and confidential information,
 including trade secrets, belonging to Gaussian, Inc.
  
 This software is provided under written license and may be
 used, copied, transmitted, or stored only in accord with that
 written license.
  
 The following legend is applicable only to US Government
 contracts under FAR:
  
                    RESTRICTED RIGHTS LEGEND
  
 Use, reproduction and disclosure by the US Government is
 subject to restrictions as set forth in subparagraphs (a)
 and (c) of the Commercial Computer Software - Restricted
 Rights clause in FAR 52.227-19.
  
 Gaussian, Inc.
 340 Quinnipiac St., Bldg. 40, Wallingford CT 06492
  
  
 ---------------------------------------------------------------
 Warning -- This program may not be used in any manner that
 competes with the business of Gaussian, Inc. or will provide
 assistance to any competitor of Gaussian, Inc.  The licensee
 of this program is prohibited from giving any competitor of
 Gaussian, Inc. access to this program.  By using this program,
 the user acknowledges that Gaussian, Inc. is engaged in the
 business of creating and licensing software in the field of
 computational chemistry and represents and warrants to the
 licensee that it is not a competitor of Gaussian, Inc. and that
 it will not use this program in any manner prohibited above.
 ---------------------------------------------------------------
  

 Cite this work as:
 Gaussian 09, Revision D.01,
 M. J. Frisch, G. W. Trucks, H. B. Schlegel, G. E. Scuseria, 
 M. A. Robb, J. R. Cheeseman, G. Scalmani, V. Barone, B. Mennucci, 
 G. A. Petersson, H. Nakatsuji, M. Caricato, X. Li, H. P. Hratchian, 
 A. F. Izmaylov, J. Bloino, G. Zheng, J. L. Sonnenberg, M. Hada, 
 M. Ehara, K. Toyota, R. Fukuda, J. Hasegawa, M. Ishida, T. Nakajima, 
 Y. Honda, O. Kitao, H. Nakai, T. Vreven, J. A. Montgomery, Jr., 
 J. E. Peralta, F. Ogliaro, M. Bearpark, J. J. Heyd, E. Brothers, 
 K. N. Kudin, V. N. Staroverov, T. Keith, R. Kobayashi, J. Normand, 
 K. Raghavachari, A. Rendell, J. C. Burant, S. S. Iyengar, J. Tomasi, 
 M. Cossi, N. Rega, J. M. Millam, M. Klene, J. E. Knox, J. B. Cross, 
 V. Bakken, C. Adamo, J. Jaramillo, R. Gomperts, R. E. Stratmann, 
 O. Yazyev, A. J. Austin, R. Cammi, C. Pomelli, J. W. Ochterski, 
 R. L. Martin, K. Morokuma, V. G. Zakrzewski, G. A. Voth, 
 P. Salvador, J. J. Dannenberg, S. Dapprich, A. D. Daniels, 
 O. Farkas, J. B. Foresman, J. V. Ortiz, J. Cioslowski, 
 and D. J. Fox, Gaussian, Inc., Wallingford CT, 2013.
 
 ******************************************
 Gaussian 09:  ES64L-G09RevD.01 24-Apr-2013
                30-Sep-2016 
 ******************************************
 %nosave
 %mem=6GB
 %nprocshared=2
 Will use up to    2 processors via shared memory.
 %chk=HNCMP2full
 -----------------------------------------
 # opt=tight freq MP2(full)/6-311++g** gfp
 -----------------------------------------
 1/7=10,18=20,19=15,38=1/1,3;
 2/9=110,12=2,17=6,18=5,40=1/2;
 3/5=4,6=6,7=1111,11=9,16=1,24=100,25=1,30=1,71=1/1,2,3;
 4//1;
 5/5=2,38=5/2;
 8/6=4,10=90/1;
 9/15=2,16=-3/6;
 10/5=1/2;
 6/7=2,8=2,9=2,10=2/1;
 7/12=2/1,2,3,16;
 1/7=10,18=20,19=15/3(2);
 2/9=110/2;
 99//99;
 2/9=110/2;
 3/5=4,6=6,7=1111,11=9,16=1,25=1,30=1,71=1/1,2,3;
 4/5=5,16=3,69=1/1;
 5/5=2,38=5/2;
 8/6=4,10=90/1;
 9/15=2,16=-3/6;
 10/5=1/2;
 7/12=2/1,2,3,16;
 1/7=10,18=20,19=15/3(-8);
 2/9=110/2;
 6/7=2,8=2,9=2,10=2/1;
 99//99;
 -------
 HNC-HCN
 -------
 Symbolic Z-matrix:
 Charge =  0 Multiplicity = 1
 N
 C                    1    B1
 H                    2    B2       1    A1
       Variables:
  B1                    1.                       
  B2                    1.                       
  A1                  180.                       
 

 GradGradGradGradGradGradGradGradGradGradGradGradGradGradGradGradGradGrad
 Berny optimization.
 Initialization pass.
                           ----------------------------
                           !    Initial Parameters    !
                           ! (Angstroms and Degrees)  !
 --------------------------                            --------------------------
 ! Name  Definition              Value          Derivative Info.                !
 --------------------------------------------------------------------------------
 ! R1    R(1,2)                  1.0            estimate D2E/DX2                !
 ! R2    R(2,3)                  1.0            estimate D2E/DX2                !
 ! A1    L(1,2,3,-1,-1)        180.0            estimate D2E/DX2                !
 ! A2    L(1,2,3,-2,-2)        180.0            estimate D2E/DX2                !
 --------------------------------------------------------------------------------
 Trust Radius=3.00D-01 FncErr=1.00D-07 GrdErr=1.00D-07
 Number of steps in this run=     20 maximum allowed number of steps=    100.
 GradGradGradGradGradGradGradGradGradGradGradGradGradGradGradGradGradGrad

                          Input orientation:                          
 ---------------------------------------------------------------------
 Center     Atomic      Atomic             Coordinates (Angstroms)
 Number     Number       Type             X           Y           Z
 ---------------------------------------------------------------------
      1          7           0        0.000000    0.000000    0.000000
      2          6           0        0.000000    0.000000    1.000000
      3          1           0        0.000000    0.000000    2.000000
 ---------------------------------------------------------------------
                    Distance matrix (angstroms):
                    1          2          3
     1  N    0.000000
     2  C    1.000000   0.000000
     3  H    2.000000   1.000000   0.000000
 Stoichiometry    CHN
 Framework group  C*V[C*(HCN)]
 Deg. of freedom     2
 Full point group                 C*V     NOp   4
 Largest Abelian subgroup         C2V     NOp   4
 Largest concise Abelian subgroup C1      NOp   1
                         Standard orientation:                         
 ---------------------------------------------------------------------
 Center     Atomic      Atomic             Coordinates (Angstroms)
 Number     Number       Type             X           Y           Z
 ---------------------------------------------------------------------
      1          7           0        0.000000    0.000000    0.571429
      2          6           0        0.000000    0.000000   -0.428571
      3          1           0        0.000000    0.000000   -1.428571
 ---------------------------------------------------------------------
 Rotational constants (GHZ):      0.0000000     57.6999809     57.6999809
 Standard basis: 6-311++G(d,p) (5D, 7F)
 AO basis set (Overlap normalization):
 Atom N1       Shell     1 S   6     bf    1 -     1          0.000000000000          0.000000000000          1.079843504506
      0.6293480000D+04  0.1969788147D-02
      0.9490440000D+03  0.1496128592D-01
      0.2187760000D+03  0.7350053084D-01
      0.6369160000D+02  0.2489367658D+00
      0.1882820000D+02  0.6024594331D+00
      0.2720230000D+01  0.2562017589D+00
 Atom N1       Shell     2 SP   3    bf    2 -     5          0.000000000000          0.000000000000          1.079843504506
      0.3063310000D+02  0.1119060795D+00  0.3831191864D-01
      0.7026140000D+01  0.9216666549D+00  0.2374031155D+00
      0.2112050000D+01 -0.2569191826D-02  0.8175923978D+00
 Atom N1       Shell     3 SP   1    bf    6 -     9          0.000000000000          0.000000000000          1.079843504506
      0.6840090000D+00  0.1000000000D+01  0.1000000000D+01
 Atom N1       Shell     4 SP   1    bf   10 -    13          0.000000000000          0.000000000000          1.079843504506
      0.2008780000D+00  0.1000000000D+01  0.1000000000D+01
 Atom N1       Shell     5 SP   1    bf   14 -    17          0.000000000000          0.000000000000          1.079843504506
      0.6390000000D-01  0.1000000000D+01  0.1000000000D+01
 Atom N1       Shell     6 D   1     bf   18 -    22          0.000000000000          0.000000000000          1.079843504506
      0.9130000000D+00  0.1000000000D+01
 Atom C2       Shell     7 S   6     bf   23 -    23          0.000000000000          0.000000000000         -0.809882628380
      0.4563240000D+04  0.1966650249D-02
      0.6820240000D+03  0.1523060193D-01
      0.1549730000D+03  0.7612690966D-01
      0.4445530000D+02  0.2608010331D+00
      0.1302900000D+02  0.6164620782D+00
      0.1827730000D+01  0.2210060280D+00
 Atom C2       Shell     8 SP   3    bf   24 -    27          0.000000000000          0.000000000000         -0.809882628380
      0.2096420000D+02  0.1146600807D+00  0.4024869267D-01
      0.4803310000D+01  0.9199996477D+00  0.2375939567D+00
      0.1459330000D+01 -0.3030682134D-02  0.8158538515D+00
 Atom C2       Shell     9 SP   1    bf   28 -    31          0.000000000000          0.000000000000         -0.809882628380
      0.4834560000D+00  0.1000000000D+01  0.1000000000D+01
 Atom C2       Shell    10 SP   1    bf   32 -    35          0.000000000000          0.000000000000         -0.809882628380
      0.1455850000D+00  0.1000000000D+01  0.1000000000D+01
 Atom C2       Shell    11 SP   1    bf   36 -    39          0.000000000000          0.000000000000         -0.809882628380
      0.4380000000D-01  0.1000000000D+01  0.1000000000D+01
 Atom C2       Shell    12 D   1     bf   40 -    44          0.000000000000          0.000000000000         -0.809882628380
      0.6260000000D+00  0.1000000000D+01
 Atom H3       Shell    13 S   3     bf   45 -    45          0.000000000000          0.000000000000         -2.699608761265
      0.3386500000D+02  0.2549381454D-01
      0.5094790000D+01  0.1903731086D+00
      0.1158790000D+01  0.8521614860D+00
 Atom H3       Shell    14 S   1     bf   46 -    46          0.000000000000          0.000000000000         -2.699608761265
      0.3258400000D+00  0.1000000000D+01
 Atom H3       Shell    15 S   1     bf   47 -    47          0.000000000000          0.000000000000         -2.699608761265
      0.1027410000D+00  0.1000000000D+01
 Atom H3       Shell    16 S   1     bf   48 -    48          0.000000000000          0.000000000000         -2.699608761265
      0.3600000000D-01  0.1000000000D+01
 Atom H3       Shell    17 P   1     bf   49 -    51          0.000000000000          0.000000000000         -2.699608761265
      0.7500000000D+00  0.1000000000D+01
 There are    29 symmetry adapted cartesian basis functions of A1  symmetry.
 There are     2 symmetry adapted cartesian basis functions of A2  symmetry.
 There are    11 symmetry adapted cartesian basis functions of B1  symmetry.
 There are    11 symmetry adapted cartesian basis functions of B2  symmetry.
 There are    27 symmetry adapted basis functions of A1  symmetry.
 There are     2 symmetry adapted basis functions of A2  symmetry.
 There are    11 symmetry adapted basis functions of B1  symmetry.
 There are    11 symmetry adapted basis functions of B2  symmetry.
    51 basis functions,    81 primitive gaussians,    53 cartesian basis functions
     7 alpha electrons        7 beta electrons
       nuclear repulsion energy        27.2526262424 Hartrees.
 NAtoms=    3 NActive=    3 NUniq=    3 SFac= 1.00D+00 NAtFMM=   60 NAOKFM=F Big=F
 Integral buffers will be    131072 words long.
 Raffenetti 1 integral format.
 Two-electron integral symmetry is turned on.
 One-electron integrals computed using PRISM.
 NBasis=    51 RedAO= T EigKep=  1.36D-03  NBF=    27     2    11    11
 NBsUse=    51 1.00D-06 EigRej= -1.00D+00 NBFU=    27     2    11    11
 ExpMin= 3.60D-02 ExpMax= 6.29D+03 ExpMxC= 9.49D+02 IAcc=3 IRadAn=         5 AccDes= 0.00D+00
 Harris functional with IExCor=  205 and IRadAn=       5 diagonalized for initial guess.
 HarFok:  IExCor=  205 AccDes= 0.00D+00 IRadAn=         5 IDoV= 1 UseB2=F ITyADJ=14
 ICtDFT=  3500011 ScaDFX=  1.000000  1.000000  1.000000  1.000000
 FoFCou: FMM=F IPFlag=           0 FMFlag=      100000 FMFlg1=           0
         NFxFlg=           0 DoJE=T BraDBF=F KetDBF=T FulRan=T
         wScrn=  0.000000 ICntrl=     500 IOpCl=  0 I1Cent=   200000004 NGrid=           0
         NMat0=    1 NMatS0=      1 NMatT0=    0 NMatD0=    1 NMtDS0=    0 NMtDT0=    0
 Petite list used in FoFCou.
 Initial guess orbital symmetries:
       Occupied  (SG) (SG) (SG) (SG) (PI) (PI) (SG)
       Virtual   (PI) (PI) (SG) (SG) (PI) (PI) (SG) (SG) (PI) (PI)
                 (SG) (SG) (SG) (PI) (PI) (SG) (SG) (PI) (PI) (SG)
                 (SG) (DLTA) (DLTA) (PI) (PI) (SG) (PI) (PI) (DLTA)
                 (DLTA) (SG) (SG) (PI) (PI) (SG) (PI) (PI) (SG)
                 (SG) (PI) (PI) (SG) (SG) (SG)
 The electronic state of the initial guess is 1-SG.
 Keep R1 ints in memory in symmetry-blocked form, NReq=1746683.
 Requested convergence on RMS density matrix=1.00D-08 within 128 cycles.
 Requested convergence on MAX density matrix=1.00D-06.
 Requested convergence on             energy=1.00D-06.
 No special actions if energy rises.
 SCF Done:  E(RHF) =  -92.8403099216     A.U. after   10 cycles
            NFock= 10  Conv=0.53D-08     -V/T= 1.9882
 Range of M.O.s used for correlation:     1    51
 NBasis=    51 NAE=     7 NBE=     7 NFC=     0 NFV=     0
 NROrb=     51 NOA=     7 NOB=     7 NVA=    44 NVB=    44

 **** Warning!!: The largest alpha MO coefficient is  0.11889594D+02

 Fully direct method using O(ONN) memory.
 JobTyp=1 Pass  1:  I=   1 to   7 NPSUse=  2 ParTrn=T ParDer=T DoDerP=T.
 Spin components of T(2) and E(2):
     alpha-alpha T2 =       0.1116369227D-01 E2=     -0.3693842609D-01
     alpha-beta  T2 =       0.6541991499D-01 E2=     -0.2387801932D+00
     beta-beta   T2 =       0.1116369227D-01 E2=     -0.3693842609D-01
 ANorm=    0.1042951245D+01
 E2 =    -0.3126570454D+00 EUMP2 =    -0.93152966966990D+02
          IDoAtm=111
          Differentiating once with respect to electric field.
                with respect to dipole field.
          Differentiating once with respect to nuclear coordinates.
 Keep R1 ints in memory in symmetry-blocked form, NReq=1726982.
          There are     1 degrees of freedom in the 1st order CPHF.  IDoFFX=0 NUNeed=     1.
 LinEq1:  Iter=  0 NonCon=     1 RMS=6.23D-03 Max=2.85D-02 NDo=     1
 AX will form     1 AO Fock derivatives at one time.
 LinEq1:  Iter=  1 NonCon=     1 RMS=1.31D-03 Max=6.87D-03 NDo=     1
 LinEq1:  Iter=  2 NonCon=     1 RMS=2.95D-04 Max=1.57D-03 NDo=     1
 LinEq1:  Iter=  3 NonCon=     1 RMS=5.32D-05 Max=3.49D-04 NDo=     1
 LinEq1:  Iter=  4 NonCon=     1 RMS=1.67D-05 Max=9.87D-05 NDo=     1
 LinEq1:  Iter=  5 NonCon=     1 RMS=4.10D-06 Max=1.96D-05 NDo=     1
 LinEq1:  Iter=  6 NonCon=     1 RMS=3.92D-07 Max=1.59D-06 NDo=     1
 LinEq1:  Iter=  7 NonCon=     1 RMS=3.98D-08 Max=2.00D-07 NDo=     1
 LinEq1:  Iter=  8 NonCon=     1 RMS=4.02D-09 Max=1.96D-08 NDo=     1
 LinEq1:  Iter=  9 NonCon=     1 RMS=2.80D-10 Max=2.59D-09 NDo=     1
 LinEq1:  Iter= 10 NonCon=     0 RMS=1.66D-11 Max=1.20D-10 NDo=     1
 Linear equations converged to 1.000D-10 1.000D-09 after    10 iterations.
 End of Minotr F.D. properties file   721 does not exist.
 End of Minotr F.D. properties file   722 does not exist.
 End of Minotr F.D. properties file   788 does not exist.

 **********************************************************************

            Population analysis using the SCF density.

 **********************************************************************

 Orbital symmetries:
       Occupied  (SG) (SG) (SG) (SG) (SG) (PI) (PI)
       Virtual   (SG) (SG) (PI) (PI) (SG) (PI) (PI) (SG) (SG) (PI)
                 (PI) (SG) (SG) (PI) (PI) (SG) (SG) (SG) (PI) (PI)
                 (PI) (PI) (DLTA) (DLTA) (SG) (SG) (PI) (PI) (SG)
                 (DLTA) (DLTA) (SG) (PI) (PI) (SG) (PI) (PI) (SG)
                 (SG) (PI) (PI) (SG) (SG) (SG)
 The electronic state is 1-SG.
 Alpha  occ. eigenvalues --  -15.54607 -11.23453  -1.31232  -0.81725  -0.57160
 Alpha  occ. eigenvalues --   -0.55261  -0.55261
 Alpha virt. eigenvalues --    0.03686   0.08838   0.09217   0.09217   0.16510
 Alpha virt. eigenvalues --    0.20414   0.20414   0.21618   0.30332   0.30638
 Alpha virt. eigenvalues --    0.30638   0.35131   0.55987   0.71048   0.71048
 Alpha virt. eigenvalues --    0.73690   0.99844   1.00638   1.07706   1.07706
 Alpha virt. eigenvalues --    1.47805   1.47805   1.48321   1.48321   1.50343
 Alpha virt. eigenvalues --    1.55023   2.24905   2.24905   2.46313   2.46360
 Alpha virt. eigenvalues --    2.46360   2.79062   3.09986   3.09986   3.25696
 Alpha virt. eigenvalues --    3.35783   3.35783   3.46501   4.24878   4.52563
 Alpha virt. eigenvalues --    4.52563   5.29982  25.85014  37.66943
          Condensed to atoms (all electrons):
               1          2          3
     1  N    6.721346   0.752832  -0.033488
     2  C    0.752832   4.583417   0.416703
     3  H   -0.033488   0.416703   0.423144
 Mulliken charges:
               1
     1  N   -0.440690
     2  C    0.247048
     3  H    0.193641
 Sum of Mulliken charges =   0.00000
 Mulliken charges with hydrogens summed into heavy atoms:
               1
     1  N   -0.440690
     2  C    0.440690
 Electronic spatial extent (au):  <R**2>=             43.4510
 Charge=              0.0000 electrons
 Dipole moment (field-independent basis, Debye):
    X=              0.0000    Y=              0.0000    Z=             -3.1112  Tot=              3.1112
 Quadrupole moment (field-independent basis, Debye-Ang):
   XX=            -11.1594   YY=            -11.1594   ZZ=            -10.0497
   XY=              0.0000   XZ=              0.0000   YZ=              0.0000
 Traceless Quadrupole moment (field-independent basis, Debye-Ang):
   XX=             -0.3699   YY=             -0.3699   ZZ=              0.7398
   XY=              0.0000   XZ=              0.0000   YZ=              0.0000
 Octapole moment (field-independent basis, Debye-Ang**2):
  XXX=              0.0000  YYY=              0.0000  ZZZ=             -6.8525  XYY=              0.0000
  XXY=              0.0000  XXZ=             -0.5022  XZZ=              0.0000  YZZ=              0.0000
  YYZ=             -0.5022  XYZ=              0.0000
 Hexadecapole moment (field-independent basis, Debye-Ang**3):
 XXXX=            -10.5832 YYYY=            -10.5832 ZZZZ=            -30.8769 XXXY=              0.0000
 XXXZ=              0.0000 YYYX=              0.0000 YYYZ=              0.0000 ZZZX=              0.0000
 ZZZY=              0.0000 XXYY=             -3.5277 XXZZ=             -7.6418 YYZZ=             -7.6418
 XXYZ=              0.0000 YYXZ=              0.0000 ZZXY=              0.0000
 N-N= 2.725262624238D+01 E-N=-2.729590381460D+02  KE= 9.394713962298D+01
 Symmetry A1   KE= 8.814154274862D+01
 Symmetry A2   KE= 0.000000000000D+00
 Symmetry B1   KE= 2.902798437180D+00
 Symmetry B2   KE= 2.902798437180D+00
 Calling FoFJK, ICntrl=  10002127 FMM=F ISym2X=1 I1Cent= 0 IOpClX= 0 NMat=1 NMatS=1 NMatT=0.
 ***** Axes restored to original set *****
 -------------------------------------------------------------------
 Center     Atomic                   Forces (Hartrees/Bohr)
 Number     Number              X              Y              Z
 -------------------------------------------------------------------
      1        7           0.000000000    0.000000000   -0.634127922
      2        6           0.000000000    0.000000000    0.575919881
      3        1           0.000000000    0.000000000    0.058208041
 -------------------------------------------------------------------
 Cartesian Forces:  Max     0.634127922 RMS     0.286199252

 GradGradGradGradGradGradGradGradGradGradGradGradGradGradGradGradGradGrad
 Berny optimization.
 FormGI is forming the generalized inverse of G from B-inverse, IUseBI=4.
 Internal  Forces:  Max     0.634127922 RMS     0.318396921
 Search for a local minimum.
 Step number   1 out of a maximum of   20
 All quantities printed in internal units (Hartrees-Bohrs-Radians)
 Mixed Optimization -- RFO/linear search
 Second derivative matrix not updated -- first step.
 The second derivative matrix:
                          R1        R2        A1        A2
           R1           3.32740
           R2           0.00000   0.47688
           A1           0.00000   0.00000   0.01425
           A2           0.00000   0.00000   0.00000   0.01425
 ITU=  0
     Eigenvalues ---    0.01425   0.01425   0.47688   3.32740
 RFO step:  Lambda=-1.22224139D-01 EMin= 1.42535752D-02
 Linear search not attempted -- first point.
 Iteration  1 RMS(Cart)=  0.10090548 RMS(Int)=  0.00000000
 Iteration  2 RMS(Cart)=  0.00000000 RMS(Int)=  0.00000001
 ClnCor:  largest displacement from symmetrization is 4.44D-16 for atom     3.
 Variable       Old X    -DE/DX   Delta X   Delta X   Delta X     New X
                                 (Linear)    (Quad)   (Total)
    R1        1.88973   0.63413   0.00000   0.18383   0.18383   2.07355
    R2        1.88973   0.05821   0.00000   0.09716   0.09716   1.98688
    A1        3.14159   0.00000   0.00000   0.00000   0.00000   3.14159
    A2        3.14159   0.00000   0.00000   0.00000   0.00000   3.14159
         Item               Value     Threshold  Converged?
 Maximum Force            0.634128     0.000015     NO 
 RMS     Force            0.318397     0.000010     NO 
 Maximum Displacement     0.154936     0.000060     NO 
 RMS     Displacement     0.100905     0.000040     NO 
 Predicted change in Energy=-6.375403D-02
 GradGradGradGradGradGradGradGradGradGradGradGradGradGradGradGradGradGrad

                          Input orientation:                          
 ---------------------------------------------------------------------
 Center     Atomic      Atomic             Coordinates (Angstroms)
 Number     Number       Type             X           Y           Z
 ---------------------------------------------------------------------
      1          7           0        0.000000    0.000000   -0.081989
      2          6           0        0.000000    0.000000    1.015287
      3          1           0        0.000000    0.000000    2.066701
 ---------------------------------------------------------------------
                    Distance matrix (angstroms):
                    1          2          3
     1  N    0.000000
     2  C    1.097276   0.000000
     3  H    2.148690   1.051414   0.000000
 Stoichiometry    CHN
 Framework group  C*V[C*(HCN)]
 Deg. of freedom     2
 Full point group                 C*V     NOp   4
 Largest Abelian subgroup         C2V     NOp   4
 Largest concise Abelian subgroup C1      NOp   1
                         Standard orientation:                         
 ---------------------------------------------------------------------
 Center     Atomic      Atomic             Coordinates (Angstroms)
 Number     Number       Type             X           Y           Z
 ---------------------------------------------------------------------
      1          7           0        0.000000    0.000000    0.623739
      2          6           0        0.000000    0.000000   -0.473537
      3          1           0        0.000000    0.000000   -1.524951
 ---------------------------------------------------------------------
 Rotational constants (GHZ):      0.0000000     48.6060258     48.6060258
 Standard basis: 6-311++G(d,p) (5D, 7F)
 There are    29 symmetry adapted cartesian basis functions of A1  symmetry.
 There are     2 symmetry adapted cartesian basis functions of A2  symmetry.
 There are    11 symmetry adapted cartesian basis functions of B1  symmetry.
 There are    11 symmetry adapted cartesian basis functions of B2  symmetry.
 There are    27 symmetry adapted basis functions of A1  symmetry.
 There are     2 symmetry adapted basis functions of A2  symmetry.
 There are    11 symmetry adapted basis functions of B1  symmetry.
 There are    11 symmetry adapted basis functions of B2  symmetry.
    51 basis functions,    81 primitive gaussians,    53 cartesian basis functions
     7 alpha electrons        7 beta electrons
       nuclear repulsion energy        24.9988606403 Hartrees.
 NAtoms=    3 NActive=    3 NUniq=    3 SFac= 1.00D+00 NAtFMM=   60 NAOKFM=F Big=F
 Integral buffers will be    131072 words long.
 Raffenetti 1 integral format.
 Two-electron integral symmetry is turned on.
 One-electron integrals computed using PRISM.
 NBasis=    51 RedAO= T EigKep=  2.13D-03  NBF=    27     2    11    11
 NBsUse=    51 1.00D-06 EigRej= -1.00D+00 NBFU=    27     2    11    11
 Initial guess from the checkpoint file:  "HNCMP2full.chk"
 B after Tr=     0.000000    0.000000    0.000000
         Rot=    1.000000    0.000000    0.000000    0.000000 Ang=   0.00 deg.
 Initial guess orbital symmetries:
       Occupied  (SG) (SG) (SG) (SG) (SG) (PI) (PI)
       Virtual   (SG) (SG) (SG) (SG) (SG) (SG) (SG) (DLTA) (SG)
                 (SG) (SG) (DLTA) (SG) (SG) (SG) (SG) (SG) (SG)
                 (SG) (SG) (SG) (SG) (DLTA) (DLTA) (PI) (PI) (PI)
                 (PI) (PI) (PI) (PI) (PI) (PI) (PI) (PI) (PI) (PI)
                 (PI) (PI) (PI) (PI) (PI) (PI) (PI)
 ExpMin= 3.60D-02 ExpMax= 6.29D+03 ExpMxC= 9.49D+02 IAcc=3 IRadAn=         5 AccDes= 0.00D+00
 Harris functional with IExCor=  205 and IRadAn=       5 diagonalized for initial guess.
 HarFok:  IExCor=  205 AccDes= 0.00D+00 IRadAn=         5 IDoV= 1 UseB2=F ITyADJ=14
 ICtDFT=  3500011 ScaDFX=  1.000000  1.000000  1.000000  1.000000
 FoFCou: FMM=F IPFlag=           0 FMFlag=      100000 FMFlg1=           0
         NFxFlg=           0 DoJE=T BraDBF=F KetDBF=T FulRan=T
         wScrn=  0.000000 ICntrl=     500 IOpCl=  0 I1Cent=   200000004 NGrid=           0
         NMat0=    1 NMatS0=      1 NMatT0=    0 NMatD0=    1 NMtDS0=    0 NMtDT0=    0
 Petite list used in FoFCou.
 Keep R1 ints in memory in symmetry-blocked form, NReq=1746638.
 Requested convergence on RMS density matrix=1.00D-08 within 128 cycles.
 Requested convergence on MAX density matrix=1.00D-06.
 Requested convergence on             energy=1.00D-06.
 No special actions if energy rises.
 SCF Done:  E(RHF) =  -92.8988260638     A.U. after   11 cycles
            NFock= 11  Conv=0.25D-08     -V/T= 1.9981
 Range of M.O.s used for correlation:     1    51
 NBasis=    51 NAE=     7 NBE=     7 NFC=     0 NFV=     0
 NROrb=     51 NOA=     7 NOB=     7 NVA=    44 NVB=    44

 **** Warning!!: The largest alpha MO coefficient is  0.10174562D+02

 Fully direct method using O(ONN) memory.
 JobTyp=1 Pass  1:  I=   1 to   7 NPSUse=  2 ParTrn=T ParDer=T DoDerP=T.
 Spin components of T(2) and E(2):
     alpha-alpha T2 =       0.1320717391D-01 E2=     -0.3916030573D-01
     alpha-beta  T2 =       0.7655412375D-01 E2=     -0.2510183574D+00
     beta-beta   T2 =       0.1320717391D-01 E2=     -0.3916030573D-01
 ANorm=    0.1050223058D+01
 E2 =    -0.3293389689D+00 EUMP2 =    -0.93228165032710D+02
          IDoAtm=111
          Differentiating once with respect to electric field.
                with respect to dipole field.
          Differentiating once with respect to nuclear coordinates.
 Keep R1 ints in memory in symmetry-blocked form, NReq=1726923.
          There are     1 degrees of freedom in the 1st order CPHF.  IDoFFX=0 NUNeed=     1.
 LinEq1:  Iter=  0 NonCon=     1 RMS=7.80D-03 Max=4.01D-02 NDo=     1
 AX will form     1 AO Fock derivatives at one time.
 LinEq1:  Iter=  1 NonCon=     1 RMS=1.81D-03 Max=1.05D-02 NDo=     1
 LinEq1:  Iter=  2 NonCon=     1 RMS=3.96D-04 Max=1.89D-03 NDo=     1
 LinEq1:  Iter=  3 NonCon=     1 RMS=1.61D-04 Max=1.24D-03 NDo=     1
 LinEq1:  Iter=  4 NonCon=     1 RMS=5.38D-05 Max=4.27D-04 NDo=     1
 LinEq1:  Iter=  5 NonCon=     1 RMS=6.94D-06 Max=3.37D-05 NDo=     1
 LinEq1:  Iter=  6 NonCon=     1 RMS=7.57D-07 Max=3.41D-06 NDo=     1
 LinEq1:  Iter=  7 NonCon=     1 RMS=8.77D-08 Max=5.36D-07 NDo=     1
 LinEq1:  Iter=  8 NonCon=     1 RMS=8.10D-09 Max=4.38D-08 NDo=     1
 LinEq1:  Iter=  9 NonCon=     1 RMS=5.02D-10 Max=4.06D-09 NDo=     1
 LinEq1:  Iter= 10 NonCon=     0 RMS=3.12D-11 Max=1.46D-10 NDo=     1
 Linear equations converged to 1.000D-10 1.000D-09 after    10 iterations.
 End of Minotr F.D. properties file   721 does not exist.
 End of Minotr F.D. properties file   722 does not exist.
 End of Minotr F.D. properties file   788 does not exist.
 Calling FoFJK, ICntrl=  10002127 FMM=F ISym2X=1 I1Cent= 0 IOpClX= 0 NMat=1 NMatS=1 NMatT=0.
 ***** Axes restored to original set *****
 -------------------------------------------------------------------
 Center     Atomic                   Forces (Hartrees/Bohr)
 Number     Number              X              Y              Z
 -------------------------------------------------------------------
      1        7           0.000000000    0.000000000   -0.192492278
      2        6           0.000000000    0.000000000    0.181725695
      3        1           0.000000000    0.000000000    0.010766584
 -------------------------------------------------------------------
 Cartesian Forces:  Max     0.192492278 RMS     0.088313472

 GradGradGradGradGradGradGradGradGradGradGradGradGradGradGradGradGradGrad
 Berny optimization.
 Using GEDIIS/GDIIS optimizer.
 Internal  Forces:  Max     0.192492278 RMS     0.096396572
 Search for a local minimum.
 Step number   2 out of a maximum of   20
 All quantities printed in internal units (Hartrees-Bohrs-Radians)
 Mixed Optimization -- RFO/linear search
 Update second derivatives using D2CorX and points    1    2
 DE= -7.52D-02 DEPred=-6.38D-02 R= 1.18D+00
 TightC=F SS=  1.41D+00  RLast= 2.08D-01 DXNew= 5.0454D-01 6.2376D-01
 Trust test= 1.18D+00 RLast= 2.08D-01 DXMaxT set to 5.05D-01
 The second derivative matrix:
                          R1        R2        A1        A2
           R1           2.40149
           R2           0.00187   0.48476
           A1           0.00000   0.00000   0.01425
           A2           0.00000   0.00000   0.00000   0.01425
 ITU=  1  0
 Use linear search instead of GDIIS.
     Eigenvalues ---    0.01425   0.01425   0.48476   2.40149
 RFO step:  Lambda=-3.59532622D-03 EMin= 1.42535752D-02
 Quartic linear search produced a step of  0.76945.
 Iteration  1 RMS(Cart)=  0.10289645 RMS(Int)=  0.00000005
 Iteration  2 RMS(Cart)=  0.00000004 RMS(Int)=  0.00000000
 ClnCor:  largest displacement from symmetrization is 8.66D-07 for atom     2.
 Variable       Old X    -DE/DX   Delta X   Delta X   Delta X     New X
                                 (Linear)    (Quad)   (Total)
    R1        2.07355   0.19249   0.14144  -0.00902   0.13243   2.20598
    R2        1.98688   0.01077   0.07476   0.08347   0.15823   2.14511
    A1        3.14159   0.00000   0.00000   0.00000   0.00000   3.14159
    A2        3.14159   0.00000   0.00000   0.00000   0.00000   3.14159
         Item               Value     Threshold  Converged?
 Maximum Force            0.192492     0.000015     NO 
 RMS     Force            0.096397     0.000010     NO 
 Maximum Displacement     0.149627     0.000060     NO 
 RMS     Displacement     0.102896     0.000040     NO 
 Predicted change in Energy=-3.024275D-05
 GradGradGradGradGradGradGradGradGradGradGradGradGradGradGradGradGradGrad

                          Input orientation:                          
 ---------------------------------------------------------------------
 Center     Atomic      Atomic             Coordinates (Angstroms)
 Number     Number       Type             X           Y           Z
 ---------------------------------------------------------------------
      1          7           0        0.000000    0.000000   -0.156617
      2          6           0        0.000000    0.000000    1.010736
      3          1           0        0.000000    0.000000    2.145881
 ---------------------------------------------------------------------
                    Distance matrix (angstroms):
                    1          2          3
     1  N    0.000000
     2  C    1.167353   0.000000
     3  H    2.302497   1.135145   0.000000
 Stoichiometry    CHN
 Framework group  C*V[C*(HCN)]
 Deg. of freedom     2
 Full point group                 C*V     NOp   4
 Largest Abelian subgroup         C2V     NOp   4
 Largest concise Abelian subgroup C1      NOp   1
                         Standard orientation:                         
 ---------------------------------------------------------------------
 Center     Atomic      Atomic             Coordinates (Angstroms)
 Number     Number       Type             X           Y           Z
 ---------------------------------------------------------------------
      1          7           0        0.000000    0.000000    0.664758
      2          6           0        0.000000    0.000000   -0.502595
      3          1           0        0.000000    0.000000   -1.637739
 ---------------------------------------------------------------------
 Rotational constants (GHZ):      0.0000000     42.7403545     42.7403545
 Standard basis: 6-311++G(d,p) (5D, 7F)
 There are    29 symmetry adapted cartesian basis functions of A1  symmetry.
 There are     2 symmetry adapted cartesian basis functions of A2  symmetry.
 There are    11 symmetry adapted cartesian basis functions of B1  symmetry.
 There are    11 symmetry adapted cartesian basis functions of B2  symmetry.
 There are    27 symmetry adapted basis functions of A1  symmetry.
 There are     2 symmetry adapted basis functions of A2  symmetry.
 There are    11 symmetry adapted basis functions of B1  symmetry.
 There are    11 symmetry adapted basis functions of B2  symmetry.
    51 basis functions,    81 primitive gaussians,    53 cartesian basis functions
     7 alpha electrons        7 beta electrons
       nuclear repulsion energy        23.4450343274 Hartrees.
 NAtoms=    3 NActive=    3 NUniq=    3 SFac= 1.00D+00 NAtFMM=   60 NAOKFM=F Big=F
 Integral buffers will be    131072 words long.
 Raffenetti 1 integral format.
 Two-electron integral symmetry is turned on.
 One-electron integrals computed using PRISM.
 NBasis=    51 RedAO= T EigKep=  2.98D-03  NBF=    27     2    11    11
 NBsUse=    51 1.00D-06 EigRej= -1.00D+00 NBFU=    27     2    11    11
 Initial guess from the checkpoint file:  "HNCMP2full.chk"
 B after Tr=     0.000000    0.000000    0.000000
         Rot=    1.000000    0.000000    0.000000    0.000000 Ang=   0.00 deg.
 Initial guess orbital symmetries:
       Occupied  (SG) (SG) (SG) (SG) (SG) (PI) (PI)
       Virtual   (SG) (SG) (SG) (SG) (SG) (SG) (SG) (DLTA) (SG)
                 (SG) (SG) (DLTA) (SG) (SG) (SG) (SG) (SG) (SG)
                 (SG) (SG) (SG) (SG) (DLTA) (DLTA) (PI) (PI) (PI)
                 (PI) (PI) (PI) (PI) (PI) (PI) (PI) (PI) (PI) (PI)
                 (PI) (PI) (PI) (PI) (PI) (PI) (PI)
 ExpMin= 3.60D-02 ExpMax= 6.29D+03 ExpMxC= 9.49D+02 IAcc=3 IRadAn=         5 AccDes= 0.00D+00
 Harris functional with IExCor=  205 and IRadAn=       5 diagonalized for initial guess.
 HarFok:  IExCor=  205 AccDes= 0.00D+00 IRadAn=         5 IDoV= 1 UseB2=F ITyADJ=14
 ICtDFT=  3500011 ScaDFX=  1.000000  1.000000  1.000000  1.000000
 FoFCou: FMM=F IPFlag=           0 FMFlag=      100000 FMFlg1=           0
         NFxFlg=           0 DoJE=T BraDBF=F KetDBF=T FulRan=T
         wScrn=  0.000000 ICntrl=     500 IOpCl=  0 I1Cent=   200000004 NGrid=           0
         NMat0=    1 NMatS0=      1 NMatT0=    0 NMatD0=    1 NMtDS0=    0 NMtDT0=    0
 Petite list used in FoFCou.
 Keep R1 ints in memory in symmetry-blocked form, NReq=1746595.
 Requested convergence on RMS density matrix=1.00D-08 within 128 cycles.
 Requested convergence on MAX density matrix=1.00D-06.
 Requested convergence on             energy=1.00D-06.
 No special actions if energy rises.
 SCF Done:  E(RHF) =  -92.8934324978     A.U. after   11 cycles
            NFock= 11  Conv=0.28D-08     -V/T= 2.0038
 Range of M.O.s used for correlation:     1    51
 NBasis=    51 NAE=     7 NBE=     7 NFC=     0 NFV=     0
 NROrb=     51 NOA=     7 NOB=     7 NVA=    44 NVB=    44
 Fully direct method using O(ONN) memory.
 JobTyp=1 Pass  1:  I=   1 to   7 NPSUse=  2 ParTrn=T ParDer=T DoDerP=T.
 Spin components of T(2) and E(2):
     alpha-alpha T2 =       0.1513310974D-01 E2=     -0.4116459424D-01
     alpha-beta  T2 =       0.8707210953D-01 E2=     -0.2617644092D+00
     beta-beta   T2 =       0.1513310974D-01 E2=     -0.4116459424D-01
 ANorm=    0.1057042255D+01
 E2 =    -0.3440935977D+00 EUMP2 =    -0.93237526095514D+02
          IDoAtm=111
          Differentiating once with respect to electric field.
                with respect to dipole field.
          Differentiating once with respect to nuclear coordinates.
 Keep R1 ints in memory in symmetry-blocked form, NReq=1726860.
          There are     1 degrees of freedom in the 1st order CPHF.  IDoFFX=0 NUNeed=     1.
 LinEq1:  Iter=  0 NonCon=     1 RMS=9.24D-03 Max=5.05D-02 NDo=     1
 AX will form     1 AO Fock derivatives at one time.
 LinEq1:  Iter=  1 NonCon=     1 RMS=2.31D-03 Max=1.51D-02 NDo=     1
 LinEq1:  Iter=  2 NonCon=     1 RMS=5.83D-04 Max=3.60D-03 NDo=     1
 LinEq1:  Iter=  3 NonCon=     1 RMS=3.66D-04 Max=2.89D-03 NDo=     1
 LinEq1:  Iter=  4 NonCon=     1 RMS=8.43D-05 Max=6.13D-04 NDo=     1
 LinEq1:  Iter=  5 NonCon=     1 RMS=1.17D-05 Max=6.54D-05 NDo=     1
 LinEq1:  Iter=  6 NonCon=     1 RMS=1.33D-06 Max=7.37D-06 NDo=     1
 LinEq1:  Iter=  7 NonCon=     1 RMS=1.55D-07 Max=8.23D-07 NDo=     1
 LinEq1:  Iter=  8 NonCon=     1 RMS=1.40D-08 Max=7.75D-08 NDo=     1
 LinEq1:  Iter=  9 NonCon=     1 RMS=9.16D-10 Max=6.01D-09 NDo=     1
 LinEq1:  Iter= 10 NonCon=     0 RMS=7.82D-11 Max=5.89D-10 NDo=     1
 Linear equations converged to 1.000D-10 1.000D-09 after    10 iterations.
 End of Minotr F.D. properties file   721 does not exist.
 End of Minotr F.D. properties file   722 does not exist.
 End of Minotr F.D. properties file   788 does not exist.
 Calling FoFJK, ICntrl=  10002127 FMM=F ISym2X=1 I1Cent= 0 IOpClX= 0 NMat=1 NMatS=1 NMatT=0.
 ***** Axes restored to original set *****
 -------------------------------------------------------------------
 Center     Atomic                   Forces (Hartrees/Bohr)
 Number     Number              X              Y              Z
 -------------------------------------------------------------------
      1        7           0.000000000    0.000000000   -0.008498767
      2        6           0.000000000    0.000000000    0.052602524
      3        1           0.000000000    0.000000000   -0.044103757
 -------------------------------------------------------------------
 Cartesian Forces:  Max     0.052602524 RMS     0.023056443

 GradGradGradGradGradGradGradGradGradGradGradGradGradGradGradGradGradGrad
 Berny optimization.
 Using GEDIIS/GDIIS optimizer.
 Internal  Forces:  Max     0.044103757 RMS     0.022457574
 Search for a local minimum.
 Step number   3 out of a maximum of   20
 All quantities printed in internal units (Hartrees-Bohrs-Radians)
 Mixed Optimization -- RFO/linear search
 Update second derivatives using D2CorX and points    1    2    3
 DE= -9.36D-03 DEPred=-3.02D-05 R= 3.10D+02
 TightC=F SS=  1.41D+00  RLast= 2.06D-01 DXNew= 8.4853D-01 6.1899D-01
 Trust test= 3.10D+02 RLast= 2.06D-01 DXMaxT set to 6.19D-01
 The second derivative matrix:
                          R1        R2        A1        A2
           R1           1.55853
           R2          -0.14154   0.46524
           A1           0.00000   0.00000   0.01425
           A2           0.00000   0.00000   0.00000   0.01425
 ITU=  1  1  0
 Use linear search instead of GDIIS.
     Eigenvalues ---    0.01425   0.01425   0.44721   1.57656
 RFO step:  Lambda=-3.65092667D-03 EMin= 1.42535752D-02
 Quartic linear search produced a step of -0.21654.
 Iteration  1 RMS(Cart)=  0.04504723 RMS(Int)=  0.00000000
 Iteration  2 RMS(Cart)=  0.00000000 RMS(Int)=  0.00000000
 ClnCor:  largest displacement from symmetrization is 4.41D-08 for atom     2.
 Variable       Old X    -DE/DX   Delta X   Delta X   Delta X     New X
                                 (Linear)    (Quad)   (Total)
    R1        2.20598   0.00850  -0.02867   0.02178  -0.00689   2.19908
    R2        2.14511  -0.04410  -0.03426  -0.07247  -0.10674   2.03838
    A1        3.14159   0.00000   0.00000   0.00000   0.00000   3.14159
    A2        3.14159   0.00000   0.00000   0.00000   0.00000   3.14159
         Item               Value     Threshold  Converged?
 Maximum Force            0.044104     0.000015     NO 
 RMS     Force            0.022458     0.000010     NO 
 Maximum Displacement     0.073454     0.000060     NO 
 RMS     Displacement     0.045047     0.000040     NO 
 Predicted change in Energy=-2.065861D-03
 GradGradGradGradGradGradGradGradGradGradGradGradGradGradGradGradGradGrad

                          Input orientation:                          
 ---------------------------------------------------------------------
 Center     Atomic      Atomic             Coordinates (Angstroms)
 Number     Number       Type             X           Y           Z
 ---------------------------------------------------------------------
      1          7           0        0.000000    0.000000   -0.135358
      2          6           0        0.000000    0.000000    1.028348
      3          1           0        0.000000    0.000000    2.107010
 ---------------------------------------------------------------------
                    Distance matrix (angstroms):
                    1          2          3
     1  N    0.000000
     2  C    1.163706   0.000000
     3  H    2.242368   1.078663   0.000000
 Stoichiometry    CHN
 Framework group  C*V[C*(HCN)]
 Deg. of freedom     2
 Full point group                 C*V     NOp   4
 Largest Abelian subgroup         C2V     NOp   4
 Largest concise Abelian subgroup C1      NOp   1
                         Standard orientation:                         
 ---------------------------------------------------------------------
 Center     Atomic      Atomic             Coordinates (Angstroms)
 Number     Number       Type             X           Y           Z
 ---------------------------------------------------------------------
      1          7           0        0.000000    0.000000    0.658900
      2          6           0        0.000000    0.000000   -0.504805
      3          1           0        0.000000    0.000000   -1.583468
 ---------------------------------------------------------------------
 Rotational constants (GHZ):      0.0000000     43.6697668     43.6697668
 Standard basis: 6-311++G(d,p) (5D, 7F)
 There are    29 symmetry adapted cartesian basis functions of A1  symmetry.
 There are     2 symmetry adapted cartesian basis functions of A2  symmetry.
 There are    11 symmetry adapted cartesian basis functions of B1  symmetry.
 There are    11 symmetry adapted cartesian basis functions of B2  symmetry.
 There are    27 symmetry adapted basis functions of A1  symmetry.
 There are     2 symmetry adapted basis functions of A2  symmetry.
 There are    11 symmetry adapted basis functions of B1  symmetry.
 There are    11 symmetry adapted basis functions of B2  symmetry.
    51 basis functions,    81 primitive gaussians,    53 cartesian basis functions
     7 alpha electrons        7 beta electrons
       nuclear repulsion energy        23.6943040836 Hartrees.
 NAtoms=    3 NActive=    3 NUniq=    3 SFac= 1.00D+00 NAtFMM=   60 NAOKFM=F Big=F
 Integral buffers will be    131072 words long.
 Raffenetti 1 integral format.
 Two-electron integral symmetry is turned on.
 One-electron integrals computed using PRISM.
 NBasis=    51 RedAO= T EigKep=  2.82D-03  NBF=    27     2    11    11
 NBsUse=    51 1.00D-06 EigRej= -1.00D+00 NBFU=    27     2    11    11
 Initial guess from the checkpoint file:  "HNCMP2full.chk"
 B after Tr=     0.000000    0.000000    0.000000
         Rot=    1.000000    0.000000    0.000000    0.000000 Ang=   0.00 deg.
 Initial guess orbital symmetries:
       Occupied  (SG) (SG) (SG) (SG) (SG) (PI) (PI)
       Virtual   (SG) (SG) (SG) (SG) (SG) (SG) (SG) (DLTA) (SG)
                 (SG) (SG) (DLTA) (SG) (SG) (SG) (SG) (SG) (SG)
                 (SG) (SG) (SG) (SG) (DLTA) (DLTA) (PI) (PI) (PI)
                 (PI) (PI) (PI) (PI) (PI) (PI) (PI) (PI) (PI) (PI)
                 (PI) (PI) (PI) (PI) (PI) (PI) (PI)
 ExpMin= 3.60D-02 ExpMax= 6.29D+03 ExpMxC= 9.49D+02 IAcc=3 IRadAn=         5 AccDes= 0.00D+00
 Harris functional with IExCor=  205 and IRadAn=       5 diagonalized for initial guess.
 HarFok:  IExCor=  205 AccDes= 0.00D+00 IRadAn=         5 IDoV= 1 UseB2=F ITyADJ=14
 ICtDFT=  3500011 ScaDFX=  1.000000  1.000000  1.000000  1.000000
 FoFCou: FMM=F IPFlag=           0 FMFlag=      100000 FMFlg1=           0
         NFxFlg=           0 DoJE=T BraDBF=F KetDBF=T FulRan=T
         wScrn=  0.000000 ICntrl=     500 IOpCl=  0 I1Cent=   200000004 NGrid=           0
         NMat0=    1 NMatS0=      1 NMatT0=    0 NMatD0=    1 NMtDS0=    0 NMtDT0=    0
 Petite list used in FoFCou.
 Keep R1 ints in memory in symmetry-blocked form, NReq=1746609.
 Requested convergence on RMS density matrix=1.00D-08 within 128 cycles.
 Requested convergence on MAX density matrix=1.00D-06.
 Requested convergence on             energy=1.00D-06.
 No special actions if energy rises.
 SCF Done:  E(RHF) =  -92.8977437146     A.U. after    9 cycles
            NFock=  9  Conv=0.84D-08     -V/T= 2.0028
 Range of M.O.s used for correlation:     1    51
 NBasis=    51 NAE=     7 NBE=     7 NFC=     0 NFV=     0
 NROrb=     51 NOA=     7 NOB=     7 NVA=    44 NVB=    44
 Fully direct method using O(ONN) memory.
 JobTyp=1 Pass  1:  I=   1 to   7 NPSUse=  2 ParTrn=T ParDer=T DoDerP=T.
 Spin components of T(2) and E(2):
     alpha-alpha T2 =       0.1496160691D-01 E2=     -0.4101642080D-01
     alpha-beta  T2 =       0.8578096490D-01 E2=     -0.2605923338D+00
     beta-beta   T2 =       0.1496160691D-01 E2=     -0.4101642080D-01
 ANorm=    0.1056268990D+01
 E2 =    -0.3426251754D+00 EUMP2 =    -0.93240368889931D+02
          IDoAtm=111
          Differentiating once with respect to electric field.
                with respect to dipole field.
          Differentiating once with respect to nuclear coordinates.
 Keep R1 ints in memory in symmetry-blocked form, NReq=1726881.
          There are     1 degrees of freedom in the 1st order CPHF.  IDoFFX=0 NUNeed=     1.
 LinEq1:  Iter=  0 NonCon=     1 RMS=9.11D-03 Max=4.99D-02 NDo=     1
 AX will form     1 AO Fock derivatives at one time.
 LinEq1:  Iter=  1 NonCon=     1 RMS=2.22D-03 Max=1.39D-02 NDo=     1
 LinEq1:  Iter=  2 NonCon=     1 RMS=5.33D-04 Max=3.20D-03 NDo=     1
 LinEq1:  Iter=  3 NonCon=     1 RMS=3.27D-04 Max=2.55D-03 NDo=     1
 LinEq1:  Iter=  4 NonCon=     1 RMS=7.80D-05 Max=6.05D-04 NDo=     1
 LinEq1:  Iter=  5 NonCon=     1 RMS=1.07D-05 Max=6.88D-05 NDo=     1
 LinEq1:  Iter=  6 NonCon=     1 RMS=1.23D-06 Max=6.15D-06 NDo=     1
 LinEq1:  Iter=  7 NonCon=     1 RMS=1.43D-07 Max=7.66D-07 NDo=     1
 LinEq1:  Iter=  8 NonCon=     1 RMS=1.29D-08 Max=7.17D-08 NDo=     1
 LinEq1:  Iter=  9 NonCon=     1 RMS=7.88D-10 Max=5.48D-09 NDo=     1
 LinEq1:  Iter= 10 NonCon=     0 RMS=4.88D-11 Max=3.12D-10 NDo=     1
 Linear equations converged to 1.000D-10 1.000D-09 after    10 iterations.
 End of Minotr F.D. properties file   721 does not exist.
 End of Minotr F.D. properties file   722 does not exist.
 End of Minotr F.D. properties file   788 does not exist.
 Calling FoFJK, ICntrl=  10002127 FMM=F ISym2X=1 I1Cent= 0 IOpClX= 0 NMat=1 NMatS=1 NMatT=0.
 ***** Axes restored to original set *****
 -------------------------------------------------------------------
 Center     Atomic                   Forces (Hartrees/Bohr)
 Number     Number              X              Y              Z
 -------------------------------------------------------------------
      1        7           0.000000000    0.000000000   -0.014412387
      2        6           0.000000000    0.000000000    0.023136384
      3        1           0.000000000    0.000000000   -0.008723998
 -------------------------------------------------------------------
 Cartesian Forces:  Max     0.023136384 RMS     0.009540075

 GradGradGradGradGradGradGradGradGradGradGradGradGradGradGradGradGradGrad
 Berny optimization.
 Using GEDIIS/GDIIS optimizer.
 Internal  Forces:  Max     0.014412387 RMS     0.008423554
 Search for a local minimum.
 Step number   4 out of a maximum of   20
 All quantities printed in internal units (Hartrees-Bohrs-Radians)
 Mixed Optimization -- RFO/linear search
 Update second derivatives using D2CorX and points    1    2    3    4
 DE= -2.84D-03 DEPred=-2.07D-03 R= 1.38D+00
 TightC=F SS=  1.41D+00  RLast= 1.07D-01 DXNew= 1.0410D+00 3.2087D-01
 Trust test= 1.38D+00 RLast= 1.07D-01 DXMaxT set to 6.19D-01
 The second derivative matrix:
                          R1        R2        A1        A2
           R1           1.44027
           R2          -0.03759   0.33390
           A1           0.00000   0.00000   0.01425
           A2           0.00000   0.00000   0.00000   0.01425
 ITU=  1  1  1  0
 Use linear search instead of GDIIS.
     Eigenvalues ---    0.01425   0.01425   0.33262   1.44154
 RFO step:  Lambda=-1.69405178D-04 EMin= 1.42535752D-02
 Quartic linear search produced a step of  0.18201.
 Iteration  1 RMS(Cart)=  0.00751775 RMS(Int)=  0.00000002
 Iteration  2 RMS(Cart)=  0.00000002 RMS(Int)=  0.00000000
 ClnCor:  largest displacement from symmetrization is 4.83D-10 for atom     2.
 Variable       Old X    -DE/DX   Delta X   Delta X   Delta X     New X
                                 (Linear)    (Quad)   (Total)
    R1        2.19908   0.01441  -0.00125   0.01076   0.00951   2.20859
    R2        2.03838  -0.00872  -0.01943  -0.00180  -0.02123   2.01715
    A1        3.14159   0.00000   0.00000   0.00000   0.00000   3.14159
    A2        3.14159   0.00000   0.00000   0.00000   0.00000   3.14159
         Item               Value     Threshold  Converged?
 Maximum Force            0.014412     0.000015     NO 
 RMS     Force            0.008424     0.000010     NO 
 Maximum Displacement     0.010981     0.000060     NO 
 RMS     Displacement     0.007518     0.000040     NO 
 Predicted change in Energy=-1.743008D-04
 GradGradGradGradGradGradGradGradGradGradGradGradGradGradGradGradGradGrad

                          Input orientation:                          
 ---------------------------------------------------------------------
 Center     Atomic      Atomic             Coordinates (Angstroms)
 Number     Number       Type             X           Y           Z
 ---------------------------------------------------------------------
      1          7           0        0.000000    0.000000   -0.134969
      2          6           0        0.000000    0.000000    1.033769
      3          1           0        0.000000    0.000000    2.101200
 ---------------------------------------------------------------------
                    Distance matrix (angstroms):
                    1          2          3
     1  N    0.000000
     2  C    1.168737   0.000000
     3  H    2.236168   1.067431   0.000000
 Stoichiometry    CHN
 Framework group  C*V[C*(HCN)]
 Deg. of freedom     2
 Full point group                 C*V     NOp   4
 Largest Abelian subgroup         C2V     NOp   4
 Largest concise Abelian subgroup C1      NOp   1
                         Standard orientation:                         
 ---------------------------------------------------------------------
 Center     Atomic      Atomic             Coordinates (Angstroms)
 Number     Number       Type             X           Y           Z
 ---------------------------------------------------------------------
      1          7           0        0.000000    0.000000    0.660614
      2          6           0        0.000000    0.000000   -0.508124
      3          1           0        0.000000    0.000000   -1.575554
 ---------------------------------------------------------------------
 Rotational constants (GHZ):      0.0000000     43.4904601     43.4904601
 Standard basis: 6-311++G(d,p) (5D, 7F)
 There are    29 symmetry adapted cartesian basis functions of A1  symmetry.
 There are     2 symmetry adapted cartesian basis functions of A2  symmetry.
 There are    11 symmetry adapted cartesian basis functions of B1  symmetry.
 There are    11 symmetry adapted cartesian basis functions of B2  symmetry.
 There are    27 symmetry adapted basis functions of A1  symmetry.
 There are     2 symmetry adapted basis functions of A2  symmetry.
 There are    11 symmetry adapted basis functions of B1  symmetry.
 There are    11 symmetry adapted basis functions of B2  symmetry.
    51 basis functions,    81 primitive gaussians,    53 cartesian basis functions
     7 alpha electrons        7 beta electrons
       nuclear repulsion energy        23.6476293732 Hartrees.
 NAtoms=    3 NActive=    3 NUniq=    3 SFac= 1.00D+00 NAtFMM=   60 NAOKFM=F Big=F
 Integral buffers will be    131072 words long.
 Raffenetti 1 integral format.
 Two-electron integral symmetry is turned on.
 One-electron integrals computed using PRISM.
 NBasis=    51 RedAO= T EigKep=  2.85D-03  NBF=    27     2    11    11
 NBsUse=    51 1.00D-06 EigRej= -1.00D+00 NBFU=    27     2    11    11
 Initial guess from the checkpoint file:  "HNCMP2full.chk"
 B after Tr=     0.000000    0.000000    0.000000
         Rot=    1.000000    0.000000    0.000000    0.000000 Ang=   0.00 deg.
 Initial guess orbital symmetries:
       Occupied  (SG) (SG) (SG) (SG) (SG) (PI) (PI)
       Virtual   (SG) (SG) (SG) (SG) (SG) (SG) (SG) (DLTA) (SG)
                 (SG) (SG) (DLTA) (SG) (SG) (SG) (SG) (SG) (SG)
                 (SG) (SG) (SG) (SG) (DLTA) (DLTA) (PI) (PI) (PI)
                 (PI) (PI) (PI) (PI) (PI) (PI) (PI) (PI) (PI) (PI)
                 (PI) (PI) (PI) (PI) (PI) (PI) (PI)
 Keep R1 ints in memory in symmetry-blocked form, NReq=1746609.
 Requested convergence on RMS density matrix=1.00D-08 within 128 cycles.
 Requested convergence on MAX density matrix=1.00D-06.
 Requested convergence on             energy=1.00D-06.
 No special actions if energy rises.
 SCF Done:  E(RHF) =  -92.8970068693     A.U. after    9 cycles
            NFock=  9  Conv=0.22D-08     -V/T= 2.0029
 Range of M.O.s used for correlation:     1    51
 NBasis=    51 NAE=     7 NBE=     7 NFC=     0 NFV=     0
 NROrb=     51 NOA=     7 NOB=     7 NVA=    44 NVB=    44
 Fully direct method using O(ONN) memory.
 JobTyp=1 Pass  1:  I=   1 to   7 NPSUse=  2 ParTrn=T ParDer=T DoDerP=T.
 Spin components of T(2) and E(2):
     alpha-alpha T2 =       0.1509359019D-01 E2=     -0.4116090962D-01
     alpha-beta  T2 =       0.8637617951D-01 E2=     -0.2612189795D+00
     beta-beta   T2 =       0.1509359019D-01 E2=     -0.4116090962D-01
 ANorm=    0.1056675617D+01
 E2 =    -0.3435407987D+00 EUMP2 =    -0.93240547668030D+02
          IDoAtm=111
          Differentiating once with respect to electric field.
                with respect to dipole field.
          Differentiating once with respect to nuclear coordinates.
 Keep R1 ints in memory in symmetry-blocked form, NReq=1726881.
          There are     1 degrees of freedom in the 1st order CPHF.  IDoFFX=0 NUNeed=     1.
 LinEq1:  Iter=  0 NonCon=     1 RMS=9.20D-03 Max=5.06D-02 NDo=     1
 AX will form     1 AO Fock derivatives at one time.
 LinEq1:  Iter=  1 NonCon=     1 RMS=2.23D-03 Max=1.40D-02 NDo=     1
 LinEq1:  Iter=  2 NonCon=     1 RMS=5.40D-04 Max=3.25D-03 NDo=     1
 LinEq1:  Iter=  3 NonCon=     1 RMS=3.36D-04 Max=2.64D-03 NDo=     1
 LinEq1:  Iter=  4 NonCon=     1 RMS=7.89D-05 Max=6.18D-04 NDo=     1
 LinEq1:  Iter=  5 NonCon=     1 RMS=1.09D-05 Max=7.06D-05 NDo=     1
 LinEq1:  Iter=  6 NonCon=     1 RMS=1.26D-06 Max=6.15D-06 NDo=     1
 LinEq1:  Iter=  7 NonCon=     1 RMS=1.46D-07 Max=7.70D-07 NDo=     1
 LinEq1:  Iter=  8 NonCon=     1 RMS=1.31D-08 Max=7.30D-08 NDo=     1
 LinEq1:  Iter=  9 NonCon=     1 RMS=8.03D-10 Max=5.55D-09 NDo=     1
 LinEq1:  Iter= 10 NonCon=     0 RMS=4.83D-11 Max=2.85D-10 NDo=     1
 Linear equations converged to 1.000D-10 1.000D-09 after    10 iterations.
 End of Minotr F.D. properties file   721 does not exist.
 End of Minotr F.D. properties file   722 does not exist.
 End of Minotr F.D. properties file   788 does not exist.
 Calling FoFJK, ICntrl=  10002127 FMM=F ISym2X=1 I1Cent= 0 IOpClX= 0 NMat=1 NMatS=1 NMatT=0.
 ***** Axes restored to original set *****
 -------------------------------------------------------------------
 Center     Atomic                   Forces (Hartrees/Bohr)
 Number     Number              X              Y              Z
 -------------------------------------------------------------------
      1        7           0.000000000    0.000000000   -0.003492528
      2        6           0.000000000    0.000000000    0.003530727
      3        1           0.000000000    0.000000000   -0.000038199
 -------------------------------------------------------------------
 Cartesian Forces:  Max     0.003530727 RMS     0.001655470

 GradGradGradGradGradGradGradGradGradGradGradGradGradGradGradGradGradGrad
 Berny optimization.
 Using GEDIIS/GDIIS optimizer.
 Internal  Forces:  Max     0.003492528 RMS     0.001746368
 Search for a local minimum.
 Step number   5 out of a maximum of   20
 All quantities printed in internal units (Hartrees-Bohrs-Radians)
 Mixed Optimization -- RFO/linear search
 Update second derivatives using D2CorX and points    1    2    3    4    5
 DE= -1.79D-04 DEPred=-1.74D-04 R= 1.03D+00
 TightC=F SS=  1.41D+00  RLast= 2.33D-02 DXNew= 1.0410D+00 6.9773D-02
 Trust test= 1.03D+00 RLast= 2.33D-02 DXMaxT set to 6.19D-01
 The second derivative matrix:
                          R1        R2        A1        A2
           R1           1.17335
           R2           0.01118   0.41423
           A1           0.00000   0.00000   0.01425
           A2           0.00000   0.00000   0.00000   0.01425
 ITU=  1  1  1  1  0
 Use linear search instead of GDIIS.
     Eigenvalues ---    0.01425   0.01425   0.41407   1.17351
 RFO step:  Lambda=-6.45293245D-06 EMin= 1.42535752D-02
 Quartic linear search produced a step of  0.11626.
 Iteration  1 RMS(Cart)=  0.00118808 RMS(Int)=  0.00000000
 Iteration  2 RMS(Cart)=  0.00000000 RMS(Int)=  0.00000000
 ClnCor:  largest displacement from symmetrization is 5.23D-10 for atom     2.
 Variable       Old X    -DE/DX   Delta X   Delta X   Delta X     New X
                                 (Linear)    (Quad)   (Total)
    R1        2.20859   0.00349   0.00111   0.00186   0.00297   2.21156
    R2        2.01715  -0.00004  -0.00247   0.00234  -0.00012   2.01703
    A1        3.14159   0.00000   0.00000   0.00000   0.00000   3.14159
    A2        3.14159   0.00000   0.00000   0.00000   0.00000   3.14159
         Item               Value     Threshold  Converged?
 Maximum Force            0.003493     0.000015     NO 
 RMS     Force            0.001746     0.000010     NO 
 Maximum Displacement     0.001939     0.000060     NO 
 RMS     Displacement     0.001188     0.000040     NO 
 Predicted change in Energy=-5.203465D-06
 GradGradGradGradGradGradGradGradGradGradGradGradGradGradGradGradGradGrad

                          Input orientation:                          
 ---------------------------------------------------------------------
 Center     Atomic      Atomic             Coordinates (Angstroms)
 Number     Number       Type             X           Y           Z
 ---------------------------------------------------------------------
      1          7           0        0.000000    0.000000   -0.135995
      2          6           0        0.000000    0.000000    1.034315
      3          1           0        0.000000    0.000000    2.101680
 ---------------------------------------------------------------------
                    Distance matrix (angstroms):
                    1          2          3
     1  N    0.000000
     2  C    1.170309   0.000000
     3  H    2.237675   1.067365   0.000000
 Stoichiometry    CHN
 Framework group  C*V[C*(HCN)]
 Deg. of freedom     2
 Full point group                 C*V     NOp   4
 Largest Abelian subgroup         C2V     NOp   4
 Largest concise Abelian subgroup C1      NOp   1
                         Standard orientation:                         
 ---------------------------------------------------------------------
 Center     Atomic      Atomic             Coordinates (Angstroms)
 Number     Number       Type             X           Y           Z
 ---------------------------------------------------------------------
      1          7           0        0.000000    0.000000    0.661395
      2          6           0        0.000000    0.000000   -0.508914
      3          1           0        0.000000    0.000000   -1.576280
 ---------------------------------------------------------------------
 Rotational constants (GHZ):      0.0000000     43.3921481     43.3921481
 Standard basis: 6-311++G(d,p) (5D, 7F)
 There are    29 symmetry adapted cartesian basis functions of A1  symmetry.
 There are     2 symmetry adapted cartesian basis functions of A2  symmetry.
 There are    11 symmetry adapted cartesian basis functions of B1  symmetry.
 There are    11 symmetry adapted cartesian basis functions of B2  symmetry.
 There are    27 symmetry adapted basis functions of A1  symmetry.
 There are     2 symmetry adapted basis functions of A2  symmetry.
 There are    11 symmetry adapted basis functions of B1  symmetry.
 There are    11 symmetry adapted basis functions of B2  symmetry.
    51 basis functions,    81 primitive gaussians,    53 cartesian basis functions
     7 alpha electrons        7 beta electrons
       nuclear repulsion energy        23.6211584276 Hartrees.
 NAtoms=    3 NActive=    3 NUniq=    3 SFac= 1.00D+00 NAtFMM=   60 NAOKFM=F Big=F
 Integral buffers will be    131072 words long.
 Raffenetti 1 integral format.
 Two-electron integral symmetry is turned on.
 One-electron integrals computed using PRISM.
 NBasis=    51 RedAO= T EigKep=  2.86D-03  NBF=    27     2    11    11
 NBsUse=    51 1.00D-06 EigRej= -1.00D+00 NBFU=    27     2    11    11
 Initial guess from the checkpoint file:  "HNCMP2full.chk"
 B after Tr=     0.000000    0.000000    0.000000
         Rot=    1.000000    0.000000    0.000000    0.000000 Ang=   0.00 deg.
 Initial guess orbital symmetries:
       Occupied  (SG) (SG) (SG) (SG) (SG) (PI) (PI)
       Virtual   (SG) (SG) (SG) (SG) (SG) (SG) (SG) (DLTA) (SG)
                 (SG) (SG) (DLTA) (SG) (SG) (SG) (SG) (SG) (SG)
                 (SG) (SG) (SG) (SG) (DLTA) (DLTA) (PI) (PI) (PI)
                 (PI) (PI) (PI) (PI) (PI) (PI) (PI) (PI) (PI) (PI)
                 (PI) (PI) (PI) (PI) (PI) (PI) (PI)
 Keep R1 ints in memory in symmetry-blocked form, NReq=1746609.
 Requested convergence on RMS density matrix=1.00D-08 within 128 cycles.
 Requested convergence on MAX density matrix=1.00D-06.
 Requested convergence on             energy=1.00D-06.
 No special actions if energy rises.
 SCF Done:  E(RHF) =  -92.8966835462     A.U. after    8 cycles
            NFock=  8  Conv=0.24D-08     -V/T= 2.0030
 Range of M.O.s used for correlation:     1    51
 NBasis=    51 NAE=     7 NBE=     7 NFC=     0 NFV=     0
 NROrb=     51 NOA=     7 NOB=     7 NVA=    44 NVB=    44
 Fully direct method using O(ONN) memory.
 JobTyp=1 Pass  1:  I=   1 to   7 NPSUse=  2 ParTrn=T ParDer=T DoDerP=T.
 Spin components of T(2) and E(2):
     alpha-alpha T2 =       0.1513904414D-01 E2=     -0.4120837934D-01
     alpha-beta  T2 =       0.8660729734D-01 E2=     -0.2614529362D+00
     beta-beta   T2 =       0.1513904414D-01 E2=     -0.4120837934D-01
 ANorm=    0.1056827983D+01
 E2 =    -0.3438696948D+00 EUMP2 =    -0.93240553241032D+02
          IDoAtm=111
          Differentiating once with respect to electric field.
                with respect to dipole field.
          Differentiating once with respect to nuclear coordinates.
 Keep R1 ints in memory in symmetry-blocked form, NReq=1726881.
          There are     1 degrees of freedom in the 1st order CPHF.  IDoFFX=0 NUNeed=     1.
 LinEq1:  Iter=  0 NonCon=     1 RMS=9.24D-03 Max=5.09D-02 NDo=     1
 AX will form     1 AO Fock derivatives at one time.
 LinEq1:  Iter=  1 NonCon=     1 RMS=2.24D-03 Max=1.40D-02 NDo=     1
 LinEq1:  Iter=  2 NonCon=     1 RMS=5.44D-04 Max=3.28D-03 NDo=     1
 LinEq1:  Iter=  3 NonCon=     1 RMS=3.40D-04 Max=2.68D-03 NDo=     1
 LinEq1:  Iter=  4 NonCon=     1 RMS=7.95D-05 Max=6.22D-04 NDo=     1
 LinEq1:  Iter=  5 NonCon=     1 RMS=1.11D-05 Max=7.16D-05 NDo=     1
 LinEq1:  Iter=  6 NonCon=     1 RMS=1.27D-06 Max=6.22D-06 NDo=     1
 LinEq1:  Iter=  7 NonCon=     1 RMS=1.48D-07 Max=7.74D-07 NDo=     1
 LinEq1:  Iter=  8 NonCon=     1 RMS=1.33D-08 Max=7.38D-08 NDo=     1
 LinEq1:  Iter=  9 NonCon=     1 RMS=8.12D-10 Max=5.58D-09 NDo=     1
 LinEq1:  Iter= 10 NonCon=     0 RMS=4.91D-11 Max=2.94D-10 NDo=     1
 Linear equations converged to 1.000D-10 1.000D-09 after    10 iterations.
 End of Minotr F.D. properties file   721 does not exist.
 End of Minotr F.D. properties file   722 does not exist.
 End of Minotr F.D. properties file   788 does not exist.
 Calling FoFJK, ICntrl=  10002127 FMM=F ISym2X=1 I1Cent= 0 IOpClX= 0 NMat=1 NMatS=1 NMatT=0.
 ***** Axes restored to original set *****
 -------------------------------------------------------------------
 Center     Atomic                   Forces (Hartrees/Bohr)
 Number     Number              X              Y              Z
 -------------------------------------------------------------------
      1        7           0.000000000    0.000000000   -0.000267448
      2        6           0.000000000    0.000000000    0.000204182
      3        1           0.000000000    0.000000000    0.000063266
 -------------------------------------------------------------------
 Cartesian Forces:  Max     0.000267448 RMS     0.000114125

 GradGradGradGradGradGradGradGradGradGradGradGradGradGradGradGradGradGrad
 Berny optimization.
 Using GEDIIS/GDIIS optimizer.
 Internal  Forces:  Max     0.000267448 RMS     0.000137415
 Search for a local minimum.
 Step number   6 out of a maximum of   20
 All quantities printed in internal units (Hartrees-Bohrs-Radians)
 Mixed Optimization -- En-DIIS/RFO-DIIS
 Update second derivatives using D2CorX and points    2    3    4    5    6
 DE= -5.57D-06 DEPred=-5.20D-06 R= 1.07D+00
 TightC=F SS=  1.41D+00  RLast= 2.97D-03 DXNew= 1.0410D+00 8.9176D-03
 Trust test= 1.07D+00 RLast= 2.97D-03 DXMaxT set to 6.19D-01
 The second derivative matrix:
                          R1        R2        A1        A2
           R1           1.08519
           R2          -0.01704   0.41187
           A1           0.00000   0.00000   0.01425
           A2           0.00000   0.00000   0.00000   0.01425
 ITU=  1  1  1  1  1
 Use linear search instead of GDIIS.
     Eigenvalues ---    0.01425   0.01425   0.41144   1.08562
 RFO step:  Lambda=-1.24692635D-08 EMin= 1.42535752D-02
 Quartic linear search produced a step of  0.08250.
 Iteration  1 RMS(Cart)=  0.00014755 RMS(Int)=  0.00000000
 Iteration  2 RMS(Cart)=  0.00000000 RMS(Int)=  0.00000000
 ClnCor:  largest displacement from symmetrization is 1.54D-10 for atom     2.
 Variable       Old X    -DE/DX   Delta X   Delta X   Delta X     New X
                                 (Linear)    (Quad)   (Total)
    R1        2.21156   0.00027   0.00025   0.00001   0.00025   2.21181
    R2        2.01703   0.00006  -0.00001   0.00017   0.00016   2.01719
    A1        3.14159   0.00000   0.00000   0.00000   0.00000   3.14159
    A2        3.14159   0.00000   0.00000   0.00000   0.00000   3.14159
         Item               Value     Threshold  Converged?
 Maximum Force            0.000267     0.000015     NO 
 RMS     Force            0.000137     0.000010     NO 
 Maximum Displacement     0.000222     0.000060     NO 
 RMS     Displacement     0.000148     0.000040     NO 
 Predicted change in Energy=-3.848461D-08
 GradGradGradGradGradGradGradGradGradGradGradGradGradGradGradGradGradGrad

                          Input orientation:                          
 ---------------------------------------------------------------------
 Center     Atomic      Atomic             Coordinates (Angstroms)
 Number     Number       Type             X           Y           Z
 ---------------------------------------------------------------------
      1          7           0        0.000000    0.000000   -0.136112
      2          6           0        0.000000    0.000000    1.034330
      3          1           0        0.000000    0.000000    2.101782
 ---------------------------------------------------------------------
                    Distance matrix (angstroms):
                    1          2          3
     1  N    0.000000
     2  C    1.170442   0.000000
     3  H    2.237894   1.067452   0.000000
 Stoichiometry    CHN
 Framework group  C*V[C*(HCN)]
 Deg. of freedom     2
 Full point group                 C*V     NOp   4
 Largest Abelian subgroup         C2V     NOp   4
 Largest concise Abelian subgroup C1      NOp   1
                         Standard orientation:                         
 ---------------------------------------------------------------------
 Center     Atomic      Atomic             Coordinates (Angstroms)
 Number     Number       Type             X           Y           Z
 ---------------------------------------------------------------------
      1          7           0        0.000000    0.000000    0.661467
      2          6           0        0.000000    0.000000   -0.508974
      3          1           0        0.000000    0.000000   -1.576426
 ---------------------------------------------------------------------
 Rotational constants (GHZ):      0.0000000     43.3827392     43.3827392
 Standard basis: 6-311++G(d,p) (5D, 7F)
 There are    29 symmetry adapted cartesian basis functions of A1  symmetry.
 There are     2 symmetry adapted cartesian basis functions of A2  symmetry.
 There are    11 symmetry adapted cartesian basis functions of B1  symmetry.
 There are    11 symmetry adapted cartesian basis functions of B2  symmetry.
 There are    27 symmetry adapted basis functions of A1  symmetry.
 There are     2 symmetry adapted basis functions of A2  symmetry.
 There are    11 symmetry adapted basis functions of B1  symmetry.
 There are    11 symmetry adapted basis functions of B2  symmetry.
    51 basis functions,    81 primitive gaussians,    53 cartesian basis functions
     7 alpha electrons        7 beta electrons
       nuclear repulsion energy        23.6186037432 Hartrees.
 NAtoms=    3 NActive=    3 NUniq=    3 SFac= 1.00D+00 NAtFMM=   60 NAOKFM=F Big=F
 Integral buffers will be    131072 words long.
 Raffenetti 1 integral format.
 Two-electron integral symmetry is turned on.
 One-electron integrals computed using PRISM.
 NBasis=    51 RedAO= T EigKep=  2.86D-03  NBF=    27     2    11    11
 NBsUse=    51 1.00D-06 EigRej= -1.00D+00 NBFU=    27     2    11    11
 Initial guess from the checkpoint file:  "HNCMP2full.chk"
 B after Tr=     0.000000    0.000000    0.000000
         Rot=    1.000000    0.000000    0.000000    0.000000 Ang=   0.00 deg.
 Initial guess orbital symmetries:
       Occupied  (SG) (SG) (SG) (SG) (SG) (PI) (PI)
       Virtual   (SG) (SG) (SG) (SG) (SG) (SG) (SG) (DLTA) (SG)
                 (SG) (SG) (DLTA) (SG) (SG) (SG) (SG) (SG) (SG)
                 (SG) (SG) (SG) (SG) (DLTA) (DLTA) (PI) (PI) (PI)
                 (PI) (PI) (PI) (PI) (PI) (PI) (PI) (PI) (PI) (PI)
                 (PI) (PI) (PI) (PI) (PI) (PI) (PI)
 Keep R1 ints in memory in symmetry-blocked form, NReq=1746609.
 Requested convergence on RMS density matrix=1.00D-08 within 128 cycles.
 Requested convergence on MAX density matrix=1.00D-06.
 Requested convergence on             energy=1.00D-06.
 No special actions if energy rises.
 SCF Done:  E(RHF) =  -92.8966547055     A.U. after    7 cycles
            NFock=  7  Conv=0.21D-08     -V/T= 2.0030
 Range of M.O.s used for correlation:     1    51
 NBasis=    51 NAE=     7 NBE=     7 NFC=     0 NFV=     0
 NROrb=     51 NOA=     7 NOB=     7 NVA=    44 NVB=    44
 Fully direct method using O(ONN) memory.
 JobTyp=1 Pass  1:  I=   1 to   7 NPSUse=  2 ParTrn=T ParDer=T DoDerP=T.
 Spin components of T(2) and E(2):
     alpha-alpha T2 =       0.1514298956D-01 E2=     -0.4121244488D-01
     alpha-beta  T2 =       0.8662798224D-01 E2=     -0.2614736841D+00
     beta-beta   T2 =       0.1514298956D-01 E2=     -0.4121244488D-01
 ANorm=    0.1056841502D+01
 E2 =    -0.3438985738D+00 EUMP2 =    -0.93240553279381D+02
          IDoAtm=111
          Differentiating once with respect to electric field.
                with respect to dipole field.
          Differentiating once with respect to nuclear coordinates.
 Keep R1 ints in memory in symmetry-blocked form, NReq=1726881.
          There are     1 degrees of freedom in the 1st order CPHF.  IDoFFX=0 NUNeed=     1.
 LinEq1:  Iter=  0 NonCon=     1 RMS=9.24D-03 Max=5.09D-02 NDo=     1
 AX will form     1 AO Fock derivatives at one time.
 LinEq1:  Iter=  1 NonCon=     1 RMS=2.24D-03 Max=1.40D-02 NDo=     1
 LinEq1:  Iter=  2 NonCon=     1 RMS=5.44D-04 Max=3.29D-03 NDo=     1
 LinEq1:  Iter=  3 NonCon=     1 RMS=3.41D-04 Max=2.69D-03 NDo=     1
 LinEq1:  Iter=  4 NonCon=     1 RMS=7.96D-05 Max=6.23D-04 NDo=     1
 LinEq1:  Iter=  5 NonCon=     1 RMS=1.11D-05 Max=7.17D-05 NDo=     1
 LinEq1:  Iter=  6 NonCon=     1 RMS=1.28D-06 Max=6.23D-06 NDo=     1
 LinEq1:  Iter=  7 NonCon=     1 RMS=1.48D-07 Max=7.75D-07 NDo=     1
 LinEq1:  Iter=  8 NonCon=     1 RMS=1.33D-08 Max=7.38D-08 NDo=     1
 LinEq1:  Iter=  9 NonCon=     1 RMS=8.12D-10 Max=5.59D-09 NDo=     1
 LinEq1:  Iter= 10 NonCon=     0 RMS=4.92D-11 Max=2.95D-10 NDo=     1
 Linear equations converged to 1.000D-10 1.000D-09 after    10 iterations.
 End of Minotr F.D. properties file   721 does not exist.
 End of Minotr F.D. properties file   722 does not exist.
 End of Minotr F.D. properties file   788 does not exist.
 Calling FoFJK, ICntrl=  10002127 FMM=F ISym2X=1 I1Cent= 0 IOpClX= 0 NMat=1 NMatS=1 NMatT=0.
 ***** Axes restored to original set *****
 -------------------------------------------------------------------
 Center     Atomic                   Forces (Hartrees/Bohr)
 Number     Number              X              Y              Z
 -------------------------------------------------------------------
      1        7           0.000000000    0.000000000    0.000000004
      2        6           0.000000000    0.000000000    0.000000395
      3        1           0.000000000    0.000000000   -0.000000399
 -------------------------------------------------------------------
 Cartesian Forces:  Max     0.000000399 RMS     0.000000187

 GradGradGradGradGradGradGradGradGradGradGradGradGradGradGradGradGradGrad
 Berny optimization.
 Using GEDIIS/GDIIS optimizer.
 Internal  Forces:  Max     0.000000399 RMS     0.000000199
 Search for a local minimum.
 Step number   7 out of a maximum of   20
 All quantities printed in internal units (Hartrees-Bohrs-Radians)
 Mixed Optimization -- En-DIIS/RFO-DIIS
 Swapping is turned off.
 Update second derivatives using D2CorX and points    3    4    5    6    7
 DE= -3.83D-08 DEPred=-3.85D-08 R= 9.96D-01
 Trust test= 9.96D-01 RLast= 2.99D-04 DXMaxT set to 6.19D-01
 The second derivative matrix:
                          R1        R2        A1        A2
           R1           1.06870
           R2          -0.00165   0.39119
           A1           0.00000   0.00000   0.01425
           A2           0.00000   0.00000   0.00000   0.01425
 ITU=  0  1  1  1  1
     Eigenvalues ---    0.01425   0.01425   0.39119   1.06871
 En-DIIS/RFO-DIIS IScMMF=        0 using points:     7    6
 RFO step:  Lambda= 0.00000000D+00.
 DidBck=F Rises=F RFO-DIIS coefs:    0.99914    0.00086
 Iteration  1 RMS(Cart)=  0.00000042 RMS(Int)=  0.00000000
 ClnCor:  largest displacement from symmetrization is 4.48D-14 for atom     2.
 Variable       Old X    -DE/DX   Delta X   Delta X   Delta X     New X
                                 (Linear)    (Quad)   (Total)
    R1        2.21181   0.00000   0.00000   0.00000   0.00000   2.21181
    R2        2.01719   0.00000   0.00000   0.00000   0.00000   2.01719
    A1        3.14159   0.00000   0.00000   0.00000   0.00000   3.14159
    A2        3.14159   0.00000   0.00000   0.00000   0.00000   3.14159
         Item               Value     Threshold  Converged?
 Maximum Force            0.000000     0.000015     YES
 RMS     Force            0.000000     0.000010     YES
 Maximum Displacement     0.000001     0.000060     YES
 RMS     Displacement     0.000000     0.000040     YES
 Predicted change in Energy=-2.032652D-13
 Optimization completed.
    -- Stationary point found.
                           ----------------------------
                           !   Optimized Parameters   !
                           ! (Angstroms and Degrees)  !
 --------------------------                            --------------------------
 ! Name  Definition              Value          Derivative Info.                !
 --------------------------------------------------------------------------------
 ! R1    R(1,2)                  1.1704         -DE/DX =    0.0                 !
 ! R2    R(2,3)                  1.0675         -DE/DX =    0.0                 !
 ! A1    L(1,2,3,-1,-1)        180.0            -DE/DX =    0.0                 !
 ! A2    L(1,2,3,-2,-2)        180.0            -DE/DX =    0.0                 !
 --------------------------------------------------------------------------------
 GradGradGradGradGradGradGradGradGradGradGradGradGradGradGradGradGradGrad

                          Input orientation:                          
 ---------------------------------------------------------------------
 Center     Atomic      Atomic             Coordinates (Angstroms)
 Number     Number       Type             X           Y           Z
 ---------------------------------------------------------------------
      1          7           0        0.000000    0.000000   -0.136112
      2          6           0        0.000000    0.000000    1.034330
      3          1           0        0.000000    0.000000    2.101782
 ---------------------------------------------------------------------
                    Distance matrix (angstroms):
                    1          2          3
     1  N    0.000000
     2  C    1.170442   0.000000
     3  H    2.237894   1.067452   0.000000
 Stoichiometry    CHN
 Framework group  C*V[C*(HCN)]
 Deg. of freedom     2
 Full point group                 C*V     NOp   4
 Largest Abelian subgroup         C2V     NOp   4
 Largest concise Abelian subgroup C1      NOp   1
                         Standard orientation:                         
 ---------------------------------------------------------------------
 Center     Atomic      Atomic             Coordinates (Angstroms)
[...]
     7 alpha electrons        7 beta electrons
       nuclear repulsion energy        23.6186037432 Hartrees.
 NAtoms=    3 NActive=    3 NUniq=    3 SFac= 1.00D+00 NAtFMM=   60 NAOKFM=F Big=F
 Integral buffers will be    131072 words long.
 Raffenetti 1 integral format.
 Two-electron integral symmetry is turned on.
 One-electron integrals computed using PRISM.
 NBasis=    51 RedAO= T EigKep=  2.86D-03  NBF=    27     2    11    11
 NBsUse=    51 1.00D-06 EigRej= -1.00D+00 NBFU=    27     2    11    11
 Initial guess from the checkpoint file:  "HNCMP2full.chk"
 B after Tr=     0.000000    0.000000    0.000000
         Rot=    1.000000    0.000000    0.000000    0.000000 Ang=   0.00 deg.
 Initial guess orbital symmetries:
       Occupied  (SG) (SG) (SG) (SG) (SG) (PI) (PI)
       Virtual   (SG) (SG) (PI) (PI) (SG) (PI) (PI) (SG) (PI) (PI)
                 (SG) (SG) (SG) (PI) (PI) (SG) (SG) (SG) (PI) (PI)
                 (SG) (PI) (PI) (SG) (DLTA) (DLTA) (PI) (PI) (SG)
                 (DLTA) (DLTA) (SG) (PI) (PI) (SG) (PI) (PI) (SG)
                 (SG) (PI) (PI) (SG) (SG) (SG)
 Keep R1 ints in memory in symmetry-blocked form, NReq=1746609.
 Requested convergence on RMS density matrix=1.00D-08 within 128 cycles.
 Requested convergence on MAX density matrix=1.00D-06.
 Requested convergence on             energy=1.00D-06.
 No special actions if energy rises.
 SCF Done:  E(RHF) =  -92.8966547055     A.U. after    1 cycles
            NFock=  1  Conv=0.23D-09     -V/T= 2.0030
 Range of M.O.s used for correlation:     1    51
 NBasis=    51 NAE=     7 NBE=     7 NFC=     0 NFV=     0
 NROrb=     51 NOA=     7 NOB=     7 NVA=    44 NVB=    44
 Disk-based method using ON**2 memory for  7 occupieds at a time.
 Permanent disk used for amplitudes=      114730 words.
 Estimated scratch disk usage=     2616632 words.
 Actual    scratch disk usage=     2616632 words.
 JobTyp=1 Pass  1:  I=   1 to   7 NPSUse=  2 ParTrn=T ParDer=T DoDerP=T.
 (rs|ai) integrals will be sorted in core.
 Spin components of T(2) and E(2):
     alpha-alpha T2 =       0.1514298959D-01 E2=     -0.4121244493D-01
     alpha-beta  T2 =       0.8662798245D-01 E2=     -0.2614736844D+00
     beta-beta   T2 =       0.1514298959D-01 E2=     -0.4121244493D-01
 ANorm=    0.1056841503D+01
 E2 =    -0.3438985743D+00 EUMP2 =    -0.93240553279793D+02
 G2DrvN: will do     4 centers at a time, making    1 passes.
 Calling FoFCou, ICntrl=  3107 FMM=F I1Cent=   0 AccDes= 0.00D+00.
 End of G2Drv F.D. properties file   721 does not exist.
 End of G2Drv F.D. properties file   722 does not exist.
 End of G2Drv F.D. properties file   788 does not exist.
          IDoAtm=111
          Differentiating once with respect to electric field.
                with respect to dipole field.
          Differentiating once with respect to nuclear coordinates.
 Keep R1 ints in memory in symmetry-blocked form, NReq=1726820.
          There are    12 degrees of freedom in the 1st order CPHF.  IDoFFX=6 NUNeed=    12.
      9 vectors produced by pass  0 Test12= 2.57D-15 8.33D-09 XBig12= 8.24D+00 1.40D+00.
 AX will form     9 AO Fock derivatives at one time.
      9 vectors produced by pass  1 Test12= 2.57D-15 8.33D-09 XBig12= 1.51D+00 4.10D-01.
      9 vectors produced by pass  2 Test12= 2.57D-15 8.33D-09 XBig12= 3.23D-02 5.76D-02.
      9 vectors produced by pass  3 Test12= 2.57D-15 8.33D-09 XBig12= 4.32D-04 6.61D-03.
      9 vectors produced by pass  4 Test12= 2.57D-15 8.33D-09 XBig12= 3.45D-06 4.60D-04.
      9 vectors produced by pass  5 Test12= 2.57D-15 8.33D-09 XBig12= 1.07D-08 3.37D-05.
      7 vectors produced by pass  6 Test12= 2.57D-15 8.33D-09 XBig12= 6.50D-11 2.07D-06.
      3 vectors produced by pass  7 Test12= 2.57D-15 8.33D-09 XBig12= 2.13D-13 1.43D-07.
      1 vectors produced by pass  8 Test12= 2.57D-15 8.33D-09 XBig12= 1.02D-15 1.13D-08.
 InvSVY:  IOpt=1 It=  1 EMax= 4.44D-16
 Solved reduced A of dimension    65 with     9 vectors.
 End of Minotr F.D. properties file   721 does not exist.
 End of Minotr F.D. properties file   722 does not exist.
 End of Minotr F.D. properties file   788 does not exist.
 MDV=   805306368.
 Form MO integral derivatives with frozen-active canonical formalism.
 Discarding MO integrals.
 Reordered first order wavefunction length =       189728
 In DefCFB: NBatch=  1 ICI=  7 ICA= 44 LFMax= 44
            Large arrays: LIAPS=     3330096 LIARS=     2628164 words.
 Semi-Direct transformation.
 ModeAB=           2 MOrb=             7 LenV=     805104140
 LASXX=       412797 LTotXX=      412797 LenRXX=      412797
 LTotAB=      436912 MaxLAS=      510867 LenRXY=      510867
 NonZer=      825594 LenScr=     1857024 LnRSAI=           0
 LnScr1=           0 LExtra=           0 Total=      2780688
 MaxDsk=          -1 SrtSym=           F ITran=            4
 JobTyp=0 Pass  1:  I=   1 to   7.
 (rs|ai) integrals will be sorted in core.
 Spin components of T(2) and E(2):
     alpha-alpha T2 =       0.1514298959D-01 E2=     -0.4121244493D-01
     alpha-beta  T2 =       0.8662798245D-01 E2=     -0.2614736844D+00
     beta-beta   T2 =       0.1514298959D-01 E2=     -0.4121244493D-01
 ANorm=    0.1494599586D+01
 E2 =    -0.3438985743D+00 EUMP2 =    -0.93240553279793D+02
          IDoAtm=111
          Differentiating once with respect to electric field.
                with respect to dipole field.
          Differentiating once with respect to nuclear coordinates.
          There are     1 degrees of freedom in the 1st order CPHF.  IDoFFX=0 NUNeed=     1.
 LinEq1:  Iter=  0 NonCon=     1 RMS=9.24D-03 Max=5.09D-02 NDo=     1
 LinEq1:  Iter=  1 NonCon=     1 RMS=2.24D-03 Max=1.40D-02 NDo=     1
 LinEq1:  Iter=  2 NonCon=     1 RMS=5.44D-04 Max=3.29D-03 NDo=     1
 LinEq1:  Iter=  3 NonCon=     1 RMS=3.41D-04 Max=2.69D-03 NDo=     1
 LinEq1:  Iter=  4 NonCon=     1 RMS=7.96D-05 Max=6.23D-04 NDo=     1
 LinEq1:  Iter=  5 NonCon=     1 RMS=1.11D-05 Max=7.17D-05 NDo=     1
 LinEq1:  Iter=  6 NonCon=     1 RMS=1.28D-06 Max=6.23D-06 NDo=     1
 LinEq1:  Iter=  7 NonCon=     1 RMS=1.48D-07 Max=7.75D-07 NDo=     1
 LinEq1:  Iter=  8 NonCon=     1 RMS=1.33D-08 Max=7.38D-08 NDo=     1
 LinEq1:  Iter=  9 NonCon=     1 RMS=8.12D-10 Max=5.59D-09 NDo=     1
 LinEq1:  Iter= 10 NonCon=     0 RMS=4.92D-11 Max=2.95D-10 NDo=     1
 Linear equations converged to 1.000D-10 1.000D-09 after    10 iterations.
 End of Minotr F.D. properties file   721 does not exist.
 End of Minotr F.D. properties file   722 does not exist.
 End of Minotr F.D. properties file   788 does not exist.
 Symmetrizing basis deriv contribution to polar:
 IMax=3 JMax=2 DiffMx= 0.00D+00
 G2DrvN: will do     4 centers at a time, making    1 passes.
 Calling FoFCou, ICntrl=  3107 FMM=F I1Cent=   0 AccDes= 0.00D+00.
 End of G2Drv F.D. properties file   721 does not exist.
 End of G2Drv F.D. properties file   722 does not exist.
 End of G2Drv F.D. properties file   788 does not exist.
 R2 and R3 integrals will be kept in memory, NReq=     2869192.
 DD1Dir will call FoFMem   1 times, MxPair=        56
 NAB=    28 NAA=     0 NBB=     0.
 Discarding MO integrals.

 **********************************************************************

            Population analysis using the SCF density.

 **********************************************************************

 Orbital symmetries:
       Occupied  (SG) (SG) (SG) (SG) (SG) (PI) (PI)
       Virtual   (SG) (SG) (PI) (PI) (SG) (PI) (PI) (SG) (PI) (PI)
                 (SG) (SG) (SG) (PI) (PI) (SG) (SG) (SG) (PI) (PI)
                 (SG) (PI) (PI) (SG) (DLTA) (DLTA) (PI) (PI) (SG)
                 (DLTA) (DLTA) (SG) (PI) (PI) (SG) (PI) (PI) (SG)
                 (SG) (PI) (PI) (SG) (SG) (SG)
 The electronic state is 1-SG.
 Alpha  occ. eigenvalues --  -15.60874 -11.30102  -1.23341  -0.81588  -0.58426
 Alpha  occ. eigenvalues --   -0.49313  -0.49313
 Alpha virt. eigenvalues --    0.03570   0.08711   0.08953   0.08953   0.16843
 Alpha virt. eigenvalues --    0.17108   0.17108   0.20825   0.27392   0.27392
 Alpha virt. eigenvalues --    0.28156   0.33753   0.53251   0.70256   0.70256
 Alpha virt. eigenvalues --    0.75717   0.93277   0.96763   1.06063   1.06063
 Alpha virt. eigenvalues --    1.26898   1.39144   1.39144   1.46326   1.49725
 Alpha virt. eigenvalues --    1.49725   2.06563   2.06563   2.22338   2.37792
 Alpha virt. eigenvalues --    2.37792   2.82366   2.96585   2.96585   3.19811
 Alpha virt. eigenvalues --    3.22731   3.22731   3.45356   3.75040   4.38654
 Alpha virt. eigenvalues --    4.38654   5.01904  25.43786  37.13835
          Condensed to atoms (all electrons):
               1          2          3
     1  N    6.532779   0.699244  -0.006233
     2  C    0.699244   4.900104   0.386603
     3  H   -0.006233   0.386603   0.407890
 Mulliken charges:
               1
     1  N   -0.225790
     2  C    0.014049
     3  H    0.211741
 Sum of Mulliken charges =   0.00000
 Mulliken charges with hydrogens summed into heavy atoms:
               1
     1  N   -0.225790
     2  C    0.225790
 APT charges:
               1
     1  N   -0.146282
     2  C   -0.118438
     3  H    0.264720
 Sum of APT charges =   0.00000
 APT charges with hydrogens summed into heavy atoms:
               1
     1  N   -0.146282
     2  C    0.146282
 Electronic spatial extent (au):  <R**2>=             50.4983
 Charge=              0.0000 electrons
 Dipole moment (field-independent basis, Debye):
    X=              0.0000    Y=              0.0000    Z=             -3.3177  Tot=              3.3177
 Quadrupole moment (field-independent basis, Debye-Ang):
   XX=            -12.0549   YY=            -12.0549   ZZ=             -9.6987
   XY=              0.0000   XZ=              0.0000   YZ=              0.0000
 Traceless Quadrupole moment (field-independent basis, Debye-Ang):
   XX=             -0.7854   YY=             -0.7854   ZZ=              1.5708
   XY=              0.0000   XZ=              0.0000   YZ=              0.0000
 Octapole moment (field-independent basis, Debye-Ang**2):
  XXX=              0.0000  YYY=              0.0000  ZZZ=             -8.2827  XYY=              0.0000
  XXY=              0.0000  XXZ=             -0.3903  XZZ=              0.0000  YZZ=              0.0000
  YYZ=             -0.3903  XYZ=              0.0000
 Hexadecapole moment (field-independent basis, Debye-Ang**3):
 XXXX=            -12.5458 YYYY=            -12.5458 ZZZZ=            -35.8986 XXXY=              0.0000
 XXXZ=              0.0000 YYYX=              0.0000 YYYZ=              0.0000 ZZZX=              0.0000
 ZZZY=              0.0000 XXYY=             -4.1819 XXZZ=             -9.4467 YYZZ=             -9.4467
 XXYZ=              0.0000 YYXZ=              0.0000 ZZXY=              0.0000
 N-N= 2.361860374322D+01 E-N=-2.645919503256D+02  KE= 9.262056505056D+01
 Symmetry A1   KE= 8.727202276163D+01
 Symmetry A2   KE= 0.000000000000D+00
 Symmetry B1   KE= 2.674271144465D+00
 Symmetry B2   KE= 2.674271144465D+00
  Exact polarizability:  10.154   0.000  10.154   0.000   0.000  21.835
 Approx polarizability:   8.656   0.000   8.656   0.000   0.000  23.772
 Calling FoFJK, ICntrl=  10100127 FMM=F ISym2X=1 I1Cent= 0 IOpClX= 0 NMat=1 NMatS=1 NMatT=0.
 Full mass-weighted force constant matrix:
 Low frequencies ---    0.0005    0.0005    0.0006    0.7684    0.7684  735.5432
 Low frequencies ---  735.5432 2020.7822 3489.7905
 Diagonal vibrational polarizability:
        2.1409864       2.1409864       0.1728715
 Harmonic frequencies (cm**-1), IR intensities (KM/Mole), Raman scattering
 activities (A**4/AMU), depolarization ratios for plane and unpolarized
 incident light, reduced masses (AMU), force constants (mDyne/A),
 and normal coordinates:
                      1                      2                      3
                     PI                     PI                     SG
 Frequencies --    735.5432               735.5432              2020.7822
 Red. masses --      1.3373                 1.3373                 5.7463
 Frc consts  --      0.4263                 0.4263                13.8253
 IR Inten    --     43.0425                43.0425                 0.2533
  Atom  AN      X      Y      Z        X      Y      Z        X      Y      Z
     1   7     0.00   0.06   0.00     0.06   0.00   0.00     0.00   0.00   0.44
     2   6     0.00  -0.16   0.00    -0.16   0.00   0.00     0.00   0.00  -0.45
     3   1     0.00   0.99   0.00     0.99   0.00   0.00     0.00   0.00  -0.78
                      4
                     SG
 Frequencies --   3489.7905
 Red. masses --      1.1602
 Frc consts  --      8.3253
 IR Inten    --     77.4773
  Atom  AN      X      Y      Z
     1   7     0.00   0.00  -0.03
     2   6     0.00   0.00   0.11
     3   1     0.00   0.00  -0.99

 -------------------
 - Thermochemistry -
 -------------------
 Temperature   298.150 Kelvin.  Pressure   1.00000 Atm.
 Atom     1 has atomic number  7 and mass  14.00307
 Atom     2 has atomic number  6 and mass  12.00000
 Atom     3 has atomic number  1 and mass   1.00783
 Molecular mass:    27.01090 amu.
 Principal axes and moments of inertia in atomic units:
                           1         2         3
     Eigenvalues --     0.00000  41.60044  41.60044
           X            0.00000   0.00000   1.00000
           Y            0.00000   1.00000   0.00000
           Z            1.00000   0.00000   0.00000
 This molecule is a prolate symmetric top.
 Rotational symmetry number  1.
 Rotational temperature (Kelvin)      2.08204
 Rotational constant (GHZ):          43.382739
 Zero-point vibrational energy      41759.6 (Joules/Mol)
                                    9.98078 (Kcal/Mol)
 Vibrational temperatures:   1058.28  1058.28  2907.45  5021.02
          (Kelvin)
 
 Zero-point correction=                           0.015905 (Hartree/Particle)
 Thermal correction to Energy=                    0.018465
 Thermal correction to Enthalpy=                  0.019409
 Thermal correction to Gibbs Free Energy=        -0.003494
 Sum of electronic and zero-point Energies=            -93.224648
 Sum of electronic and thermal Energies=               -93.222089
 Sum of electronic and thermal Enthalpies=             -93.221144
 Sum of electronic and thermal Free Energies=          -93.244047
 
                     E (Thermal)             CV                S
                      KCal/Mol        Cal/Mol-Kelvin    Cal/Mol-Kelvin
 Total                   11.587              6.505             48.203
 Electronic               0.000              0.000              0.000
 Translational            0.889              2.981             35.816
 Rotational               0.592              1.987             11.852
 Vibrational             10.106              1.537              0.535
                       Q            Log10(Q)             Ln(Q)
 Total Bot       0.404676D+02          1.607107          3.700501
 Total V=0       0.837651D+09          8.923063         20.546112
 Vib (Bot)       0.512151D-07         -7.290602        -16.787232
 Vib (V=0)       0.106012D+01          0.025354          0.058379
 Electronic      0.100000D+01          0.000000          0.000000
 Translational   0.551777D+07          6.741764         15.523485
 Rotational      0.143201D+03          2.155946          4.964248
 ***** Axes restored to original set *****
 -------------------------------------------------------------------
 Center     Atomic                   Forces (Hartrees/Bohr)
 Number     Number              X              Y              Z
 -------------------------------------------------------------------
      1        7           0.000000000    0.000000000    0.000000004
      2        6           0.000000000    0.000000000    0.000000394
      3        1           0.000000000    0.000000000   -0.000000398
 -------------------------------------------------------------------
 Cartesian Forces:  Max     0.000000398 RMS     0.000000187
 FormGI is forming the generalized inverse of G from B-inverse, IUseBI=4.

 GradGradGradGradGradGradGradGradGradGradGradGradGradGradGradGradGradGrad
 Berny optimization.
 Internal  Forces:  Max     0.000000398 RMS     0.000000199
 Search for a local minimum.
 Step number   1 out of a maximum of    2
 All quantities printed in internal units (Hartrees-Bohrs-Radians)
 Second derivative matrix not updated -- analytic derivatives used.
 The second derivative matrix:
                          R1        R2        A1        A2
           R1           1.07819
           R2          -0.01692   0.41443
           A1           0.00000   0.00000   0.06143
           A2           0.00000   0.00000   0.00000   0.06143
 ITU=  0
     Eigenvalues ---    0.06143   0.06143   0.41400   1.07862
 Angle between quadratic step and forces=  90.00 degrees.
 Linear search not attempted -- first point.
 Iteration  1 RMS(Cart)=  0.00000040 RMS(Int)=  0.00000000
 ClnCor:  largest displacement from symmetrization is 5.55D-17 for atom     1.
 Variable       Old X    -DE/DX   Delta X   Delta X   Delta X     New X
                                 (Linear)    (Quad)   (Total)
    R1        2.21181   0.00000   0.00000   0.00000   0.00000   2.21181
    R2        2.01719   0.00000   0.00000   0.00000   0.00000   2.01719
    A1        3.14159   0.00000   0.00000   0.00000   0.00000   3.14159
    A2        3.14159   0.00000   0.00000   0.00000   0.00000   3.14159
         Item               Value     Threshold  Converged?
 Maximum Force            0.000000     0.000015     YES
 RMS     Force            0.000000     0.000010     YES
 Maximum Displacement     0.000001     0.000060     YES
 RMS     Displacement     0.000000     0.000040     YES
 Predicted change in Energy=-1.908263D-13
 Optimization completed.
    -- Stationary point found.
                           ----------------------------
                           !   Optimized Parameters   !
                           ! (Angstroms and Degrees)  !
 --------------------------                            --------------------------
 ! Name  Definition              Value          Derivative Info.                !
 --------------------------------------------------------------------------------
 ! R1    R(1,2)                  1.1704         -DE/DX =    0.0                 !
 ! R2    R(2,3)                  1.0675         -DE/DX =    0.0                 !
 ! A1    L(1,2,3,-1,-1)        180.0            -DE/DX =    0.0                 !
 ! A2    L(1,2,3,-2,-2)        180.0            -DE/DX =    0.0                 !
 --------------------------------------------------------------------------------
 GradGradGradGradGradGradGradGradGradGradGradGradGradGradGradGradGradGrad

 1\1\GINC-TC-NODE166\Freq\RMP2-Full\6-311++G(d,p)\C1H1N1\MAXB2\30-Sep-2
 016\0\\#N Geom=AllCheck Guess=TCheck SCRF=Check GenChk RMP2-Full/6-311
 ++G(d,p) Freq\\HNC-HCN\\0,1\N,0.,0.,-0.1361118122\C,0.,0.,1.0343298282
 \H,0.,0.,2.101781984\\Version=ES64L-G09RevD.01\State=1-SG\HF=-92.89665
 47\MP2=-93.2405533\RMSD=2.337e-10\RMSF=1.865e-07\ZeroPoint=0.0159054\T
 hermal=0.0184647\Dipole=0.,0.,1.1802782\DipoleDeriv=-0.2885316,0.,0.,0
 .,-0.2885316,0.,0.,0.,0.1382166,0.0197919,0.,0.,0.,0.0197919,0.,0.,0.,
 -0.3948982,0.2687398,0.,0.,0.,0.2687398,0.,0.,0.,0.2566816\Polar=10.15
 3701,0.,10.153701,0.,0.,21.8350253\PG=C*V [C*(H1C1N1)]\NImag=0\\0.0125
 5600,0.,0.01255600,0.,0.,1.07818612,-0.02632340,0.,0.,0.05518672,0.,-0
 .02632340,0.,0.,0.05518672,0.,0.,-1.09510872,0.,0.,1.52646593,0.013767
 40,0.,0.,-0.02886332,0.,0.,0.01509592,0.,0.01376740,0.,0.,-0.02886332,
 0.,0.,0.01509592,0.,0.,0.01692259,0.,0.,-0.43135721,0.,0.,0.41443461\\
 0.,0.,0.,0.,0.,-0.00000039,0.,0.,0.00000040\\\@


 Life may have no meaning.  Or even worse, it may have a
 meaning of which I disapprove.
                                 -- Ashleigh Brilliant
 Job cpu time:       0 days  0 hours  0 minutes 17.0 seconds.
 File lengths (MBytes):  RWF=     57 Int=      0 D2E=      0 Chk=      2 Scr=      1
 Normal termination of Gaussian 09 at Fri Sep 30 11:37:17 2016.
