 Entering Gaussian System, Link 0=g09
 Initial command:
 /cluster/software/gaussian/gaussian-09-D.01/g09/l1.exe "/local/scratch/maxb2/Gau-9013.inp" -scrdir="/local/scratch/maxb2/"
 Entering Link 1 = /cluster/software/gaussian/gaussian-09-D.01/g09/l1.exe PID=      9014.
  
 Copyright (c) 1988,1990,1992,1993,1995,1998,2003,2009,2013,
            Gaussian, Inc.  All Rights Reserved.
  
 This is part of the Gaussian(R) 09 program.  It is based on
 the Gaussian(R) 03 system (copyright 2003, Gaussian, Inc.),
 the Gaussian(R) 98 system (copyright 1998, Gaussian, Inc.),
 the Gaussian(R) 94 system (copyright 1995, Gaussian, Inc.),
 the Gaussian 92(TM) system (copyright 1992, Gaussian, Inc.),
 the Gaussian 90(TM) system (copyright 1990, Gaussian, Inc.),
 the Gaussian 88(TM) system (copyright 1988, Gaussian, Inc.),
 the Gaussian 86(TM) system (copyright 1986, Carnegie Mellon
 University), and the Gaussian 82(TM) system (copyright 1983,
 Carnegie Mellon University). Gaussian is a federally registered
 trademark of Gaussian, Inc.
  
 This software contains proprietary and confidential information,
 including trade secrets, belonging to Gaussian, Inc.
  
 This software is provided under written license and may be
 used, copied, transmitted, or stored only in accord with that
 written license.
  
 The following legend is applicable only to US Government
 contracts under FAR:
  
                    RESTRICTED RIGHTS LEGEND
  
 Use, reproduction and disclosure by the US Government is
 subject to restrictions as set forth in subparagraphs (a)
 and (c) of the Commercial Computer Software - Restricted
 Rights clause in FAR 52.227-19.
  
 Gaussian, Inc.
 340 Quinnipiac St., Bldg. 40, Wallingford CT 06492
  
  
 ---------------------------------------------------------------
 Warning -- This program may not be used in any manner that
 competes with the business of Gaussian, Inc. or will provide
 assistance to any competitor of Gaussian, Inc.  The licensee
 of this program is prohibited from giving any competitor of
 Gaussian, Inc. access to this program.  By using this program,
 the user acknowledges that Gaussian, Inc. is engaged in the
 business of creating and licensing software in the field of
 computational chemistry and represents and warrants to the
 licensee that it is not a competitor of Gaussian, Inc. and that
 it will not use this program in any manner prohibited above.
 ---------------------------------------------------------------
  

 Cite this work as:
 Gaussian 09, Revision D.01,
 M. J. Frisch, G. W. Trucks, H. B. Schlegel, G. E. Scuseria, 
 M. A. Robb, J. R. Cheeseman, G. Scalmani, V. Barone, B. Mennucci, 
 G. A. Petersson, H. Nakatsuji, M. Caricato, X. Li, H. P. Hratchian, 
 A. F. Izmaylov, J. Bloino, G. Zheng, J. L. Sonnenberg, M. Hada, 
 M. Ehara, K. Toyota, R. Fukuda, J. Hasegawa, M. Ishida, T. Nakajima, 
 Y. Honda, O. Kitao, H. Nakai, T. Vreven, J. A. Montgomery, Jr., 
 J. E. Peralta, F. Ogliaro, M. Bearpark, J. J. Heyd, E. Brothers, 
 K. N. Kudin, V. N. Staroverov, T. Keith, R. Kobayashi, J. Normand, 
 K. Raghavachari, A. Rendell, J. C. Burant, S. S. Iyengar, J. Tomasi, 
 M. Cossi, N. Rega, J. M. Millam, M. Klene, J. E. Knox, J. B. Cross, 
 V. Bakken, C. Adamo, J. Jaramillo, R. Gomperts, R. E. Stratmann, 
 O. Yazyev, A. J. Austin, R. Cammi, C. Pomelli, J. W. Ochterski, 
 R. L. Martin, K. Morokuma, V. G. Zakrzewski, G. A. Voth, 
 P. Salvador, J. J. Dannenberg, S. Dapprich, A. D. Daniels, 
 O. Farkas, J. B. Foresman, J. V. Ortiz, J. Cioslowski, 
 and D. J. Fox, Gaussian, Inc., Wallingford CT, 2013.
 
 ******************************************
 Gaussian 09:  ES64L-G09RevD.01 24-Apr-2013
                30-Sep-2016 
 ******************************************
 %nosave
 %mem=6GB
 %nprocshared=2
 Will use up to    2 processors via shared memory.
 %chk=HNC0MP2full
 ------------------------------------
 # opt=tight MP2(full)/6-311++g** gfp
 ------------------------------------
 1/7=10,18=20,19=15,38=1/1,3;
 2/9=110,12=2,17=6,18=5,40=1/2;
 3/5=4,6=6,7=1111,11=9,16=1,24=100,25=1,30=1,71=1/1,2,3;
 4//1;
 5/5=2,38=5/2;
 8/6=4,10=90/1;
 9/15=2,16=-3/6;
 10/5=1/2;
 6/7=2,8=2,9=2,10=2/1;
 7/12=2/1,2,3,16;
 1/7=10,18=20,19=15/3(2);
 2/9=110/2;
 99//99;
 2/9=110/2;
 3/5=4,6=6,7=1111,11=9,16=1,25=1,30=1,71=1/1,2,3;
 4/5=5,16=3,69=1/1;
 5/5=2,38=5/2;
 8/6=4,10=90/1;
 9/15=2,16=-3/6;
 10/5=1/2;
 7/12=2/1,2,3,16;
 1/7=10,18=20,19=15/3(-8);
 2/9=110/2;
 6/7=2,8=2,9=2,10=2/1;
 99//99;
 -------
 HNC-HCN
 -------
 Symbolic Z-matrix:
 Charge =  0 Multiplicity = 1
 N
 C                    1    B1
 H                    2    B2       1    A1
       Variables:
  B1                    1.                       
  B2                    2.3                      
  A1                    0.                       
 
 Add virtual bond connecting atoms H3         and N1         Dist= 2.46D+00.

 GradGradGradGradGradGradGradGradGradGradGradGradGradGradGradGradGradGrad
 Berny optimization.
 Initialization pass.
                           ----------------------------
                           !    Initial Parameters    !
                           ! (Angstroms and Degrees)  !
 --------------------------                            --------------------------
 ! Name  Definition              Value          Derivative Info.                !
 --------------------------------------------------------------------------------
 ! R1    R(1,2)                  1.0            estimate D2E/DX2                !
 ! R2    R(1,3)                  1.3            estimate D2E/DX2                !
 ! A1    L(2,1,3,-1,-1)        180.0            estimate D2E/DX2                !
 ! A2    L(2,1,3,-2,-2)        180.0            estimate D2E/DX2                !
 --------------------------------------------------------------------------------
 Trust Radius=3.00D-01 FncErr=1.00D-07 GrdErr=1.00D-07
 Number of steps in this run=     20 maximum allowed number of steps=    100.
 GradGradGradGradGradGradGradGradGradGradGradGradGradGradGradGradGradGrad

                          Input orientation:                          
 ---------------------------------------------------------------------
 Center     Atomic      Atomic             Coordinates (Angstroms)
 Number     Number       Type             X           Y           Z
 ---------------------------------------------------------------------
      1          7           0        0.000000    0.000000    0.000000
      2          6           0        0.000000    0.000000    1.000000
      3          1           0        0.000000    0.000000   -1.300000
 ---------------------------------------------------------------------
                    Distance matrix (angstroms):
                    1          2          3
     1  N    0.000000
     2  C    1.000000   0.000000
     3  H    1.300000   2.300000   0.000000
 Stoichiometry    CHN
 Framework group  C*V[C*(CNH)]
 Deg. of freedom     2
 Full point group                 C*V     NOp   4
 Largest Abelian subgroup         C2V     NOp   4
 Largest concise Abelian subgroup C1      NOp   1
                         Standard orientation:                         
 ---------------------------------------------------------------------
 Center     Atomic      Atomic             Coordinates (Angstroms)
 Number     Number       Type             X           Y           Z
 ---------------------------------------------------------------------
      1          7           0        0.000000    0.000000    0.335714
      2          6           0        0.000000    0.000000   -0.664286
      3          1           0        0.000000    0.000000    1.635714
 ---------------------------------------------------------------------
 Rotational constants (GHZ):      0.0000000     53.3515517     53.3515517
 Standard basis: 6-311++G(d,p) (5D, 7F)
 AO basis set (Overlap normalization):
 Atom N1       Shell     1 S   6     bf    1 -     1          0.000000000000          0.000000000000          0.634408058897
      0.6293480000D+04  0.1969788147D-02
      0.9490440000D+03  0.1496128592D-01
      0.2187760000D+03  0.7350053084D-01
      0.6369160000D+02  0.2489367658D+00
      0.1882820000D+02  0.6024594331D+00
      0.2720230000D+01  0.2562017589D+00
 Atom N1       Shell     2 SP   3    bf    2 -     5          0.000000000000          0.000000000000          0.634408058897
      0.3063310000D+02  0.1119060795D+00  0.3831191864D-01
      0.7026140000D+01  0.9216666549D+00  0.2374031155D+00
      0.2112050000D+01 -0.2569191826D-02  0.8175923978D+00
 Atom N1       Shell     3 SP   1    bf    6 -     9          0.000000000000          0.000000000000          0.634408058897
      0.6840090000D+00  0.1000000000D+01  0.1000000000D+01
 Atom N1       Shell     4 SP   1    bf   10 -    13          0.000000000000          0.000000000000          0.634408058897
      0.2008780000D+00  0.1000000000D+01  0.1000000000D+01
 Atom N1       Shell     5 SP   1    bf   14 -    17          0.000000000000          0.000000000000          0.634408058897
      0.6390000000D-01  0.1000000000D+01  0.1000000000D+01
 Atom N1       Shell     6 D   1     bf   18 -    22          0.000000000000          0.000000000000          0.634408058897
      0.9130000000D+00  0.1000000000D+01
 Atom C2       Shell     7 S   6     bf   23 -    23          0.000000000000          0.000000000000         -1.255318073988
      0.4563240000D+04  0.1966650249D-02
      0.6820240000D+03  0.1523060193D-01
      0.1549730000D+03  0.7612690966D-01
      0.4445530000D+02  0.2608010331D+00
      0.1302900000D+02  0.6164620782D+00
      0.1827730000D+01  0.2210060280D+00
 Atom C2       Shell     8 SP   3    bf   24 -    27          0.000000000000          0.000000000000         -1.255318073988
      0.2096420000D+02  0.1146600807D+00  0.4024869267D-01
      0.4803310000D+01  0.9199996477D+00  0.2375939567D+00
      0.1459330000D+01 -0.3030682134D-02  0.8158538515D+00
 Atom C2       Shell     9 SP   1    bf   28 -    31          0.000000000000          0.000000000000         -1.255318073988
      0.4834560000D+00  0.1000000000D+01  0.1000000000D+01
 Atom C2       Shell    10 SP   1    bf   32 -    35          0.000000000000          0.000000000000         -1.255318073988
      0.1455850000D+00  0.1000000000D+01  0.1000000000D+01
 Atom C2       Shell    11 SP   1    bf   36 -    39          0.000000000000          0.000000000000         -1.255318073988
      0.4380000000D-01  0.1000000000D+01  0.1000000000D+01
 Atom C2       Shell    12 D   1     bf   40 -    44          0.000000000000          0.000000000000         -1.255318073988
      0.6260000000D+00  0.1000000000D+01
 Atom H3       Shell    13 S   3     bf   45 -    45          0.000000000000          0.000000000000          3.091052031649
      0.3386500000D+02  0.2549381454D-01
      0.5094790000D+01  0.1903731086D+00
      0.1158790000D+01  0.8521614860D+00
 Atom H3       Shell    14 S   1     bf   46 -    46          0.000000000000          0.000000000000          3.091052031649
      0.3258400000D+00  0.1000000000D+01
 Atom H3       Shell    15 S   1     bf   47 -    47          0.000000000000          0.000000000000          3.091052031649
      0.1027410000D+00  0.1000000000D+01
 Atom H3       Shell    16 S   1     bf   48 -    48          0.000000000000          0.000000000000          3.091052031649
      0.3600000000D-01  0.1000000000D+01
 Atom H3       Shell    17 P   1     bf   49 -    51          0.000000000000          0.000000000000          3.091052031649
      0.7500000000D+00  0.1000000000D+01
 There are    29 symmetry adapted cartesian basis functions of A1  symmetry.
 There are     2 symmetry adapted cartesian basis functions of A2  symmetry.
 There are    11 symmetry adapted cartesian basis functions of B1  symmetry.
 There are    11 symmetry adapted cartesian basis functions of B2  symmetry.
 There are    27 symmetry adapted basis functions of A1  symmetry.
 There are     2 symmetry adapted basis functions of A2  symmetry.
 There are    11 symmetry adapted basis functions of B1  symmetry.
 There are    11 symmetry adapted basis functions of B2  symmetry.
    51 basis functions,    81 primitive gaussians,    53 cartesian basis functions
     7 alpha electrons        7 beta electrons
       nuclear repulsion energy        26.4553207826 Hartrees.
 NAtoms=    3 NActive=    3 NUniq=    3 SFac= 1.00D+00 NAtFMM=   60 NAOKFM=F Big=F
 Integral buffers will be    131072 words long.
 Raffenetti 1 integral format.
 Two-electron integral symmetry is turned on.
 One-electron integrals computed using PRISM.
 NBasis=    51 RedAO= T EigKep=  1.79D-03  NBF=    27     2    11    11
 NBsUse=    51 1.00D-06 EigRej= -1.00D+00 NBFU=    27     2    11    11
 ExpMin= 3.60D-02 ExpMax= 6.29D+03 ExpMxC= 9.49D+02 IAcc=3 IRadAn=         5 AccDes= 0.00D+00
 Harris functional with IExCor=  205 and IRadAn=       5 diagonalized for initial guess.
 HarFok:  IExCor=  205 AccDes= 0.00D+00 IRadAn=         5 IDoV= 1 UseB2=F ITyADJ=14
 ICtDFT=  3500011 ScaDFX=  1.000000  1.000000  1.000000  1.000000
 FoFCou: FMM=F IPFlag=           0 FMFlag=      100000 FMFlg1=           0
         NFxFlg=           0 DoJE=T BraDBF=F KetDBF=T FulRan=T
         wScrn=  0.000000 ICntrl=     500 IOpCl=  0 I1Cent=   200000004 NGrid=           0
         NMat0=    1 NMatS0=      1 NMatT0=    0 NMatD0=    1 NMtDS0=    0 NMtDT0=    0
 Petite list used in FoFCou.
 Initial guess orbital symmetries:
       Occupied  (SG) (SG) (SG) (SG) (PI) (PI) (SG)
       Virtual   (SG) (PI) (PI) (SG) (PI) (PI) (SG) (SG) (PI) (PI)
                 (SG) (SG) (SG) (SG) (PI) (PI) (PI) (PI) (SG) (SG)
                 (SG) (DLTA) (DLTA) (SG) (PI) (PI) (PI) (PI) (SG)
                 (DLTA) (DLTA) (SG) (PI) (PI) (SG) (PI) (PI) (SG)
                 (SG) (PI) (PI) (SG) (SG) (SG)
 The electronic state of the initial guess is 1-SG.
 Keep R1 ints in memory in symmetry-blocked form, NReq=1746640.
 Requested convergence on RMS density matrix=1.00D-08 within 128 cycles.
 Requested convergence on MAX density matrix=1.00D-06.
 Requested convergence on             energy=1.00D-06.
 No special actions if energy rises.
 SCF Done:  E(RHF) =  -92.7520603033     A.U. after   10 cycles
            NFock= 10  Conv=0.91D-08     -V/T= 1.9919
 Range of M.O.s used for correlation:     1    51
 NBasis=    51 NAE=     7 NBE=     7 NFC=     0 NFV=     0
 NROrb=     51 NOA=     7 NOB=     7 NVA=    44 NVB=    44

 **** Warning!!: The largest alpha MO coefficient is  0.12022570D+02

 Fully direct method using O(ONN) memory.
 JobTyp=1 Pass  1:  I=   1 to   7 NPSUse=  2 ParTrn=T ParDer=T DoDerP=T.
 Spin components of T(2) and E(2):
     alpha-alpha T2 =       0.1116136961D-01 E2=     -0.3678612021D-01
     alpha-beta  T2 =       0.6966043441D-01 E2=     -0.2415465817D+00
     beta-beta   T2 =       0.1116136961D-01 E2=     -0.3678612021D-01
 ANorm=    0.1044979987D+01
 E2 =    -0.3151188221D+00 EUMP2 =    -0.93067179125394D+02
          IDoAtm=111
          Differentiating once with respect to electric field.
                with respect to dipole field.
          Differentiating once with respect to nuclear coordinates.
 Keep R1 ints in memory in symmetry-blocked form, NReq=1726982.
          There are     1 degrees of freedom in the 1st order CPHF.  IDoFFX=0 NUNeed=     1.
 LinEq1:  Iter=  0 NonCon=     1 RMS=6.97D-03 Max=3.92D-02 NDo=     1
 AX will form     1 AO Fock derivatives at one time.
 LinEq1:  Iter=  1 NonCon=     1 RMS=1.75D-03 Max=1.23D-02 NDo=     1
 LinEq1:  Iter=  2 NonCon=     1 RMS=4.73D-04 Max=3.29D-03 NDo=     1
 LinEq1:  Iter=  3 NonCon=     1 RMS=1.17D-04 Max=6.51D-04 NDo=     1
 LinEq1:  Iter=  4 NonCon=     1 RMS=4.45D-05 Max=3.33D-04 NDo=     1
 LinEq1:  Iter=  5 NonCon=     1 RMS=6.17D-06 Max=4.04D-05 NDo=     1
 LinEq1:  Iter=  6 NonCon=     1 RMS=7.73D-07 Max=4.37D-06 NDo=     1
 LinEq1:  Iter=  7 NonCon=     1 RMS=8.48D-08 Max=6.65D-07 NDo=     1
 LinEq1:  Iter=  8 NonCon=     1 RMS=8.96D-09 Max=8.13D-08 NDo=     1
 LinEq1:  Iter=  9 NonCon=     1 RMS=9.25D-10 Max=4.69D-09 NDo=     1
 LinEq1:  Iter= 10 NonCon=     0 RMS=8.70D-11 Max=5.66D-10 NDo=     1
 Linear equations converged to 1.000D-10 1.000D-09 after    10 iterations.
 End of Minotr F.D. properties file   721 does not exist.
 End of Minotr F.D. properties file   722 does not exist.
 End of Minotr F.D. properties file   788 does not exist.

 **********************************************************************

            Population analysis using the SCF density.

 **********************************************************************

 Orbital symmetries:
       Occupied  (SG) (SG) (SG) (SG) (PI) (PI) (SG)
       Virtual   (SG) (SG) (PI) (PI) (SG) (SG) (PI) (PI) (SG) (PI)
                 (PI) (SG) (SG) (SG) (PI) (PI) (PI) (PI) (SG) (SG)
                 (SG) (PI) (PI) (DLTA) (DLTA) (SG) (PI) (PI) (SG)
                 (DLTA) (DLTA) (SG) (SG) (PI) (PI) (PI) (PI) (SG)
                 (SG) (PI) (PI) (SG) (SG) (SG)
 The electronic state is 1-SG.
 Alpha  occ. eigenvalues --  -15.59094 -11.21394  -1.32986  -0.77301  -0.57188
 Alpha  occ. eigenvalues --   -0.57188  -0.44417
 Alpha virt. eigenvalues --    0.01759   0.09745   0.11820   0.11820   0.13870
 Alpha virt. eigenvalues --    0.14647   0.18177   0.18177   0.28932   0.32015
 Alpha virt. eigenvalues --    0.32015   0.35202   0.52983   0.57327   0.75360
 Alpha virt. eigenvalues --    0.75360   1.02134   1.02134   1.06575   1.11371
 Alpha virt. eigenvalues --    1.29261   1.49249   1.49249   1.53669   1.53669
 Alpha virt. eigenvalues --    1.55542   1.93100   1.93100   2.07949   2.42337
 Alpha virt. eigenvalues --    2.42337   2.66642   2.90750   3.09108   3.09108
 Alpha virt. eigenvalues --    3.21822   3.21822   3.37650   4.09166   4.40944
 Alpha virt. eigenvalues --    4.40944   5.21391  25.41457  37.50419
          Condensed to atoms (all electrons):
               1          2          3
     1  N    6.428725   0.568134   0.298512
     2  C    0.568134   5.555288  -0.000750
     3  H    0.298512  -0.000750   0.284193
 Mulliken charges:
               1
     1  N   -0.295371
     2  C   -0.122673
     3  H    0.418044
 Sum of Mulliken charges =   0.00000
 Mulliken charges with hydrogens summed into heavy atoms:
               1
     1  N    0.122673
     2  C   -0.122673
 Electronic spatial extent (au):  <R**2>=             46.1407
 Charge=              0.0000 electrons
 Dipole moment (field-independent basis, Debye):
    X=              0.0000    Y=              0.0000    Z=              4.4605  Tot=              4.4605
 Quadrupole moment (field-independent basis, Debye-Ang):
   XX=            -11.9810   YY=            -11.9810   ZZ=             -8.7409
   XY=              0.0000   XZ=              0.0000   YZ=              0.0000
 Traceless Quadrupole moment (field-independent basis, Debye-Ang):
   XX=             -1.0800   YY=             -1.0800   ZZ=              2.1600
   XY=              0.0000   XZ=              0.0000   YZ=              0.0000
 Octapole moment (field-independent basis, Debye-Ang**2):
  XXX=              0.0000  YYY=              0.0000  ZZZ=             19.9177  XYY=              0.0000
  XXY=              0.0000  XXZ=              1.5647  XZZ=              0.0000  YZZ=              0.0000
  YYZ=              1.5647  XYZ=              0.0000
 Hexadecapole moment (field-independent basis, Debye-Ang**3):
 XXXX=            -12.4541 YYYY=            -12.4541 ZZZZ=            -30.7467 XXXY=              0.0000
 XXXZ=              0.0000 YYYX=              0.0000 YYYZ=              0.0000 ZZZX=              0.0000
 ZZZY=              0.0000 XXYY=             -4.1514 XXZZ=             -9.7277 YYZZ=             -9.7277
 XXYZ=              0.0000 YYXZ=              0.0000 ZZXY=              0.0000
 N-N= 2.645532078262D+01 E-N=-2.709324725029D+02  KE= 9.350906375014D+01
 Symmetry A1   KE= 8.735048845987D+01
 Symmetry A2   KE=-9.871656539641D-52
 Symmetry B1   KE= 3.079287645139D+00
 Symmetry B2   KE= 3.079287645139D+00
 Calling FoFJK, ICntrl=  10002127 FMM=F ISym2X=1 I1Cent= 0 IOpClX= 0 NMat=1 NMatS=1 NMatT=0.
 ***** Axes restored to original set *****
 -------------------------------------------------------------------
 Center     Atomic                   Forces (Hartrees/Bohr)
 Number     Number              X              Y              Z
 -------------------------------------------------------------------
      1        7           0.000000000    0.000000000   -0.804380199
      2        6           0.000000000    0.000000000    0.675412736
      3        1           0.000000000    0.000000000    0.128967463
 -------------------------------------------------------------------
 Cartesian Forces:  Max     0.804380199 RMS     0.352742033

 GradGradGradGradGradGradGradGradGradGradGradGradGradGradGradGradGradGrad
 Berny optimization.
 FormGI is forming the generalized inverse of G from B-inverse, IUseBI=4.
 Internal  Forces:  Max     0.675412736 RMS     0.343807712
 Search for a local minimum.
 Step number   1 out of a maximum of   20
 All quantities printed in internal units (Hartrees-Bohrs-Radians)
 Mixed Optimization -- RFO/linear search
 Second derivative matrix not updated -- first step.
 The second derivative matrix:
                          R1        R2        A1        A2
           R1           3.32740
           R2           0.00000   0.18600
           A1           0.00000   0.00000   0.00230
           A2           0.00000   0.00000   0.00000   0.00230
 ITU=  0
     Eigenvalues ---    0.00230   0.00230   0.18600   3.32740
 RFO step:  Lambda=-1.76135565D-01 EMin= 2.30000000D-03
 Linear search not attempted -- first point.
 Maximum step size (   0.300) exceeded in Quadratic search.
    -- Step size scaled by   0.741
 Iteration  1 RMS(Cart)=  0.07283893 RMS(Int)=  0.03191294
 Iteration  2 RMS(Cart)=  0.02605681 RMS(Int)=  0.00000000
 Iteration  3 RMS(Cart)=  0.00000000 RMS(Int)=  0.00000000
 ClnCor:  largest displacement from symmetrization is 2.78D-17 for atom     1.
 Variable       Old X    -DE/DX   Delta X   Delta X   Delta X     New X
                                 (Linear)    (Quad)   (Total)
    R1        1.88973   0.67541   0.00000   0.14281   0.14281   2.03254
    R2        2.45664  -0.12897   0.00000  -0.26383  -0.26383   2.19282
    A1        3.14159   0.00000   0.00000   0.00000   0.00000   3.14159
    A2        3.14159   0.00000   0.00000   0.00000   0.00000   3.14159
         Item               Value     Threshold  Converged?
 Maximum Force            0.675413     0.000015     NO 
 RMS     Force            0.343808     0.000010     NO 
 Maximum Displacement     0.135547     0.000060     NO 
 RMS     Displacement     0.093383     0.000040     NO 
 Predicted change in Energy=-9.007767D-02
 GradGradGradGradGradGradGradGradGradGradGradGradGradGradGradGradGradGrad

                          Input orientation:                          
 ---------------------------------------------------------------------
 Center     Atomic      Atomic             Coordinates (Angstroms)
 Number     Number       Type             X           Y           Z
 ---------------------------------------------------------------------
      1          7           0        0.000000    0.000000   -0.071728
      2          6           0        0.000000    0.000000    1.003846
      3          1           0        0.000000    0.000000   -1.232118
 ---------------------------------------------------------------------
                    Distance matrix (angstroms):
                    1          2          3
     1  N    0.000000
     2  C    1.075574   0.000000
     3  H    1.160389   2.235963   0.000000
 Stoichiometry    CHN
 Framework group  C*V[C*(CNH)]
 Deg. of freedom     2
 Full point group                 C*V     NOp   4
 Largest Abelian subgroup         C2V     NOp   4
 Largest concise Abelian subgroup C1      NOp   1
                         Standard orientation:                         
 ---------------------------------------------------------------------
 Center     Atomic      Atomic             Coordinates (Angstroms)
 Number     Number       Type             X           Y           Z
 ---------------------------------------------------------------------
      1          7           0        0.000000    0.000000    0.378075
      2          6           0        0.000000    0.000000   -0.697499
      3          1           0        0.000000    0.000000    1.538465
 ---------------------------------------------------------------------
 Rotational constants (GHZ):      0.0000000     49.8453925     49.8453925
 Standard basis: 6-311++G(d,p) (5D, 7F)
 There are    29 symmetry adapted cartesian basis functions of A1  symmetry.
 There are     2 symmetry adapted cartesian basis functions of A2  symmetry.
 There are    11 symmetry adapted cartesian basis functions of B1  symmetry.
 There are    11 symmetry adapted cartesian basis functions of B2  symmetry.
 There are    27 symmetry adapted basis functions of A1  symmetry.
 There are     2 symmetry adapted basis functions of A2  symmetry.
 There are    11 symmetry adapted basis functions of B1  symmetry.
 There are    11 symmetry adapted basis functions of B2  symmetry.
    51 basis functions,    81 primitive gaussians,    53 cartesian basis functions
     7 alpha electrons        7 beta electrons
       nuclear repulsion energy        25.2760334378 Hartrees.
 NAtoms=    3 NActive=    3 NUniq=    3 SFac= 1.00D+00 NAtFMM=   60 NAOKFM=F Big=F
 Integral buffers will be    131072 words long.
 Raffenetti 1 integral format.
 Two-electron integral symmetry is turned on.
 One-electron integrals computed using PRISM.
 NBasis=    51 RedAO= T EigKep=  2.13D-03  NBF=    27     2    11    11
 NBsUse=    51 1.00D-06 EigRej= -1.00D+00 NBFU=    27     2    11    11
 Initial guess from the checkpoint file:  "HNC0MP2full.chk"
 B after Tr=     0.000000    0.000000    0.000000
         Rot=    1.000000    0.000000    0.000000    0.000000 Ang=   0.00 deg.
 Initial guess orbital symmetries:
       Occupied  (SG) (SG) (SG) (SG) (PI) (PI) (SG)
       Virtual   (SG) (SG) (SG) (SG) (SG) (SG) (SG) (DLTA) (SG)
                 (SG) (SG) (DLTA) (SG) (SG) (SG) (SG) (SG) (SG)
                 (SG) (SG) (SG) (SG) (DLTA) (DLTA) (PI) (PI) (PI)
                 (PI) (PI) (PI) (PI) (PI) (PI) (PI) (PI) (PI) (PI)
                 (PI) (PI) (PI) (PI) (PI) (PI) (PI)
 ExpMin= 3.60D-02 ExpMax= 6.29D+03 ExpMxC= 9.49D+02 IAcc=3 IRadAn=         5 AccDes= 0.00D+00
 Harris functional with IExCor=  205 and IRadAn=       5 diagonalized for initial guess.
 HarFok:  IExCor=  205 AccDes= 0.00D+00 IRadAn=         5 IDoV= 1 UseB2=F ITyADJ=14
 ICtDFT=  3500011 ScaDFX=  1.000000  1.000000  1.000000  1.000000
 FoFCou: FMM=F IPFlag=           0 FMFlag=      100000 FMFlg1=           0
         NFxFlg=           0 DoJE=T BraDBF=F KetDBF=T FulRan=T
         wScrn=  0.000000 ICntrl=     500 IOpCl=  0 I1Cent=   200000004 NGrid=           0
         NMat0=    1 NMatS0=      1 NMatT0=    0 NMatD0=    1 NMtDS0=    0 NMtDT0=    0
 Petite list used in FoFCou.
 Keep R1 ints in memory in symmetry-blocked form, NReq=1746653.
 Requested convergence on RMS density matrix=1.00D-08 within 128 cycles.
 Requested convergence on MAX density matrix=1.00D-06.
 Requested convergence on             energy=1.00D-06.
 No special actions if energy rises.
 SCF Done:  E(RHF) =  -92.8463880447     A.U. after   11 cycles
            NFock= 11  Conv=0.27D-08     -V/T= 1.9979
 Range of M.O.s used for correlation:     1    51
 NBasis=    51 NAE=     7 NBE=     7 NFC=     0 NFV=     0
 NROrb=     51 NOA=     7 NOB=     7 NVA=    44 NVB=    44
 Fully direct method using O(ONN) memory.
 JobTyp=1 Pass  1:  I=   1 to   7 NPSUse=  2 ParTrn=T ParDer=T DoDerP=T.
 Spin components of T(2) and E(2):
     alpha-alpha T2 =       0.1186722093D-01 E2=     -0.3748430687D-01
     alpha-beta  T2 =       0.7220527566D-01 E2=     -0.2448032785D+00
     beta-beta   T2 =       0.1186722093D-01 E2=     -0.3748430687D-01
 ANorm=    0.1046871395D+01
 E2 =    -0.3197718923D+00 EUMP2 =    -0.93166159937006D+02
          IDoAtm=111
          Differentiating once with respect to electric field.
                with respect to dipole field.
          Differentiating once with respect to nuclear coordinates.
 Keep R1 ints in memory in symmetry-blocked form, NReq=1726942.
          There are     1 degrees of freedom in the 1st order CPHF.  IDoFFX=0 NUNeed=     1.
 LinEq1:  Iter=  0 NonCon=     1 RMS=7.81D-03 Max=3.84D-02 NDo=     1
 AX will form     1 AO Fock derivatives at one time.
 LinEq1:  Iter=  1 NonCon=     1 RMS=2.23D-03 Max=1.72D-02 NDo=     1
 LinEq1:  Iter=  2 NonCon=     1 RMS=6.23D-04 Max=3.82D-03 NDo=     1
 LinEq1:  Iter=  3 NonCon=     1 RMS=2.31D-04 Max=1.27D-03 NDo=     1
 LinEq1:  Iter=  4 NonCon=     1 RMS=5.36D-05 Max=2.76D-04 NDo=     1
 LinEq1:  Iter=  5 NonCon=     1 RMS=5.08D-06 Max=2.40D-05 NDo=     1
 LinEq1:  Iter=  6 NonCon=     1 RMS=5.80D-07 Max=3.85D-06 NDo=     1
 LinEq1:  Iter=  7 NonCon=     1 RMS=5.45D-08 Max=3.96D-07 NDo=     1
 LinEq1:  Iter=  8 NonCon=     1 RMS=5.46D-09 Max=3.33D-08 NDo=     1
 LinEq1:  Iter=  9 NonCon=     1 RMS=6.56D-10 Max=2.84D-09 NDo=     1
 LinEq1:  Iter= 10 NonCon=     0 RMS=5.65D-11 Max=2.88D-10 NDo=     1
 Linear equations converged to 1.000D-10 1.000D-09 after    10 iterations.
 End of Minotr F.D. properties file   721 does not exist.
 End of Minotr F.D. properties file   722 does not exist.
 End of Minotr F.D. properties file   788 does not exist.
 Calling FoFJK, ICntrl=  10002127 FMM=F ISym2X=1 I1Cent= 0 IOpClX= 0 NMat=1 NMatS=1 NMatT=0.
 ***** Axes restored to original set *****
 -------------------------------------------------------------------
 Center     Atomic                   Forces (Hartrees/Bohr)
 Number     Number              X              Y              Z
 -------------------------------------------------------------------
      1        7           0.000000000    0.000000000   -0.403911134
      2        6           0.000000000    0.000000000    0.303526099
      3        1           0.000000000    0.000000000    0.100385035
 -------------------------------------------------------------------
 Cartesian Forces:  Max     0.403911134 RMS     0.171706938

 GradGradGradGradGradGradGradGradGradGradGradGradGradGradGradGradGradGrad
 Berny optimization.
 Using GEDIIS/GDIIS optimizer.
 Internal  Forces:  Max     0.303526099 RMS     0.159847778
 Search for a local minimum.
 Step number   2 out of a maximum of   20
 All quantities printed in internal units (Hartrees-Bohrs-Radians)
 Mixed Optimization -- RFO/linear search
 Update second derivatives using D2CorX and points    1    2
 DE= -9.90D-02 DEPred=-9.01D-02 R= 1.10D+00
 TightC=F SS=  1.41D+00  RLast= 3.00D-01 DXNew= 5.0454D-01 9.0000D-01
 Trust test= 1.10D+00 RLast= 3.00D-01 DXMaxT set to 5.05D-01
 The second derivative matrix:
                          R1        R2        A1        A2
           R1           2.81330
           R2           0.11330   0.16967
           A1           0.00000   0.00000   0.00230
           A2           0.00000   0.00000   0.00000   0.00230
 ITU=  1  0
 Use linear search instead of GDIIS.
     Eigenvalues ---    0.00230   0.00230   0.16482   2.81815
 RFO step:  Lambda=-8.27574779D-02 EMin= 2.30000000D-03
 Quartic linear search produced a step of  1.59333.
 Iteration  1 RMS(Cart)=  0.07510024 RMS(Int)=  0.35973986
 Iteration  2 RMS(Cart)=  0.08164966 RMS(Int)=  0.25973986
 Iteration  3 RMS(Cart)=  0.08164966 RMS(Int)=  0.15973986
 Iteration  4 RMS(Cart)=  0.08164966 RMS(Int)=  0.05973986
 Iteration  5 RMS(Cart)=  0.04877739 RMS(Int)=  0.00000000
 Iteration  6 RMS(Cart)=  0.00000000 RMS(Int)=  0.00000000
 ClnCor:  largest displacement from symmetrization is 2.22D-16 for atom     2.
 Variable       Old X    -DE/DX   Delta X   Delta X   Delta X     New X
                                 (Linear)    (Quad)   (Total)
    R1        2.03254   0.30353   0.22755  -0.06558   0.16197   2.19451
    R2        2.19282  -0.10039  -0.42036  -0.49912  -0.91948   1.27334
    A1        3.14159   0.00000   0.00000   0.00000   0.00000   3.14159
    A2        3.14159   0.00000   0.00000   0.00000   0.00000   3.14159
         Item               Value     Threshold  Converged?
 Maximum Force            0.303526     0.000015     NO 
 RMS     Force            0.159848     0.000010     NO 
 Maximum Displacement     0.558996     0.000060     NO 
 RMS     Displacement     0.347071     0.000040     NO 
 Predicted change in Energy=-4.971190D-02
 GradGradGradGradGradGradGradGradGradGradGradGradGradGradGradGradGradGrad

                          Input orientation:                          
 ---------------------------------------------------------------------
 Center     Atomic      Atomic             Coordinates (Angstroms)
 Number     Number       Type             X           Y           Z
 ---------------------------------------------------------------------
      1          7           0        0.000000    0.000000   -0.262488
      2          6           0        0.000000    0.000000    0.898797
      3          1           0        0.000000    0.000000   -0.936309
 ---------------------------------------------------------------------
                    Distance matrix (angstroms):
                    1          2          3
     1  N    0.000000
     2  C    1.161285   0.000000
     3  H    0.673822   1.835107   0.000000
 Stoichiometry    CHN
 Framework group  C*V[C*(CNH)]
 Deg. of freedom     2
 Full point group                 C*V     NOp   4
 Largest Abelian subgroup         C2V     NOp   4
 Largest concise Abelian subgroup C1      NOp   1
                         Standard orientation:                         
 ---------------------------------------------------------------------
 Center     Atomic      Atomic             Coordinates (Angstroms)
 Number     Number       Type             X           Y           Z
 ---------------------------------------------------------------------
      1          7           0        0.000000    0.000000    0.449563
      2          6           0        0.000000    0.000000   -0.711721
      3          1           0        0.000000    0.000000    1.123385
 ---------------------------------------------------------------------
 Rotational constants (GHZ):      0.0000000     49.8662918     49.8662918
 Standard basis: 6-311++G(d,p) (5D, 7F)
 There are    29 symmetry adapted cartesian basis functions of A1  symmetry.
 There are     2 symmetry adapted cartesian basis functions of A2  symmetry.
 There are    11 symmetry adapted cartesian basis functions of B1  symmetry.
 There are    11 symmetry adapted cartesian basis functions of B2  symmetry.
 There are    27 symmetry adapted basis functions of A1  symmetry.
 There are     2 symmetry adapted basis functions of A2  symmetry.
 There are    11 symmetry adapted basis functions of B1  symmetry.
 There are    11 symmetry adapted basis functions of B2  symmetry.
    51 basis functions,    81 primitive gaussians,    53 cartesian basis functions
     7 alpha electrons        7 beta electrons
       nuclear repulsion energy        26.3662053591 Hartrees.
 NAtoms=    3 NActive=    3 NUniq=    3 SFac= 1.00D+00 NAtFMM=   60 NAOKFM=F Big=F
 Integral buffers will be    131072 words long.
 Raffenetti 1 integral format.
 Two-electron integral symmetry is turned on.
 One-electron integrals computed using PRISM.
 NBasis=    51 RedAO= T EigKep=  1.67D-03  NBF=    27     2    11    11
 NBsUse=    51 1.00D-06 EigRej= -1.00D+00 NBFU=    27     2    11    11
 Initial guess from the checkpoint file:  "HNC0MP2full.chk"
 B after Tr=     0.000000    0.000000    0.000000
         Rot=    1.000000    0.000000    0.000000    0.000000 Ang=   0.00 deg.
 Initial guess orbital symmetries:
       Occupied  (SG) (SG) (SG) (SG) (PI) (PI) (SG)
       Virtual   (SG) (SG) (SG) (SG) (SG) (SG) (SG) (SG) (DLTA)
                 (SG) (DLTA) (SG) (SG) (SG) (SG) (SG) (SG) (SG)
                 (SG) (SG) (SG) (SG) (DLTA) (DLTA) (PI) (PI) (PI)
                 (PI) (PI) (PI) (PI) (PI) (PI) (PI) (PI) (PI) (PI)
                 (PI) (PI) (PI) (PI) (PI) (PI) (PI)
 ExpMin= 3.60D-02 ExpMax= 6.29D+03 ExpMxC= 9.49D+02 IAcc=3 IRadAn=         5 AccDes= 0.00D+00
 Harris functional with IExCor=  205 and IRadAn=       5 diagonalized for initial guess.
 HarFok:  IExCor=  205 AccDes= 0.00D+00 IRadAn=         5 IDoV= 1 UseB2=F ITyADJ=14
 ICtDFT=  3500011 ScaDFX=  1.000000  1.000000  1.000000  1.000000
 FoFCou: FMM=F IPFlag=           0 FMFlag=      100000 FMFlg1=           0
         NFxFlg=           0 DoJE=T BraDBF=F KetDBF=T FulRan=T
         wScrn=  0.000000 ICntrl=     500 IOpCl=  0 I1Cent=   200000004 NGrid=           0
         NMat0=    1 NMatS0=      1 NMatT0=    0 NMatD0=    1 NMtDS0=    0 NMtDT0=    0
 Petite list used in FoFCou.
 Keep R1 ints in memory in symmetry-blocked form, NReq=1746682.
 Requested convergence on RMS density matrix=1.00D-08 within 128 cycles.
 Requested convergence on MAX density matrix=1.00D-06.
 Requested convergence on             energy=1.00D-06.
 No special actions if energy rises.
 SCF Done:  E(RHF) =  -92.6787290889     A.U. after   11 cycles
            NFock= 11  Conv=0.59D-08     -V/T= 1.9880
 Range of M.O.s used for correlation:     1    51
 NBasis=    51 NAE=     7 NBE=     7 NFC=     0 NFV=     0
 NROrb=     51 NOA=     7 NOB=     7 NVA=    44 NVB=    44

 **** Warning!!: The largest alpha MO coefficient is  0.13303975D+02

 Fully direct method using O(ONN) memory.
 JobTyp=1 Pass  1:  I=   1 to   7 NPSUse=  2 ParTrn=T ParDer=T DoDerP=T.
 Spin components of T(2) and E(2):
     alpha-alpha T2 =       0.1203130766D-01 E2=     -0.3763343003D-01
     alpha-beta  T2 =       0.7133532515D-01 E2=     -0.2430052690D+00
     beta-beta   T2 =       0.1203130766D-01 E2=     -0.3763343003D-01
 ANorm=    0.1046612603D+01
 E2 =    -0.3182721291D+00 EUMP2 =    -0.92997001218000D+02
          IDoAtm=111
          Differentiating once with respect to electric field.
                with respect to dipole field.
          Differentiating once with respect to nuclear coordinates.
 Keep R1 ints in memory in symmetry-blocked form, NReq=1726980.
          There are     1 degrees of freedom in the 1st order CPHF.  IDoFFX=0 NUNeed=     1.
 LinEq1:  Iter=  0 NonCon=     1 RMS=9.34D-03 Max=6.75D-02 NDo=     1
 AX will form     1 AO Fock derivatives at one time.
 LinEq1:  Iter=  1 NonCon=     1 RMS=3.00D-03 Max=2.48D-02 NDo=     1
 LinEq1:  Iter=  2 NonCon=     1 RMS=1.06D-03 Max=6.46D-03 NDo=     1
 LinEq1:  Iter=  3 NonCon=     1 RMS=2.93D-04 Max=1.52D-03 NDo=     1
 LinEq1:  Iter=  4 NonCon=     1 RMS=5.17D-05 Max=4.77D-04 NDo=     1
 LinEq1:  Iter=  5 NonCon=     1 RMS=5.99D-06 Max=3.32D-05 NDo=     1
 LinEq1:  Iter=  6 NonCon=     1 RMS=6.97D-07 Max=5.89D-06 NDo=     1
 LinEq1:  Iter=  7 NonCon=     1 RMS=7.90D-08 Max=4.57D-07 NDo=     1
 LinEq1:  Iter=  8 NonCon=     1 RMS=6.49D-09 Max=5.16D-08 NDo=     1
 LinEq1:  Iter=  9 NonCon=     1 RMS=5.82D-10 Max=3.86D-09 NDo=     1
 LinEq1:  Iter= 10 NonCon=     0 RMS=4.55D-11 Max=2.69D-10 NDo=     1
 Linear equations converged to 1.000D-10 1.000D-09 after    10 iterations.
 End of Minotr F.D. properties file   721 does not exist.
 End of Minotr F.D. properties file   722 does not exist.
 End of Minotr F.D. properties file   788 does not exist.
 Calling FoFJK, ICntrl=  10002127 FMM=F ISym2X=1 I1Cent= 0 IOpClX= 0 NMat=1 NMatS=1 NMatT=0.
 ***** Axes restored to original set *****
 -------------------------------------------------------------------
 Center     Atomic                   Forces (Hartrees/Bohr)
 Number     Number              X              Y              Z
 -------------------------------------------------------------------
      1        7           0.000000000    0.000000000    0.976768524
      2        6           0.000000000    0.000000000    0.023897330
      3        1           0.000000000    0.000000000   -1.000665854
 -------------------------------------------------------------------
 Cartesian Forces:  Max     1.000665854 RMS     0.466187848

 GradGradGradGradGradGradGradGradGradGradGradGradGradGradGradGradGradGrad
 Berny optimization.
 Using GEDIIS/GDIIS optimizer.
 Internal  Forces:  Max     1.000665854 RMS     0.500475582
 Search for a local minimum.
 Step number   3 out of a maximum of   20
 All quantities printed in internal units (Hartrees-Bohrs-Radians)
 Mixed Optimization -- RFO/linear search
 Update second derivatives using D2CorX and points    1    3    2
 DE=  1.69D-01 DEPred=-4.97D-02 R=-3.40D+00
 Trust test=-3.40D+00 RLast= 9.34D-01 DXMaxT set to 2.52D-01
 The second derivative matrix:
                          R1        R2        A1        A2
           R1           2.21397
           R2           0.08588   1.21260
           A1           0.00000   0.00000   0.00230
           A2           0.00000   0.00000   0.00000   0.00230
 ITU= -1  1  0
 Use linear search instead of GDIIS.
     Eigenvalues ---    0.00230   0.00230   1.20529   2.22129
 RFO step:  Lambda=-2.70094185D-02 EMin= 2.30000000D-03
 Quartic linear search produced a step of -0.57464.
 Iteration  1 RMS(Cart)=  0.08461492 RMS(Int)=  0.17766712
 Iteration  2 RMS(Cart)=  0.08164966 RMS(Int)=  0.07766712
 Iteration  3 RMS(Cart)=  0.06341494 RMS(Int)=  0.00000000
 Iteration  4 RMS(Cart)=  0.00000000 RMS(Int)=  0.00000000
 ClnCor:  largest displacement from symmetrization is 0.00D+00 for atom     0.
 Variable       Old X    -DE/DX   Delta X   Delta X   Delta X     New X
                                 (Linear)    (Quad)   (Total)
    R1        2.19451   0.02390  -0.09307   0.10691   0.01383   2.20834
    R2        1.27334   1.00067   0.52837   0.02697   0.55533   1.82867
    A1        3.14159   0.00000   0.00000   0.00000   0.00000   3.14159
    A2        3.14159   0.00000   0.00000   0.00000   0.00000   3.14159
         Item               Value     Threshold  Converged?
 Maximum Force            1.000666     0.000015     NO 
 RMS     Force            0.500476     0.000010     NO 
 Maximum Displacement     0.374834     0.000060     NO 
 RMS     Displacement     0.229590     0.000040     NO 
 Predicted change in Energy=-1.990236D-01
 GradGradGradGradGradGradGradGradGradGradGradGradGradGradGradGradGradGrad

                          Input orientation:                          
 ---------------------------------------------------------------------
 Center     Atomic      Atomic             Coordinates (Angstroms)
 Number     Number       Type             X           Y           Z
 ---------------------------------------------------------------------
      1          7           0        0.000000    0.000000   -0.166971
      2          6           0        0.000000    0.000000    1.001634
      3          1           0        0.000000    0.000000   -1.134663
 ---------------------------------------------------------------------
                    Distance matrix (angstroms):
                    1          2          3
     1  N    0.000000
     2  C    1.168605   0.000000
     3  H    0.967692   2.136297   0.000000
 Stoichiometry    CHN
 Framework group  C*V[C*(CNH)]
 Deg. of freedom     2
 Full point group                 C*V     NOp   4
 Largest Abelian subgroup         C2V     NOp   4
 Largest concise Abelian subgroup C1      NOp   1
                         Standard orientation:                         
 ---------------------------------------------------------------------
 Center     Atomic      Atomic             Coordinates (Angstroms)
 Number     Number       Type             X           Y           Z
 ---------------------------------------------------------------------
      1          7           0        0.000000    0.000000    0.431710
      2          6           0        0.000000    0.000000   -0.736895
      3          1           0        0.000000    0.000000    1.399402
 ---------------------------------------------------------------------
 Rotational constants (GHZ):      0.0000000     45.8252592     45.8252592
 Standard basis: 6-311++G(d,p) (5D, 7F)
 There are    29 symmetry adapted cartesian basis functions of A1  symmetry.
 There are     2 symmetry adapted cartesian basis functions of A2  symmetry.
 There are    11 symmetry adapted cartesian basis functions of B1  symmetry.
 There are    11 symmetry adapted cartesian basis functions of B2  symmetry.
 There are    27 symmetry adapted basis functions of A1  symmetry.
 There are     2 symmetry adapted basis functions of A2  symmetry.
 There are    11 symmetry adapted basis functions of B1  symmetry.
 There are    11 symmetry adapted basis functions of B2  symmetry.
    51 basis functions,    81 primitive gaussians,    53 cartesian basis functions
     7 alpha electrons        7 beta electrons
       nuclear repulsion energy        24.3329349848 Hartrees.
 NAtoms=    3 NActive=    3 NUniq=    3 SFac= 1.00D+00 NAtFMM=   60 NAOKFM=F Big=F
 Integral buffers will be    131072 words long.
 Raffenetti 1 integral format.
 Two-electron integral symmetry is turned on.
 One-electron integrals computed using PRISM.
 NBasis=    51 RedAO= T EigKep=  2.42D-03  NBF=    27     2    11    11
 NBsUse=    51 1.00D-06 EigRej= -1.00D+00 NBFU=    27     2    11    11
 Lowest energy guess from the checkpoint file:  "HNC0MP2full.chk"
 B after Tr=     0.000000    0.000000    0.000000
         Rot=    1.000000    0.000000    0.000000    0.000000 Ang=   0.00 deg.
 B after Tr=     0.000000    0.000000    0.000000
         Rot=    1.000000    0.000000    0.000000    0.000000 Ang=   0.00 deg.
 Initial guess orbital symmetries:
       Occupied  (SG) (PI) (PI) (SG) (SG) (SG) (SG)
       Virtual   (SG) (PI) (PI) (SG) (SG) (SG) (SG) (SG) (DLTA)
                 (SG) (DLTA) (SG) (SG) (SG) (SG) (SG) (SG) (SG)
                 (SG) (SG) (SG) (SG) (DLTA) (DLTA) (?A) (?A) (?A)
                 (PI) (?A) (?A) (PI) (PI) (PI) (?A) (?A) (?A) (?A)
                 (PI) (?A) (?A) (PI) (PI) (PI) (?A)
 Keep R1 ints in memory in symmetry-blocked form, NReq=1746638.
 Requested convergence on RMS density matrix=1.00D-08 within 128 cycles.
 Requested convergence on MAX density matrix=1.00D-06.
 Requested convergence on             energy=1.00D-06.
 No special actions if energy rises.
 An orbital has undefined symmetry, so N**3 symmetry is turned off.
 SCF Done:  E(RHF) =  -92.8835234737     A.U. after   10 cycles
            NFock= 10  Conv=0.27D-08     -V/T= 2.0010
 Range of M.O.s used for correlation:     1    51
 NBasis=    51 NAE=     7 NBE=     7 NFC=     0 NFV=     0
 NROrb=     51 NOA=     7 NOB=     7 NVA=    44 NVB=    44

 **** Warning!!: The largest alpha MO coefficient is  0.11974555D+02

 Fully direct method using O(ONN) memory.
 JobTyp=1 Pass  1:  I=   1 to   7 NPSUse=  2 ParTrn=T ParDer=T DoDerP=T.
 Spin components of T(2) and E(2):
     alpha-alpha T2 =       0.1286210580D-01 E2=     -0.3845704754D-01
     alpha-beta  T2 =       0.7636531473D-01 E2=     -0.2491376279D+00
     beta-beta   T2 =       0.1286210580D-01 E2=     -0.3845704754D-01
 ANorm=    0.1049804518D+01
 E2 =    -0.3260517230D+00 EUMP2 =    -0.93209575196707D+02
          IDoAtm=111
          Differentiating once with respect to electric field.
                with respect to dipole field.
          Differentiating once with respect to nuclear coordinates.
 Keep R1 ints in memory in canonical form, NReq=1722310.
          There are     1 degrees of freedom in the 1st order CPHF.  IDoFFX=0 NUNeed=     1.
 LinEq1:  Iter=  0 NonCon=     1 RMS=9.55D-03 Max=5.97D-02 NDo=     1
 AX will form     1 AO Fock derivatives at one time.
 LinEq1:  Iter=  1 NonCon=     1 RMS=3.03D-03 Max=2.44D-02 NDo=     1
 LinEq1:  Iter=  2 NonCon=     1 RMS=1.06D-03 Max=4.99D-03 NDo=     1
 LinEq1:  Iter=  3 NonCon=     1 RMS=3.60D-04 Max=1.89D-03 NDo=     1
 LinEq1:  Iter=  4 NonCon=     1 RMS=6.76D-05 Max=5.14D-04 NDo=     1
 LinEq1:  Iter=  5 NonCon=     1 RMS=7.61D-06 Max=4.13D-05 NDo=     1
 LinEq1:  Iter=  6 NonCon=     1 RMS=8.43D-07 Max=6.99D-06 NDo=     1
 LinEq1:  Iter=  7 NonCon=     1 RMS=9.12D-08 Max=5.88D-07 NDo=     1
 LinEq1:  Iter=  8 NonCon=     1 RMS=8.88D-09 Max=7.93D-08 NDo=     1
 LinEq1:  Iter=  9 NonCon=     1 RMS=7.80D-10 Max=4.64D-09 NDo=     1
 LinEq1:  Iter= 10 NonCon=     0 RMS=6.95D-11 Max=4.82D-10 NDo=     1
 Linear equations converged to 1.000D-10 1.000D-09 after    10 iterations.
 End of Minotr F.D. properties file   721 does not exist.
 End of Minotr F.D. properties file   722 does not exist.
 End of Minotr F.D. properties file   788 does not exist.
 Calling FoFJK, ICntrl=  10002127 FMM=F ISym2X=1 I1Cent= 0 IOpClX= 0 NMat=1 NMatS=1 NMatT=0.
 ***** Axes restored to original set *****
 -------------------------------------------------------------------
 Center     Atomic                   Forces (Hartrees/Bohr)
 Number     Number              X              Y              Z
 -------------------------------------------------------------------
      1        7           0.000000000    0.000000000    0.011065359
      2        6           0.000000000    0.000000000    0.023436720
      3        1           0.000000000    0.000000000   -0.034502079
 -------------------------------------------------------------------
 Cartesian Forces:  Max     0.034502079 RMS     0.014384079

 GradGradGradGradGradGradGradGradGradGradGradGradGradGradGradGradGradGrad
 Berny optimization.
 Using GEDIIS/GDIIS optimizer.
 Internal  Forces:  Max     0.034502079 RMS     0.020854696
 Search for a local minimum.
 Step number   4 out of a maximum of   20
 All quantities printed in internal units (Hartrees-Bohrs-Radians)
 Mixed Optimization -- RFO/linear search
 Update second derivatives using D2CorX and points    3    2    4
 DE= -4.34D-02 DEPred=-1.99D-01 R= 2.18D-01
 Trust test= 2.18D-01 RLast= 4.04D-01 DXMaxT set to 2.52D-01
 The second derivative matrix:
                          R1        R2        A1        A2
           R1           2.45606
           R2           0.41658   0.57154
           A1           0.00000   0.00000   0.00230
           A2           0.00000   0.00000   0.00000   0.00230
 ITU=  0 -1  1  0
 Use linear search instead of GDIIS.
     Eigenvalues ---    0.00230   0.00230   0.48356   2.54404
 RFO step:  Lambda=-1.24564706D-03 EMin= 2.30000000D-03
 Quartic linear search produced a step of -0.07434.
 Iteration  1 RMS(Cart)=  0.02276137 RMS(Int)=  0.00000000
 Iteration  2 RMS(Cart)=  0.00000000 RMS(Int)=  0.00000000
 ClnCor:  largest displacement from symmetrization is 2.95D-12 for atom     1.
 Variable       Old X    -DE/DX   Delta X   Delta X   Delta X     New X
                                 (Linear)    (Quad)   (Total)
    R1        2.20834   0.02344  -0.01307   0.01370   0.00063   2.20897
    R2        1.82867   0.03450   0.02707   0.02837   0.05544   1.88411
    A1        3.14159   0.00000   0.00000   0.00000   0.00000   3.14159
    A2        3.14159   0.00000   0.00000   0.00000   0.00000   3.14159
         Item               Value     Threshold  Converged?
 Maximum Force            0.034502     0.000015     NO 
 RMS     Force            0.020855     0.000010     NO 
 Maximum Displacement     0.037167     0.000060     NO 
 RMS     Displacement     0.022761     0.000040     NO 
 Predicted change in Energy=-1.034178D-03
 GradGradGradGradGradGradGradGradGradGradGradGradGradGradGradGradGradGrad

                          Input orientation:                          
 ---------------------------------------------------------------------
 Center     Atomic      Atomic             Coordinates (Angstroms)
 Number     Number       Type             X           Y           Z
 ---------------------------------------------------------------------
      1          7           0        0.000000    0.000000   -0.157303
      2          6           0        0.000000    0.000000    1.011634
      3          1           0        0.000000    0.000000   -1.154331
 ---------------------------------------------------------------------
                    Distance matrix (angstroms):
                    1          2          3
     1  N    0.000000
     2  C    1.168938   0.000000
     3  H    0.997028   2.165966   0.000000
 Stoichiometry    CHN
 Framework group  C*V[C*(CNH)]
 Deg. of freedom     2
 Full point group                 C*V     NOp   4
 Largest Abelian subgroup         C2V     NOp   4
 Largest concise Abelian subgroup C1      NOp   1
                         Standard orientation:                         
 ---------------------------------------------------------------------
 Center     Atomic      Atomic             Coordinates (Angstroms)
 Number     Number       Type             X           Y           Z
 ---------------------------------------------------------------------
      1          7           0        0.000000    0.000000    0.429757
      2          6           0        0.000000    0.000000   -0.739181
      3          1           0        0.000000    0.000000    1.426785
 ---------------------------------------------------------------------
 Rotational constants (GHZ):      0.0000000     45.4457430     45.4457430
 Standard basis: 6-311++G(d,p) (5D, 7F)
 There are    29 symmetry adapted cartesian basis functions of A1  symmetry.
 There are     2 symmetry adapted cartesian basis functions of A2  symmetry.
 There are    11 symmetry adapted cartesian basis functions of B1  symmetry.
 There are    11 symmetry adapted cartesian basis functions of B2  symmetry.
 There are    27 symmetry adapted basis functions of A1  symmetry.
 There are     2 symmetry adapted basis functions of A2  symmetry.
 There are    11 symmetry adapted basis functions of B1  symmetry.
 There are    11 symmetry adapted basis functions of B2  symmetry.
    51 basis functions,    81 primitive gaussians,    53 cartesian basis functions
     7 alpha electrons        7 beta electrons
       nuclear repulsion energy        24.1945388466 Hartrees.
 NAtoms=    3 NActive=    3 NUniq=    3 SFac= 1.00D+00 NAtFMM=   60 NAOKFM=F Big=F
 Integral buffers will be    131072 words long.
 Raffenetti 1 integral format.
 Two-electron integral symmetry is turned on.
 One-electron integrals computed using PRISM.
 NBasis=    51 RedAO= T EigKep=  2.48D-03  NBF=    27     2    11    11
 NBsUse=    51 1.00D-06 EigRej= -1.00D+00 NBFU=    27     2    11    11
 Initial guess from the checkpoint file:  "HNC0MP2full.chk"
 B after Tr=     0.000000    0.000000    0.000000
         Rot=    1.000000    0.000000    0.000000    0.000000 Ang=   0.00 deg.
 Initial guess orbital symmetries:
       Occupied  (SG) (SG) (SG) (SG) (PI) (PI) (SG)
       Virtual   (SG) (SG) (SG) (SG) (SG) (SG) (SG) (SG) (DLTA)
                 (SG) (DLTA) (SG) (SG) (SG) (SG) (SG) (SG) (SG)
                 (SG) (SG) (SG) (SG) (DLTA) (DLTA) (PI) (PI) (PI)
                 (PI) (PI) (PI) (PI) (PI) (PI) (PI) (PI) (PI) (PI)
                 (PI) (PI) (PI) (PI) (PI) (PI) (PI)
 ExpMin= 3.60D-02 ExpMax= 6.29D+03 ExpMxC= 9.49D+02 IAcc=3 IRadAn=         5 AccDes= 0.00D+00
 Harris functional with IExCor=  205 and IRadAn=       5 diagonalized for initial guess.
 HarFok:  IExCor=  205 AccDes= 0.00D+00 IRadAn=         5 IDoV= 1 UseB2=F ITyADJ=14
 ICtDFT=  3500011 ScaDFX=  1.000000  1.000000  1.000000  1.000000
 FoFCou: FMM=F IPFlag=           0 FMFlag=      100000 FMFlg1=           0
         NFxFlg=           0 DoJE=T BraDBF=F KetDBF=T FulRan=T
         wScrn=  0.000000 ICntrl=     500 IOpCl=  0 I1Cent=   200000004 NGrid=           0
         NMat0=    1 NMatS0=      1 NMatT0=    0 NMatD0=    1 NMtDS0=    0 NMtDT0=    0
 Petite list used in FoFCou.
 Keep R1 ints in memory in symmetry-blocked form, NReq=1746638.
 Requested convergence on RMS density matrix=1.00D-08 within 128 cycles.
 Requested convergence on MAX density matrix=1.00D-06.
 Requested convergence on             energy=1.00D-06.
 No special actions if energy rises.
 An orbital has undefined symmetry, so N**3 symmetry is turned off.
 SCF Done:  E(RHF) =  -92.8837075039     A.U. after    9 cycles
            NFock=  9  Conv=0.60D-08     -V/T= 2.0016
 Range of M.O.s used for correlation:     1    51
 NBasis=    51 NAE=     7 NBE=     7 NFC=     0 NFV=     0
 NROrb=     51 NOA=     7 NOB=     7 NVA=    44 NVB=    44

 **** Warning!!: The largest alpha MO coefficient is  0.11553105D+02

 Fully direct method using O(ONN) memory.
 JobTyp=1 Pass  1:  I=   1 to   7 NPSUse=  2 ParTrn=T ParDer=T DoDerP=T.
 Spin components of T(2) and E(2):
     alpha-alpha T2 =       0.1295348429D-01 E2=     -0.3855191892D-01
     alpha-beta  T2 =       0.7695390412D-01 E2=     -0.2497801857D+00
     beta-beta   T2 =       0.1295348429D-01 E2=     -0.3855191892D-01
 ANorm=    0.1050171830D+01
 E2 =    -0.3268840235D+00 EUMP2 =    -0.93210591527432D+02
          IDoAtm=111
          Differentiating once with respect to electric field.
                with respect to dipole field.
          Differentiating once with respect to nuclear coordinates.
 Keep R1 ints in memory in canonical form, NReq=1722310.
          There are     1 degrees of freedom in the 1st order CPHF.  IDoFFX=0 NUNeed=     1.
 LinEq1:  Iter=  0 NonCon=     1 RMS=9.59D-03 Max=6.29D-02 NDo=     1
 AX will form     1 AO Fock derivatives at one time.
 LinEq1:  Iter=  1 NonCon=     1 RMS=3.05D-03 Max=2.43D-02 NDo=     1
 LinEq1:  Iter=  2 NonCon=     1 RMS=1.06D-03 Max=5.78D-03 NDo=     1
 LinEq1:  Iter=  3 NonCon=     1 RMS=3.68D-04 Max=2.06D-03 NDo=     1
 LinEq1:  Iter=  4 NonCon=     1 RMS=6.96D-05 Max=5.02D-04 NDo=     1
 LinEq1:  Iter=  5 NonCon=     1 RMS=7.79D-06 Max=4.30D-05 NDo=     1
 LinEq1:  Iter=  6 NonCon=     1 RMS=8.61D-07 Max=7.08D-06 NDo=     1
 LinEq1:  Iter=  7 NonCon=     1 RMS=9.28D-08 Max=6.01D-07 NDo=     1
 LinEq1:  Iter=  8 NonCon=     1 RMS=9.18D-09 Max=8.17D-08 NDo=     1
 LinEq1:  Iter=  9 NonCon=     1 RMS=8.12D-10 Max=4.54D-09 NDo=     1
 LinEq1:  Iter= 10 NonCon=     0 RMS=7.35D-11 Max=4.80D-10 NDo=     1
 Linear equations converged to 1.000D-10 1.000D-09 after    10 iterations.
 End of Minotr F.D. properties file   721 does not exist.
 End of Minotr F.D. properties file   722 does not exist.
 End of Minotr F.D. properties file   788 does not exist.
 Calling FoFJK, ICntrl=  10002127 FMM=F ISym2X=1 I1Cent= 0 IOpClX= 0 NMat=1 NMatS=1 NMatT=0.
 ***** Axes restored to original set *****
 -------------------------------------------------------------------
 Center     Atomic                   Forces (Hartrees/Bohr)
 Number     Number              X              Y              Z
 -------------------------------------------------------------------
      1        7           0.000000000    0.000000000   -0.021315765
      2        6           0.000000000    0.000000000    0.023914419
      3        1           0.000000000    0.000000000   -0.002598655
 -------------------------------------------------------------------
 Cartesian Forces:  Max     0.023914419 RMS     0.010713513

 GradGradGradGradGradGradGradGradGradGradGradGradGradGradGradGradGradGrad
 Berny optimization.
 Using GEDIIS/GDIIS optimizer.
 Internal  Forces:  Max     0.023914419 RMS     0.012027598
 Search for a local minimum.
 Step number   5 out of a maximum of   20
 All quantities printed in internal units (Hartrees-Bohrs-Radians)
 Mixed Optimization -- RFO/linear search
 Update second derivatives using D2CorX and points    2    4    5
 DE= -1.02D-03 DEPred=-1.03D-03 R= 9.83D-01
 TightC=F SS=  1.41D+00  RLast= 5.54D-02 DXNew= 4.2426D-01 1.6632D-01
 Trust test= 9.83D-01 RLast= 5.54D-02 DXMaxT set to 2.52D-01
 The second derivative matrix:
                          R1        R2        A1        A2
           R1           1.98291
           R2          -0.03108   0.57584
           A1           0.00000   0.00000   0.00230
           A2           0.00000   0.00000   0.00000   0.00230
 ITU=  1  0 -1  1  0
 Use linear search instead of GDIIS.
     Eigenvalues ---    0.00230   0.00230   0.57516   1.98359
 RFO step:  Lambda=-2.89628203D-04 EMin= 2.30000000D-03
 Quartic linear search produced a step of  0.09980.
 Iteration  1 RMS(Cart)=  0.00645090 RMS(Int)=  0.00000000
 Iteration  2 RMS(Cart)=  0.00000000 RMS(Int)=  0.00000001
 ClnCor:  largest displacement from symmetrization is 7.73D-12 for atom     1.
 Variable       Old X    -DE/DX   Delta X   Delta X   Delta X     New X
                                 (Linear)    (Quad)   (Total)
    R1        2.20897   0.02391   0.00006   0.01209   0.01215   2.22112
    R2        1.88411   0.00260   0.00553   0.00018   0.00571   1.88982
    A1        3.14159   0.00000   0.00000   0.00000   0.00000   3.14159
    A2        3.14159   0.00000   0.00000   0.00000   0.00000   3.14159
         Item               Value     Threshold  Converged?
 Maximum Force            0.023914     0.000015     NO 
 RMS     Force            0.012028     0.000010     NO 
 Maximum Displacement     0.010004     0.000060     NO 
 RMS     Displacement     0.006451     0.000040     NO 
 Predicted change in Energy=-1.518055D-04
 GradGradGradGradGradGradGradGradGradGradGradGradGradGradGradGradGradGrad

                          Input orientation:                          
 ---------------------------------------------------------------------
 Center     Atomic      Atomic             Coordinates (Angstroms)
 Number     Number       Type             X           Y           Z
 ---------------------------------------------------------------------
      1          7           0        0.000000    0.000000   -0.158439
      2          6           0        0.000000    0.000000    1.016929
      3          1           0        0.000000    0.000000   -1.158490
 ---------------------------------------------------------------------
                    Distance matrix (angstroms):
                    1          2          3
     1  N    0.000000
     2  C    1.175367   0.000000
     3  H    1.000051   2.175419   0.000000
 Stoichiometry    CHN
 Framework group  C*V[C*(CNH)]
 Deg. of freedom     2
 Full point group                 C*V     NOp   4
 Largest Abelian subgroup         C2V     NOp   4
 Largest concise Abelian subgroup C1      NOp   1
                         Standard orientation:                         
 ---------------------------------------------------------------------
 Center     Atomic      Atomic             Coordinates (Angstroms)
 Number     Number       Type             X           Y           Z
 ---------------------------------------------------------------------
      1          7           0        0.000000    0.000000    0.432297
      2          6           0        0.000000    0.000000   -0.743071
      3          1           0        0.000000    0.000000    1.432348
 ---------------------------------------------------------------------
 Rotational constants (GHZ):      0.0000000     44.9793967     44.9793967
 Standard basis: 6-311++G(d,p) (5D, 7F)
 There are    29 symmetry adapted cartesian basis functions of A1  symmetry.
 There are     2 symmetry adapted cartesian basis functions of A2  symmetry.
 There are    11 symmetry adapted cartesian basis functions of B1  symmetry.
 There are    11 symmetry adapted cartesian basis functions of B2  symmetry.
 There are    27 symmetry adapted basis functions of A1  symmetry.
 There are     2 symmetry adapted basis functions of A2  symmetry.
 There are    11 symmetry adapted basis functions of B1  symmetry.
 There are    11 symmetry adapted basis functions of B2  symmetry.
    51 basis functions,    81 primitive gaussians,    53 cartesian basis functions
     7 alpha electrons        7 beta electrons
       nuclear repulsion energy        24.0729303855 Hartrees.
 NAtoms=    3 NActive=    3 NUniq=    3 SFac= 1.00D+00 NAtFMM=   60 NAOKFM=F Big=F
 Integral buffers will be    131072 words long.
 Raffenetti 1 integral format.
 Two-electron integral symmetry is turned on.
 One-electron integrals computed using PRISM.
 NBasis=    51 RedAO= T EigKep=  2.53D-03  NBF=    27     2    11    11
 NBsUse=    51 1.00D-06 EigRej= -1.00D+00 NBFU=    27     2    11    11
 Initial guess from the checkpoint file:  "HNC0MP2full.chk"
 B after Tr=     0.000000    0.000000    0.000000
         Rot=    1.000000    0.000000    0.000000    0.000000 Ang=   0.00 deg.
 Initial guess orbital symmetries:
       Occupied  (SG) (SG) (SG) (SG) (PI) (PI) (SG)
       Virtual   (SG) (SG) (SG) (SG) (SG) (SG) (SG) (SG) (DLTA)
                 (SG) (DLTA) (SG) (SG) (SG) (SG) (SG) (SG) (SG)
                 (SG) (SG) (SG) (SG) (DLTA) (DLTA) (PI) (PI) (PI)
                 (PI) (PI) (PI) (PI) (PI) (PI) (PI) (PI) (PI) (PI)
                 (PI) (PI) (PI) (PI) (PI) (PI) (PI)
 Keep R1 ints in memory in symmetry-blocked form, NReq=1746638.
 Requested convergence on RMS density matrix=1.00D-08 within 128 cycles.
 Requested convergence on MAX density matrix=1.00D-06.
 Requested convergence on             energy=1.00D-06.
 No special actions if energy rises.
 SCF Done:  E(RHF) =  -92.8829919282     A.U. after    9 cycles
            NFock=  9  Conv=0.14D-08     -V/T= 2.0020
 Range of M.O.s used for correlation:     1    51
 NBasis=    51 NAE=     7 NBE=     7 NFC=     0 NFV=     0
 NROrb=     51 NOA=     7 NOB=     7 NVA=    44 NVB=    44

 **** Warning!!: The largest alpha MO coefficient is  0.11446087D+02

 Fully direct method using O(ONN) memory.
 JobTyp=1 Pass  1:  I=   1 to   7 NPSUse=  2 ParTrn=T ParDer=T DoDerP=T.
 Spin components of T(2) and E(2):
     alpha-alpha T2 =       0.1308087411D-01 E2=     -0.3867878001D-01
     alpha-beta  T2 =       0.7762083958D-01 E2=     -0.2504577569D+00
     beta-beta   T2 =       0.1308087411D-01 E2=     -0.3867878001D-01
 ANorm=    0.1050610579D+01
 E2 =    -0.3278153169D+00 EUMP2 =    -0.93210807245102D+02
          IDoAtm=111
          Differentiating once with respect to electric field.
                with respect to dipole field.
          Differentiating once with respect to nuclear coordinates.
 Keep R1 ints in memory in symmetry-blocked form, NReq=1726900.
          There are     1 degrees of freedom in the 1st order CPHF.  IDoFFX=0 NUNeed=     1.
 LinEq1:  Iter=  0 NonCon=     1 RMS=9.76D-03 Max=6.51D-02 NDo=     1
 AX will form     1 AO Fock derivatives at one time.
 LinEq1:  Iter=  1 NonCon=     1 RMS=3.12D-03 Max=2.48D-02 NDo=     1
 LinEq1:  Iter=  2 NonCon=     1 RMS=1.10D-03 Max=6.07D-03 NDo=     1
 LinEq1:  Iter=  3 NonCon=     1 RMS=3.81D-04 Max=2.16D-03 NDo=     1
 LinEq1:  Iter=  4 NonCon=     1 RMS=7.22D-05 Max=5.14D-04 NDo=     1
 LinEq1:  Iter=  5 NonCon=     1 RMS=8.24D-06 Max=4.50D-05 NDo=     1
 LinEq1:  Iter=  6 NonCon=     1 RMS=9.03D-07 Max=7.51D-06 NDo=     1
 LinEq1:  Iter=  7 NonCon=     1 RMS=9.79D-08 Max=6.17D-07 NDo=     1
 LinEq1:  Iter=  8 NonCon=     1 RMS=9.59D-09 Max=8.47D-08 NDo=     1
 LinEq1:  Iter=  9 NonCon=     1 RMS=8.42D-10 Max=4.47D-09 NDo=     1
 LinEq1:  Iter= 10 NonCon=     0 RMS=7.73D-11 Max=4.96D-10 NDo=     1
 Linear equations converged to 1.000D-10 1.000D-09 after    10 iterations.
 End of Minotr F.D. properties file   721 does not exist.
 End of Minotr F.D. properties file   722 does not exist.
 End of Minotr F.D. properties file   788 does not exist.
 Calling FoFJK, ICntrl=  10002127 FMM=F ISym2X=1 I1Cent= 0 IOpClX= 0 NMat=1 NMatS=1 NMatT=0.
 ***** Axes restored to original set *****
 -------------------------------------------------------------------
 Center     Atomic                   Forces (Hartrees/Bohr)
 Number     Number              X              Y              Z
 -------------------------------------------------------------------
      1        7           0.000000000    0.000000000   -0.010636389
      2        6           0.000000000    0.000000000    0.010525306
      3        1           0.000000000    0.000000000    0.000111083
 -------------------------------------------------------------------
 Cartesian Forces:  Max     0.010636389 RMS     0.004988066

 GradGradGradGradGradGradGradGradGradGradGradGradGradGradGradGradGradGrad
 Berny optimization.
 Using GEDIIS/GDIIS optimizer.
 Internal  Forces:  Max     0.010525306 RMS     0.005262946
 Search for a local minimum.
 Step number   6 out of a maximum of   20
 All quantities printed in internal units (Hartrees-Bohrs-Radians)
 Mixed Optimization -- RFO/linear search
 Update second derivatives using D2CorX and points    2    4    5    6
 DE= -2.16D-04 DEPred=-1.52D-04 R= 1.42D+00
 TightC=F SS=  1.41D+00  RLast= 1.34D-02 DXNew= 4.2426D-01 4.0279D-02
 Trust test= 1.42D+00 RLast= 1.34D-02 DXMaxT set to 2.52D-01
 The second derivative matrix:
                          R1        R2        A1        A2
           R1           1.12907
           R2          -0.05757   0.59669
           A1           0.00000   0.00000   0.00230
           A2           0.00000   0.00000   0.00000   0.00230
 ITU=  1  1  0 -1  1
 Use linear search instead of GDIIS.
     Eigenvalues ---    0.00230   0.00230   0.59053   1.13523
 RFO step:  Lambda=-6.98399850D-06 EMin= 2.30000000D-03
 Quartic linear search produced a step of  0.74039.
 Iteration  1 RMS(Cart)=  0.00415745 RMS(Int)=  0.00000000
 Iteration  2 RMS(Cart)=  0.00000000 RMS(Int)=  0.00000000
 ClnCor:  largest displacement from symmetrization is 5.49D-12 for atom     1.
 Variable       Old X    -DE/DX   Delta X   Delta X   Delta X     New X
                                 (Linear)    (Quad)   (Total)
    R1        2.22112   0.01053   0.00900   0.00066   0.00965   2.23077
    R2        1.88982  -0.00011   0.00423  -0.00324   0.00099   1.89082
    A1        3.14159   0.00000   0.00000   0.00000   0.00000   3.14159
    A2        3.14159   0.00000   0.00000   0.00000   0.00000   3.14159
         Item               Value     Threshold  Converged?
 Maximum Force            0.010525     0.000015     NO 
 RMS     Force            0.005263     0.000010     NO 
 Maximum Displacement     0.006765     0.000060     NO 
 RMS     Displacement     0.004157     0.000040     NO 
 Predicted change in Energy=-4.914522D-05
 GradGradGradGradGradGradGradGradGradGradGradGradGradGradGradGradGradGrad

                          Input orientation:                          
 ---------------------------------------------------------------------
 Center     Atomic      Atomic             Coordinates (Angstroms)
 Number     Number       Type             X           Y           Z
 ---------------------------------------------------------------------
      1          7           0        0.000000    0.000000   -0.159966
      2          6           0        0.000000    0.000000    1.020508
      3          1           0        0.000000    0.000000   -1.160543
 ---------------------------------------------------------------------
                    Distance matrix (angstroms):
                    1          2          3
     1  N    0.000000
     2  C    1.180474   0.000000
     3  H    1.000577   2.181051   0.000000
 Stoichiometry    CHN
 Framework group  C*V[C*(CNH)]
 Deg. of freedom     2
 Full point group                 C*V     NOp   4
 Largest Abelian subgroup         C2V     NOp   4
 Largest concise Abelian subgroup C1      NOp   1
                         Standard orientation:                         
 ---------------------------------------------------------------------
 Center     Atomic      Atomic             Coordinates (Angstroms)
 Number     Number       Type             X           Y           Z
 ---------------------------------------------------------------------
      1          7           0        0.000000    0.000000    0.434448
      2          6           0        0.000000    0.000000   -0.746026
      3          1           0        0.000000    0.000000    1.435024
 ---------------------------------------------------------------------
 Rotational constants (GHZ):      0.0000000     44.6362212     44.6362212
 Standard basis: 6-311++G(d,p) (5D, 7F)
 There are    29 symmetry adapted cartesian basis functions of A1  symmetry.
 There are     2 symmetry adapted cartesian basis functions of A2  symmetry.
 There are    11 symmetry adapted cartesian basis functions of B1  symmetry.
 There are    11 symmetry adapted cartesian basis functions of B2  symmetry.
 There are    27 symmetry adapted basis functions of A1  symmetry.
 There are     2 symmetry adapted basis functions of A2  symmetry.
 There are    11 symmetry adapted basis functions of B1  symmetry.
 There are    11 symmetry adapted basis functions of B2  symmetry.
    51 basis functions,    81 primitive gaussians,    53 cartesian basis functions
     7 alpha electrons        7 beta electrons
       nuclear repulsion energy        23.9854095347 Hartrees.
 NAtoms=    3 NActive=    3 NUniq=    3 SFac= 1.00D+00 NAtFMM=   60 NAOKFM=F Big=F
 Integral buffers will be    131072 words long.
 Raffenetti 1 integral format.
 Two-electron integral symmetry is turned on.
 One-electron integrals computed using PRISM.
 NBasis=    51 RedAO= T EigKep=  2.57D-03  NBF=    27     2    11    11
 NBsUse=    51 1.00D-06 EigRej= -1.00D+00 NBFU=    27     2    11    11
 Initial guess from the checkpoint file:  "HNC0MP2full.chk"
 B after Tr=     0.000000    0.000000    0.000000
         Rot=    1.000000    0.000000    0.000000    0.000000 Ang=   0.00 deg.
 Initial guess orbital symmetries:
       Occupied  (SG) (SG) (SG) (SG) (PI) (PI) (SG)
       Virtual   (SG) (SG) (SG) (SG) (SG) (SG) (SG) (SG) (DLTA)
                 (SG) (DLTA) (SG) (SG) (SG) (SG) (SG) (SG) (SG)
                 (SG) (SG) (SG) (SG) (DLTA) (DLTA) (PI) (PI) (PI)
                 (PI) (PI) (PI) (PI) (PI) (PI) (PI) (PI) (PI) (PI)
                 (PI) (PI) (PI) (PI) (PI) (PI) (PI)
 Keep R1 ints in memory in symmetry-blocked form, NReq=1746623.
 Requested convergence on RMS density matrix=1.00D-08 within 128 cycles.
 Requested convergence on MAX density matrix=1.00D-06.
 Requested convergence on             energy=1.00D-06.
 No special actions if energy rises.
 SCF Done:  E(RHF) =  -92.8823487849     A.U. after    8 cycles
            NFock=  8  Conv=0.59D-08     -V/T= 2.0023
 Range of M.O.s used for correlation:     1    51
 NBasis=    51 NAE=     7 NBE=     7 NFC=     0 NFV=     0
 NROrb=     51 NOA=     7 NOB=     7 NVA=    44 NVB=    44

 **** Warning!!: The largest alpha MO coefficient is  0.11390190D+02

 Fully direct method using O(ONN) memory.
 JobTyp=1 Pass  1:  I=   1 to   7 NPSUse=  2 ParTrn=T ParDer=T DoDerP=T.
 Spin components of T(2) and E(2):
     alpha-alpha T2 =       0.1317784226D-01 E2=     -0.3877484646D-01
     alpha-beta  T2 =       0.7811988464D-01 E2=     -0.2509600611D+00
     beta-beta   T2 =       0.1317784226D-01 E2=     -0.3877484646D-01
 ANorm=    0.1050940326D+01
 E2 =    -0.3285097540D+00 EUMP2 =    -0.93210858538922D+02
          IDoAtm=111
          Differentiating once with respect to electric field.
                with respect to dipole field.
          Differentiating once with respect to nuclear coordinates.
 Keep R1 ints in memory in symmetry-blocked form, NReq=1726900.
          There are     1 degrees of freedom in the 1st order CPHF.  IDoFFX=0 NUNeed=     1.
 LinEq1:  Iter=  0 NonCon=     1 RMS=9.90D-03 Max=6.65D-02 NDo=     1
 AX will form     1 AO Fock derivatives at one time.
 LinEq1:  Iter=  1 NonCon=     1 RMS=3.18D-03 Max=2.51D-02 NDo=     1
 LinEq1:  Iter=  2 NonCon=     1 RMS=1.13D-03 Max=6.31D-03 NDo=     1
 LinEq1:  Iter=  3 NonCon=     1 RMS=3.91D-04 Max=2.22D-03 NDo=     1
 LinEq1:  Iter=  4 NonCon=     1 RMS=7.41D-05 Max=5.25D-04 NDo=     1
 LinEq1:  Iter=  5 NonCon=     1 RMS=8.60D-06 Max=4.65D-05 NDo=     1
 LinEq1:  Iter=  6 NonCon=     1 RMS=9.36D-07 Max=7.84D-06 NDo=     1
 LinEq1:  Iter=  7 NonCon=     1 RMS=1.02D-07 Max=6.28D-07 NDo=     1
 LinEq1:  Iter=  8 NonCon=     1 RMS=9.90D-09 Max=8.68D-08 NDo=     1
 LinEq1:  Iter=  9 NonCon=     1 RMS=8.66D-10 Max=4.42D-09 NDo=     1
 LinEq1:  Iter= 10 NonCon=     0 RMS=8.02D-11 Max=5.10D-10 NDo=     1
 Linear equations converged to 1.000D-10 1.000D-09 after    10 iterations.
 End of Minotr F.D. properties file   721 does not exist.
 End of Minotr F.D. properties file   722 does not exist.
 End of Minotr F.D. properties file   788 does not exist.
 Calling FoFJK, ICntrl=  10002127 FMM=F ISym2X=1 I1Cent= 0 IOpClX= 0 NMat=1 NMatS=1 NMatT=0.
 ***** Axes restored to original set *****
 -------------------------------------------------------------------
 Center     Atomic                   Forces (Hartrees/Bohr)
 Number     Number              X              Y              Z
 -------------------------------------------------------------------
      1        7           0.000000000    0.000000000   -0.000631830
      2        6           0.000000000    0.000000000    0.000216931
      3        1           0.000000000    0.000000000    0.000414899
 -------------------------------------------------------------------
 Cartesian Forces:  Max     0.000631830 RMS     0.000262130

 GradGradGradGradGradGradGradGradGradGradGradGradGradGradGradGradGradGrad
 Berny optimization.
 Using GEDIIS/GDIIS optimizer.
 Internal  Forces:  Max     0.000414899 RMS     0.000234094
 Search for a local minimum.
 Step number   7 out of a maximum of   20
 All quantities printed in internal units (Hartrees-Bohrs-Radians)
 Mixed Optimization -- En-DIIS/RFO-DIIS
 Update second derivatives using D2CorX and points    2    4    5    6    7
 DE= -5.13D-05 DEPred=-4.91D-05 R= 1.04D+00
 TightC=F SS=  1.41D+00  RLast= 9.70D-03 DXNew= 4.2426D-01 2.9106D-02
 Trust test= 1.04D+00 RLast= 9.70D-03 DXMaxT set to 2.52D-01
 The second derivative matrix:
                          R1        R2        A1        A2
           R1           1.07102
           R2          -0.02816   0.57983
           A1           0.00000   0.00000   0.00230
           A2           0.00000   0.00000   0.00000   0.00230
 ITU=  1  1  1  0 -1
 Use linear search instead of GDIIS.
     Eigenvalues ---    0.00230   0.00230   0.57822   1.07263
 RFO step:  Lambda=-3.04423595D-07 EMin= 2.30000000D-03
 Quartic linear search produced a step of  0.01715.
 Iteration  1 RMS(Cart)=  0.00025865 RMS(Int)=  0.00000000
 Iteration  2 RMS(Cart)=  0.00000000 RMS(Int)=  0.00000000
 ClnCor:  largest displacement from symmetrization is 1.41D-14 for atom     1.
 Variable       Old X    -DE/DX   Delta X   Delta X   Delta X     New X
                                 (Linear)    (Quad)   (Total)
    R1        2.23077   0.00022   0.00017   0.00002   0.00019   2.23096
    R2        1.89082  -0.00041   0.00002  -0.00072  -0.00071   1.89011
    A1        3.14159   0.00000   0.00000   0.00000   0.00000   3.14159
    A2        3.14159   0.00000   0.00000   0.00000   0.00000   3.14159
         Item               Value     Threshold  Converged?
 Maximum Force            0.000415     0.000015     NO 
 RMS     Force            0.000234     0.000010     NO 
 Maximum Displacement     0.000408     0.000060     NO 
 RMS     Displacement     0.000259     0.000040     NO 
 Predicted change in Energy=-1.665386D-07
 GradGradGradGradGradGradGradGradGradGradGradGradGradGradGradGradGradGrad

                          Input orientation:                          
 ---------------------------------------------------------------------
 Center     Atomic      Atomic             Coordinates (Angstroms)
 Number     Number       Type             X           Y           Z
 ---------------------------------------------------------------------
      1          7           0        0.000000    0.000000   -0.160123
      2          6           0        0.000000    0.000000    1.020450
      3          1           0        0.000000    0.000000   -1.160326
 ---------------------------------------------------------------------
                    Distance matrix (angstroms):
                    1          2          3
     1  N    0.000000
     2  C    1.180573   0.000000
     3  H    1.000203   2.180776   0.000000
 Stoichiometry    CHN
 Framework group  C*V[C*(CNH)]
 Deg. of freedom     2
 Full point group                 C*V     NOp   4
 Largest Abelian subgroup         C2V     NOp   4
 Largest concise Abelian subgroup C1      NOp   1
                         Standard orientation:                         
[...]
 AX will form     1 AO Fock derivatives at one time.
 LinEq1:  Iter=  1 NonCon=     1 RMS=3.18D-03 Max=2.51D-02 NDo=     1
 LinEq1:  Iter=  2 NonCon=     1 RMS=1.13D-03 Max=6.32D-03 NDo=     1
 LinEq1:  Iter=  3 NonCon=     1 RMS=3.91D-04 Max=2.22D-03 NDo=     1
 LinEq1:  Iter=  4 NonCon=     1 RMS=7.42D-05 Max=5.25D-04 NDo=     1
 LinEq1:  Iter=  5 NonCon=     1 RMS=8.61D-06 Max=4.65D-05 NDo=     1
 LinEq1:  Iter=  6 NonCon=     1 RMS=9.37D-07 Max=7.85D-06 NDo=     1
 LinEq1:  Iter=  7 NonCon=     1 RMS=1.02D-07 Max=6.28D-07 NDo=     1
 LinEq1:  Iter=  8 NonCon=     1 RMS=9.90D-09 Max=8.68D-08 NDo=     1
 LinEq1:  Iter=  9 NonCon=     1 RMS=8.66D-10 Max=4.42D-09 NDo=     1
 LinEq1:  Iter= 10 NonCon=     0 RMS=8.02D-11 Max=5.10D-10 NDo=     1
 Linear equations converged to 1.000D-10 1.000D-09 after    10 iterations.
 End of Minotr F.D. properties file   721 does not exist.
 End of Minotr F.D. properties file   722 does not exist.
 End of Minotr F.D. properties file   788 does not exist.
 Calling FoFJK, ICntrl=  10002127 FMM=F ISym2X=1 I1Cent= 0 IOpClX= 0 NMat=1 NMatS=1 NMatT=0.
 ***** Axes restored to original set *****
 -------------------------------------------------------------------
 Center     Atomic                   Forces (Hartrees/Bohr)
 Number     Number              X              Y              Z
 -------------------------------------------------------------------
      1        7           0.000000000    0.000000000   -0.000053570
      2        6           0.000000000    0.000000000    0.000005324
      3        1           0.000000000    0.000000000    0.000048246
 -------------------------------------------------------------------
 Cartesian Forces:  Max     0.000053570 RMS     0.000024096

 GradGradGradGradGradGradGradGradGradGradGradGradGradGradGradGradGradGrad
 Berny optimization.
 Using GEDIIS/GDIIS optimizer.
 Internal  Forces:  Max     0.000048246 RMS     0.000024269
 Search for a local minimum.
 Step number   8 out of a maximum of   20
 All quantities printed in internal units (Hartrees-Bohrs-Radians)
 Mixed Optimization -- En-DIIS/RFO-DIIS
 Swapping is turned off.
 Update second derivatives using D2CorX and points    4    5    6    7    8
 DE= -1.81D-07 DEPred=-1.67D-07 R= 1.08D+00
 Trust test= 1.08D+00 RLast= 7.30D-04 DXMaxT set to 2.52D-01
 The second derivative matrix:
                          R1        R2        A1        A2
           R1           1.07658
           R2          -0.01488   0.51544
           A1           0.00000   0.00000   0.00230
           A2           0.00000   0.00000   0.00000   0.00230
 ITU=  0  1  1  1  0
     Eigenvalues ---    0.00230   0.00230   0.51504   1.07698
 En-DIIS/RFO-DIIS IScMMF=        0 using points:     8    7
 RFO step:  Lambda=-3.25496042D-09.
 DidBck=F Rises=F RFO-DIIS coefs:    1.11749   -0.11749
 Iteration  1 RMS(Cart)=  0.00003745 RMS(Int)=  0.00000002
 Iteration  2 RMS(Cart)=  0.00000001 RMS(Int)=  0.00000001
 ClnCor:  largest displacement from symmetrization is 2.50D-08 for atom     1.
 Variable       Old X    -DE/DX   Delta X   Delta X   Delta X     New X
                                 (Linear)    (Quad)   (Total)
    R1        2.23096   0.00001   0.00002  -0.00002   0.00000   2.23096
    R2        1.89011  -0.00005  -0.00008  -0.00001  -0.00009   1.89002
    A1        3.14159   0.00000   0.00000   0.00000   0.00000   3.14159
    A2        3.14159   0.00000   0.00000   0.00000   0.00000   3.14159
         Item               Value     Threshold  Converged?
 Maximum Force            0.000048     0.000015     NO 
 RMS     Force            0.000024     0.000010     NO 
 Maximum Displacement     0.000061     0.000060     NO 
 RMS     Displacement     0.000037     0.000040     YES
 Predicted change in Energy=-2.265151D-09
 GradGradGradGradGradGradGradGradGradGradGradGradGradGradGradGradGradGrad

                          Input orientation:                          
 ---------------------------------------------------------------------
 Center     Atomic      Atomic             Coordinates (Angstroms)
 Number     Number       Type             X           Y           Z
 ---------------------------------------------------------------------
      1          7           0        0.000000    0.000000   -0.160140
      2          6           0        0.000000    0.000000    1.020435
      3          1           0        0.000000    0.000000   -1.160294
 ---------------------------------------------------------------------
                    Distance matrix (angstroms):
                    1          2          3
     1  N    0.000000
     2  C    1.180575   0.000000
     3  H    1.000154   2.180729   0.000000
 Stoichiometry    CHN
 Framework group  C*V[C*(CNH)]
 Deg. of freedom     2
 Full point group                 C*V     NOp   4
 Largest Abelian subgroup         C2V     NOp   4
 Largest concise Abelian subgroup C1      NOp   1
                         Standard orientation:                         
 ---------------------------------------------------------------------
 Center     Atomic      Atomic             Coordinates (Angstroms)
 Number     Number       Type             X           Y           Z
 ---------------------------------------------------------------------
      1          7           0        0.000000    0.000000    0.434521
      2          6           0        0.000000    0.000000   -0.746054
      3          1           0        0.000000    0.000000    1.434675
 ---------------------------------------------------------------------
 Rotational constants (GHZ):      0.0000000     44.6346099     44.6346099
 Standard basis: 6-311++G(d,p) (5D, 7F)
 There are    29 symmetry adapted cartesian basis functions of A1  symmetry.
 There are     2 symmetry adapted cartesian basis functions of A2  symmetry.
 There are    11 symmetry adapted cartesian basis functions of B1  symmetry.
 There are    11 symmetry adapted cartesian basis functions of B2  symmetry.
 There are    27 symmetry adapted basis functions of A1  symmetry.
 There are     2 symmetry adapted basis functions of A2  symmetry.
 There are    11 symmetry adapted basis functions of B1  symmetry.
 There are    11 symmetry adapted basis functions of B2  symmetry.
    51 basis functions,    81 primitive gaussians,    53 cartesian basis functions
     7 alpha electrons        7 beta electrons
       nuclear repulsion energy        23.9855833390 Hartrees.
 NAtoms=    3 NActive=    3 NUniq=    3 SFac= 1.00D+00 NAtFMM=   60 NAOKFM=F Big=F
 Integral buffers will be    131072 words long.
 Raffenetti 1 integral format.
 Two-electron integral symmetry is turned on.
 One-electron integrals computed using PRISM.
 NBasis=    51 RedAO= T EigKep=  2.57D-03  NBF=    27     2    11    11
 NBsUse=    51 1.00D-06 EigRej= -1.00D+00 NBFU=    27     2    11    11
 Initial guess from the checkpoint file:  "HNC0MP2full.chk"
 B after Tr=     0.000000    0.000000    0.000000
         Rot=    1.000000    0.000000    0.000000    0.000000 Ang=   0.00 deg.
 Initial guess orbital symmetries:
       Occupied  (SG) (SG) (SG) (SG) (PI) (PI) (SG)
       Virtual   (SG) (SG) (SG) (SG) (SG) (SG) (SG) (SG) (DLTA)
                 (SG) (DLTA) (SG) (SG) (SG) (SG) (SG) (SG) (SG)
                 (SG) (SG) (SG) (SG) (DLTA) (DLTA) (PI) (PI) (PI)
                 (PI) (PI) (PI) (PI) (PI) (PI) (PI) (PI) (PI) (PI)
                 (PI) (PI) (PI) (PI) (PI) (PI) (PI)
 Keep R1 ints in memory in symmetry-blocked form, NReq=1746623.
 Requested convergence on RMS density matrix=1.00D-08 within 128 cycles.
 Requested convergence on MAX density matrix=1.00D-06.
 Requested convergence on             energy=1.00D-06.
 No special actions if energy rises.
 SCF Done:  E(RHF) =  -92.8823471761     A.U. after    4 cycles
            NFock=  4  Conv=0.99D-08     -V/T= 2.0023
 Range of M.O.s used for correlation:     1    51
 NBasis=    51 NAE=     7 NBE=     7 NFC=     0 NFV=     0
 NROrb=     51 NOA=     7 NOB=     7 NVA=    44 NVB=    44

 **** Warning!!: The largest alpha MO coefficient is  0.11395910D+02

 Fully direct method using O(ONN) memory.
 JobTyp=1 Pass  1:  I=   1 to   7 NPSUse=  2 ParTrn=T ParDer=T DoDerP=T.
 Spin components of T(2) and E(2):
     alpha-alpha T2 =       0.1317845923D-01 E2=     -0.3877537684D-01
     alpha-beta  T2 =       0.7812126189D-01 E2=     -0.2509607938D+00
     beta-beta   T2 =       0.1317845923D-01 E2=     -0.3877537684D-01
 ANorm=    0.1050941568D+01
 E2 =    -0.3285115474D+00 EUMP2 =    -0.93210858723525D+02
          IDoAtm=111
          Differentiating once with respect to electric field.
                with respect to dipole field.
          Differentiating once with respect to nuclear coordinates.
 Keep R1 ints in memory in symmetry-blocked form, NReq=1726900.
          There are     1 degrees of freedom in the 1st order CPHF.  IDoFFX=0 NUNeed=     1.
 LinEq1:  Iter=  0 NonCon=     1 RMS=9.90D-03 Max=6.65D-02 NDo=     1
 AX will form     1 AO Fock derivatives at one time.
 LinEq1:  Iter=  1 NonCon=     1 RMS=3.18D-03 Max=2.51D-02 NDo=     1
 LinEq1:  Iter=  2 NonCon=     1 RMS=1.13D-03 Max=6.32D-03 NDo=     1
 LinEq1:  Iter=  3 NonCon=     1 RMS=3.91D-04 Max=2.22D-03 NDo=     1
 LinEq1:  Iter=  4 NonCon=     1 RMS=7.42D-05 Max=5.25D-04 NDo=     1
 LinEq1:  Iter=  5 NonCon=     1 RMS=8.61D-06 Max=4.65D-05 NDo=     1
 LinEq1:  Iter=  6 NonCon=     1 RMS=9.36D-07 Max=7.85D-06 NDo=     1
 LinEq1:  Iter=  7 NonCon=     1 RMS=1.02D-07 Max=6.28D-07 NDo=     1
 LinEq1:  Iter=  8 NonCon=     1 RMS=9.90D-09 Max=8.68D-08 NDo=     1
 LinEq1:  Iter=  9 NonCon=     1 RMS=8.66D-10 Max=4.42D-09 NDo=     1
 LinEq1:  Iter= 10 NonCon=     0 RMS=8.02D-11 Max=5.10D-10 NDo=     1
 Linear equations converged to 1.000D-10 1.000D-09 after    10 iterations.
 End of Minotr F.D. properties file   721 does not exist.
 End of Minotr F.D. properties file   722 does not exist.
 End of Minotr F.D. properties file   788 does not exist.
 Calling FoFJK, ICntrl=  10002127 FMM=F ISym2X=1 I1Cent= 0 IOpClX= 0 NMat=1 NMatS=1 NMatT=0.
 ***** Axes restored to original set *****
 -------------------------------------------------------------------
 Center     Atomic                   Forces (Hartrees/Bohr)
 Number     Number              X              Y              Z
 -------------------------------------------------------------------
      1        7           0.000000000    0.000000000    0.000000508
      2        6           0.000000000    0.000000000   -0.000000567
      3        1           0.000000000    0.000000000    0.000000059
 -------------------------------------------------------------------
 Cartesian Forces:  Max     0.000000567 RMS     0.000000255

 GradGradGradGradGradGradGradGradGradGradGradGradGradGradGradGradGradGrad
 Berny optimization.
 Using GEDIIS/GDIIS optimizer.
 Internal  Forces:  Max     0.000000567 RMS     0.000000285
 Search for a local minimum.
 Step number   9 out of a maximum of   20
 All quantities printed in internal units (Hartrees-Bohrs-Radians)
 Mixed Optimization -- En-DIIS/RFO-DIIS
 Swapping is turned off.
 Update second derivatives using D2CorX and points    5    6    7    8    9
 DE= -3.95D-09 DEPred=-2.27D-09 R= 1.74D+00
 Trust test= 1.74D+00 RLast= 9.36D-05 DXMaxT set to 2.52D-01
 The second derivative matrix:
                          R1        R2        A1        A2
           R1           1.06709
           R2          -0.02132   0.51455
           A1           0.00000   0.00000   0.00230
           A2           0.00000   0.00000   0.00000   0.00230
 ITU=  0  0  1  1  1
     Eigenvalues ---    0.00230   0.00230   0.51373   1.06791
 En-DIIS/RFO-DIIS IScMMF=        0 using points:     9    8    7
 RFO step:  Lambda=-3.17153088D-13.
 DidBck=F Rises=F RFO-DIIS coefs:    1.02745   -0.03089    0.00345
 Iteration  1 RMS(Cart)=  0.00000025 RMS(Int)=  0.00000001
 ClnCor:  largest displacement from symmetrization is 6.99D-11 for atom     1.
 Variable       Old X    -DE/DX   Delta X   Delta X   Delta X     New X
                                 (Linear)    (Quad)   (Total)
    R1        2.23096   0.00000   0.00000   0.00000   0.00000   2.23096
    R2        1.89002   0.00000   0.00000   0.00000   0.00000   1.89002
    A1        3.14159   0.00000   0.00000   0.00000   0.00000   3.14159
    A2        3.14159   0.00000   0.00000   0.00000   0.00000   3.14159
         Item               Value     Threshold  Converged?
 Maximum Force            0.000001     0.000015     YES
 RMS     Force            0.000000     0.000010     YES
 Maximum Displacement     0.000000     0.000060     YES
 RMS     Displacement     0.000000     0.000040     YES
 Predicted change in Energy=-1.556689D-13
 Optimization completed.
    -- Stationary point found.
                           ----------------------------
                           !   Optimized Parameters   !
                           ! (Angstroms and Degrees)  !
 --------------------------                            --------------------------
 ! Name  Definition              Value          Derivative Info.                !
 --------------------------------------------------------------------------------
 ! R1    R(1,2)                  1.1806         -DE/DX =    0.0                 !
 ! R2    R(1,3)                  1.0002         -DE/DX =    0.0                 !
 ! A1    L(2,1,3,-1,-1)        180.0            -DE/DX =    0.0                 !
 ! A2    L(2,1,3,-2,-2)        180.0            -DE/DX =    0.0                 !
 --------------------------------------------------------------------------------
 GradGradGradGradGradGradGradGradGradGradGradGradGradGradGradGradGradGrad

                          Input orientation:                          
 ---------------------------------------------------------------------
 Center     Atomic      Atomic             Coordinates (Angstroms)
 Number     Number       Type             X           Y           Z
 ---------------------------------------------------------------------
      1          7           0        0.000000    0.000000   -0.160140
      2          6           0        0.000000    0.000000    1.020435
      3          1           0        0.000000    0.000000   -1.160294
 ---------------------------------------------------------------------
                    Distance matrix (angstroms):
                    1          2          3
     1  N    0.000000
     2  C    1.180575   0.000000
     3  H    1.000154   2.180729   0.000000
 Stoichiometry    CHN
 Framework group  C*V[C*(CNH)]
 Deg. of freedom     2
 Full point group                 C*V     NOp   4
 Largest Abelian subgroup         C2V     NOp   4
 Largest concise Abelian subgroup C1      NOp   1
                         Standard orientation:                         
 ---------------------------------------------------------------------
 Center     Atomic      Atomic             Coordinates (Angstroms)
 Number     Number       Type             X           Y           Z
 ---------------------------------------------------------------------
      1          7           0        0.000000    0.000000    0.434521
      2          6           0        0.000000    0.000000   -0.746054
      3          1           0        0.000000    0.000000    1.434675
 ---------------------------------------------------------------------
 Rotational constants (GHZ):      0.0000000     44.6346099     44.6346099

 **********************************************************************

            Population analysis using the SCF density.

 **********************************************************************

 Orbital symmetries:
       Occupied  (SG) (SG) (SG) (SG) (PI) (PI) (SG)
       Virtual   (SG) (SG) (PI) (PI) (SG) (PI) (PI) (SG) (PI) (PI)
                 (SG) (SG) (SG) (SG) (PI) (PI) (SG) (PI) (PI) (SG)
                 (SG) (SG) (PI) (PI) (DLTA) (DLTA) (PI) (PI) (SG)
                 (DLTA) (DLTA) (SG) (PI) (PI) (SG) (PI) (PI) (SG)
                 (SG) (PI) (PI) (SG) (SG) (SG)
 The electronic state is 1-SG.
 Alpha  occ. eigenvalues --  -15.60921 -11.30656  -1.26405  -0.87567  -0.51831
 Alpha  occ. eigenvalues --   -0.51831  -0.49464
 Alpha virt. eigenvalues --    0.03807   0.10141   0.10797   0.10797   0.13723
 Alpha virt. eigenvalues --    0.16531   0.16531   0.21818   0.25924   0.25924
 Alpha virt. eigenvalues --    0.28516   0.36756   0.54821   0.64978   0.73885
 Alpha virt. eigenvalues --    0.73885   0.99673   1.01198   1.01198   1.10483
 Alpha virt. eigenvalues --    1.23880   1.37961   1.43628   1.43628   1.53627
 Alpha virt. eigenvalues --    1.53627   1.94496   1.94496   2.21389   2.33048
 Alpha virt. eigenvalues --    2.33048   2.58975   2.95064   2.95064   2.95790
 Alpha virt. eigenvalues --    3.26686   3.26686   3.65165   4.04431   4.32099
 Alpha virt. eigenvalues --    4.32099   5.26352  25.09765  37.10752
          Condensed to atoms (all electrons):
               1          2          3
     1  N    6.367516   0.493611   0.382831
     2  C    0.493611   5.635532  -0.046902
     3  H    0.382831  -0.046902   0.337873
 Mulliken charges:
               1
     1  N   -0.243958
     2  C   -0.082240
     3  H    0.326199
 Sum of Mulliken charges =   0.00000
 Mulliken charges with hydrogens summed into heavy atoms:
               1
     1  N    0.082240
     2  C   -0.082240
 Electronic spatial extent (au):  <R**2>=             49.8434
 Charge=              0.0000 electrons
 Dipole moment (field-independent basis, Debye):
    X=              0.0000    Y=              0.0000    Z=              2.8248  Tot=              2.8248
 Quadrupole moment (field-independent basis, Debye-Ang):
   XX=            -12.2543   YY=            -12.2543   ZZ=            -10.2572
   XY=              0.0000   XZ=              0.0000   YZ=              0.0000
 Traceless Quadrupole moment (field-independent basis, Debye-Ang):
   XX=             -0.6657   YY=             -0.6657   ZZ=              1.3314
   XY=              0.0000   XZ=              0.0000   YZ=              0.0000
 Octapole moment (field-independent basis, Debye-Ang**2):
  XXX=              0.0000  YYY=              0.0000  ZZZ=             14.9316  XYY=              0.0000
  XXY=              0.0000  XXZ=              1.2915  XZZ=              0.0000  YZZ=              0.0000
  YYZ=              1.2915  XYZ=              0.0000
 Hexadecapole moment (field-independent basis, Debye-Ang**3):
 XXXX=            -12.9758 YYYY=            -12.9758 ZZZZ=            -42.3970 XXXY=              0.0000
 XXXZ=              0.0000 YYYX=              0.0000 YYYZ=              0.0000 ZZZX=              0.0000
 ZZZY=              0.0000 XXYY=             -4.3253 XXZZ=            -10.0494 YYZZ=            -10.0494
 XXYZ=              0.0000 YYXZ=              0.0000 ZZXY=              0.0000
 N-N= 2.398558333903D+01 E-N=-2.652335285781D+02  KE= 9.267118827081D+01
 Symmetry A1   KE= 8.695797809594D+01
 Symmetry A2   KE=-4.306381180359D-51
 Symmetry B1   KE= 2.856605087435D+00
 Symmetry B2   KE= 2.856605087435D+00
 B after Tr=     0.000000    0.000000    0.115904
         Rot=    1.000000    0.000000    0.000000    0.000000 Ang=   0.00 deg.
 Final structure in terms of initial Z-matrix:
 N
 C,1,B1
 H,2,B2,1,A1
      Variables:
 B1=1.18057498
 B2=2.18072864
 A1=0.
 1\1\GINC-TC-NODE166\FOpt\RMP2-Full\6-311++G(d,p)\C1H1N1\MAXB2\30-Sep-2
 016\0\\# opt=tight MP2(full)/6-311++g** gfp\\HNC-HCN\\0,1\N,0.,0.,-0.1
 601404403\C,0.,0.,1.0204345423\H,0.,0.,-1.160294102\\Version=ES64L-G09
 RevD.01\State=1-SG\HF=-92.8823472\MP2=-93.2108587\RMSD=9.919e-09\RMSF=
 2.547e-07\Dipole=0.,0.,-1.3018133\PG=C*V [C*(C1N1H1)]\\@


 NOTHING PUZZLES ME MORE THAN TIME AND SPACE; AND YET NOTHING TROUBLES ME LESS
                                                          -- CHARLES LAMB (1810)
 Job cpu time:       0 days  0 hours  0 minutes 43.5 seconds.
 File lengths (MBytes):  RWF=      5 Int=      0 D2E=      0 Chk=      2 Scr=      1
 Normal termination of Gaussian 09 at Fri Sep 30 11:34:00 2016.
