 Entering Gaussian System, Link 0=g09
 Initial command:
 /share/sw/gaussian/D.01/g09/l1.exe "/local/scratch/epluhar/Gau-21307.inp" -scrdir="/local/scratch/epluhar/"
 Entering Link 1 = /share/sw/gaussian/D.01/g09/l1.exe PID=     21308.
  
 Copyright (c) 1988,1990,1992,1993,1995,1998,2003,2009,2013,
            Gaussian, Inc.  All Rights Reserved.
  
 This is part of the Gaussian(R) 09 program.  It is based on
 the Gaussian(R) 03 system (copyright 2003, Gaussian, Inc.),
 the Gaussian(R) 98 system (copyright 1998, Gaussian, Inc.),
 the Gaussian(R) 94 system (copyright 1995, Gaussian, Inc.),
 the Gaussian 92(TM) system (copyright 1992, Gaussian, Inc.),
 the Gaussian 90(TM) system (copyright 1990, Gaussian, Inc.),
 the Gaussian 88(TM) system (copyright 1988, Gaussian, Inc.),
 the Gaussian 86(TM) system (copyright 1986, Carnegie Mellon
 University), and the Gaussian 82(TM) system (copyright 1983,
 Carnegie Mellon University). Gaussian is a federally registered
 trademark of Gaussian, Inc.
  
 This software contains proprietary and confidential information,
 including trade secrets, belonging to Gaussian, Inc.
  
 This software is provided under written license and may be
 used, copied, transmitted, or stored only in accord with that
 written license.
  
 The following legend is applicable only to US Government
 contracts under FAR:
  
                    RESTRICTED RIGHTS LEGEND
  
 Use, reproduction and disclosure by the US Government is
 subject to restrictions as set forth in subparagraphs (a)
 and (c) of the Commercial Computer Software - Restricted
 Rights clause in FAR 52.227-19.
  
 Gaussian, Inc.
 340 Quinnipiac St., Bldg. 40, Wallingford CT 06492
  
  
 ---------------------------------------------------------------
 Warning -- This program may not be used in any manner that
 competes with the business of Gaussian, Inc. or will provide
 assistance to any competitor of Gaussian, Inc.  The licensee
 of this program is prohibited from giving any competitor of
 Gaussian, Inc. access to this program.  By using this program,
 the user acknowledges that Gaussian, Inc. is engaged in the
 business of creating and licensing software in the field of
 computational chemistry and represents and warrants to the
 licensee that it is not a competitor of Gaussian, Inc. and that
 it will not use this program in any manner prohibited above.
 ---------------------------------------------------------------
  

 Cite this work as:
 Gaussian 09, Revision D.01,
 M. J. Frisch, G. W. Trucks, H. B. Schlegel, G. E. Scuseria, 
 M. A. Robb, J. R. Cheeseman, G. Scalmani, V. Barone, B. Mennucci, 
 G. A. Petersson, H. Nakatsuji, M. Caricato, X. Li, H. P. Hratchian, 
 A. F. Izmaylov, J. Bloino, G. Zheng, J. L. Sonnenberg, M. Hada, 
 M. Ehara, K. Toyota, R. Fukuda, J. Hasegawa, M. Ishida, T. Nakajima, 
 Y. Honda, O. Kitao, H. Nakai, T. Vreven, J. A. Montgomery, Jr., 
 J. E. Peralta, F. Ogliaro, M. Bearpark, J. J. Heyd, E. Brothers, 
 K. N. Kudin, V. N. Staroverov, T. Keith, R. Kobayashi, J. Normand, 
 K. Raghavachari, A. Rendell, J. C. Burant, S. S. Iyengar, J. Tomasi, 
 M. Cossi, N. Rega, J. M. Millam, M. Klene, J. E. Knox, J. B. Cross, 
 V. Bakken, C. Adamo, J. Jaramillo, R. Gomperts, R. E. Stratmann, 
 O. Yazyev, A. J. Austin, R. Cammi, C. Pomelli, J. W. Ochterski, 
 R. L. Martin, K. Morokuma, V. G. Zakrzewski, G. A. Voth, 
 P. Salvador, J. J. Dannenberg, S. Dapprich, A. D. Daniels, 
 O. Farkas, J. B. Foresman, J. V. Ortiz, J. Cioslowski, 
 and D. J. Fox, Gaussian, Inc., Wallingford CT, 2013.
 
 ******************************************
 Gaussian 09:  ES64L-G09RevD.01 24-Apr-2013
                23-Jun-2016 
 ******************************************
 %chk=b3lyp-Benzene
 -----------------------------
 #p b3lyp/6-311+g(3df,2pd) opt
 -----------------------------
 1/14=-1,18=20,19=15,26=3,38=1/1,3;
 2/9=110,12=2,17=6,18=5,40=1/2;
 3/5=4,6=6,7=416,11=2,16=1,25=1,30=1,71=1,74=-5/1,2,3;
 4//1;
 5/5=2,38=5/2;
 6/7=2,8=2,9=2,10=2,28=1/1;
 7//1,2,3,16;
 1/14=-1,18=20,19=15,26=3/3(2);
 2/9=110/2;
 99//99;
 2/9=110/2;
 3/5=4,6=6,7=416,11=2,16=1,25=1,30=1,71=1,74=-5/1,2,3;
 4/5=5,16=3,69=1/1;
 5/5=2,38=5/2;
 7//1,2,3,16;
 1/14=-1,18=20,19=15,26=3/3(-5);
 2/9=110/2;
 6/7=2,8=2,9=2,10=2,19=2,28=1/1;
 99/9=1/99;
 Leave Link    1 at Thu Jun 23 11:41:01 2016, MaxMem=           0 cpu:         0.0
 (Enter /share/sw/gaussian/D.01/g09/l101.exe)
 -------
 Benzene
 -------
 Symbolic Z-matrix:
 Charge =  0 Multiplicity = 1
 C                    -0.04601   0.46012   0. 
 C                     1.34915   0.46012   0. 
 C                     2.04669   1.66787   0. 
 C                     1.34903   2.87638  -0.0012 
 C                    -0.04579   2.8763   -0.00168 
 C                    -0.74339   1.6681   -0.00068 
 H                    -0.59577  -0.49219   0.00045 
 H                     1.89866  -0.49239   0.00132 
 H                     3.14637   1.66795   0.00063 
 H                     1.89923   3.82853  -0.00126 
 H                    -0.59592   3.82859  -0.00263 
 H                    -1.843     1.66828  -0.00086 
 
 NAtoms=     12 NQM=       12 NQMF=       0 NMMI=      0 NMMIF=      0
                NMic=       0 NMicF=      0.
                    Isotopes and Nuclear Properties:
 (Nuclear quadrupole moments (NQMom) in fm**2, nuclear magnetic moments (NMagM)
  in nuclear magnetons)

  Atom         1           2           3           4           5           6           7           8           9          10
 IAtWgt=          12          12          12          12          12          12           1           1           1           1
 AtmWgt=  12.0000000  12.0000000  12.0000000  12.0000000  12.0000000  12.0000000   1.0078250   1.0078250   1.0078250   1.0078250
 NucSpn=           0           0           0           0           0           0           1           1           1           1
 AtZEff=   0.0000000   0.0000000   0.0000000   0.0000000   0.0000000   0.0000000   0.0000000   0.0000000   0.0000000   0.0000000
 NQMom=    0.0000000   0.0000000   0.0000000   0.0000000   0.0000000   0.0000000   0.0000000   0.0000000   0.0000000   0.0000000
 NMagM=    0.0000000   0.0000000   0.0000000   0.0000000   0.0000000   0.0000000   2.7928460   2.7928460   2.7928460   2.7928460
 AtZNuc=   6.0000000   6.0000000   6.0000000   6.0000000   6.0000000   6.0000000   1.0000000   1.0000000   1.0000000   1.0000000

  Atom        11          12
 IAtWgt=           1           1
 AtmWgt=   1.0078250   1.0078250
 NucSpn=           1           1
 AtZEff=   0.0000000   0.0000000
 NQMom=    0.0000000   0.0000000
 NMagM=    2.7928460   2.7928460
 AtZNuc=   1.0000000   1.0000000
 Leave Link  101 at Thu Jun 23 11:41:02 2016, MaxMem=    33554432 cpu:         0.1
 (Enter /share/sw/gaussian/D.01/g09/l103.exe)

 GradGradGradGradGradGradGradGradGradGradGradGradGradGradGradGradGradGrad
 Berny optimization.
 Initialization pass.
                           ----------------------------
                           !    Initial Parameters    !
                           ! (Angstroms and Degrees)  !
 --------------------------                            --------------------------
 ! Name  Definition              Value          Derivative Info.                !
 --------------------------------------------------------------------------------
 ! R1    R(1,2)                  1.3952         estimate D2E/DX2                !
 ! R2    R(1,6)                  1.3948         estimate D2E/DX2                !
 ! R3    R(1,7)                  1.0996         estimate D2E/DX2                !
 ! R4    R(2,3)                  1.3947         estimate D2E/DX2                !
 ! R5    R(2,8)                  1.0997         estimate D2E/DX2                !
 ! R6    R(3,4)                  1.3954         estimate D2E/DX2                !
 ! R7    R(3,9)                  1.0997         estimate D2E/DX2                !
 ! R8    R(4,5)                  1.3948         estimate D2E/DX2                !
 ! R9    R(4,10)                 1.0997         estimate D2E/DX2                !
 ! R10   R(5,6)                  1.3951         estimate D2E/DX2                !
 ! R11   R(5,11)                 1.0998         estimate D2E/DX2                !
 ! R12   R(6,12)                 1.0996         estimate D2E/DX2                !
 ! A1    A(2,1,6)              119.9985         estimate D2E/DX2                !
 ! A2    A(2,1,7)              119.9972         estimate D2E/DX2                !
 ! A3    A(6,1,7)              120.0043         estimate D2E/DX2                !
 ! A4    A(1,2,3)              120.0086         estimate D2E/DX2                !
 ! A5    A(1,2,8)              119.9808         estimate D2E/DX2                !
 ! A6    A(3,2,8)              120.0106         estimate D2E/DX2                !
 ! A7    A(2,3,4)              119.9942         estimate D2E/DX2                !
 ! A8    A(2,3,9)              120.0128         estimate D2E/DX2                !
 ! A9    A(4,3,9)              119.993          estimate D2E/DX2                !
 ! A10   A(3,4,5)              119.994          estimate D2E/DX2                !
 ! A11   A(3,4,10)             119.9811         estimate D2E/DX2                !
 ! A12   A(5,4,10)             120.0249         estimate D2E/DX2                !
 ! A13   A(4,5,6)              120.0047         estimate D2E/DX2                !
 ! A14   A(4,5,11)             120.0113         estimate D2E/DX2                !
 ! A15   A(6,5,11)             119.984          estimate D2E/DX2                !
 ! A16   A(1,6,5)              120.0            estimate D2E/DX2                !
 ! A17   A(1,6,12)             120.008          estimate D2E/DX2                !
 ! A18   A(5,6,12)             119.992          estimate D2E/DX2                !
 ! D1    D(6,1,2,3)              0.0323         estimate D2E/DX2                !
 ! D2    D(6,1,2,8)            179.9532         estimate D2E/DX2                !
 ! D3    D(7,1,2,3)           -179.9729         estimate D2E/DX2                !
 ! D4    D(7,1,2,8)             -0.052          estimate D2E/DX2                !
 ! D5    D(2,1,6,5)              0.0149         estimate D2E/DX2                !
 ! D6    D(2,1,6,12)           179.9892         estimate D2E/DX2                !
 ! D7    D(7,1,6,5)           -179.9798         estimate D2E/DX2                !
 ! D8    D(7,1,6,12)            -0.0056         estimate D2E/DX2                !
 ! D9    D(1,2,3,4)             -0.0568         estimate D2E/DX2                !
 ! D10   D(1,2,3,9)            179.9619         estimate D2E/DX2                !
 ! D11   D(8,2,3,4)           -179.9777         estimate D2E/DX2                !
 ! D12   D(8,2,3,9)              0.041          estimate D2E/DX2                !
 ! D13   D(2,3,4,5)              0.0341         estimate D2E/DX2                !
 ! D14   D(2,3,4,10)          -179.9964         estimate D2E/DX2                !
 ! D15   D(9,3,4,5)           -179.9846         estimate D2E/DX2                !
 ! D16   D(9,3,4,10)            -0.0151         estimate D2E/DX2                !
 ! D17   D(3,4,5,6)              0.0131         estimate D2E/DX2                !
 ! D18   D(3,4,5,11)          -179.9995         estimate D2E/DX2                !
 ! D19   D(10,4,5,6)          -179.9563         estimate D2E/DX2                !
 ! D20   D(10,4,5,11)            0.0311         estimate D2E/DX2                !
 ! D21   D(4,5,6,1)             -0.0376         estimate D2E/DX2                !
 ! D22   D(4,5,6,12)           179.9881         estimate D2E/DX2                !
 ! D23   D(11,5,6,1)           179.975          estimate D2E/DX2                !
 ! D24   D(11,5,6,12)            0.0007         estimate D2E/DX2                !
 --------------------------------------------------------------------------------
 Trust Radius=3.00D-01 FncErr=1.00D-07 GrdErr=1.00D-06
 Number of steps in this run=     64 maximum allowed number of steps=    100.
 GradGradGradGradGradGradGradGradGradGradGradGradGradGradGradGradGradGrad

 Leave Link  103 at Thu Jun 23 11:41:02 2016, MaxMem=    33554432 cpu:         0.0
 (Enter /share/sw/gaussian/D.01/g09/l202.exe)
                          Input orientation:                          
 ---------------------------------------------------------------------
 Center     Atomic      Atomic             Coordinates (Angstroms)
 Number     Number       Type             X           Y           Z
 ---------------------------------------------------------------------
      1          6           0       -0.046012    0.460123    0.000000
      2          6           0        1.349148    0.460123    0.000000
      3          6           0        2.046686    1.667874    0.000000
      4          6           0        1.349032    2.876383   -0.001199
      5          6           0       -0.045793    2.876305   -0.001678
      6          6           0       -0.743394    1.668099   -0.000682
      7          1           0       -0.595771   -0.492194    0.000450
      8          1           0        1.898656   -0.492390    0.001315
      9          1           0        3.146366    1.667954    0.000634
     10          1           0        1.899232    3.828526   -0.001258
     11          1           0       -0.595915    3.828586   -0.002631
     12          1           0       -1.842998    1.668282   -0.000862
 ---------------------------------------------------------------------
                    Distance matrix (angstroms):
                    1          2          3          4          5
     1  C    0.000000
     2  C    1.395160   0.000000
     3  C    2.416205   1.394712   0.000000
     4  C    2.790065   2.416260   1.395427   0.000000
     5  C    2.416183   2.789946   2.416356   1.394825   0.000000
     6  C    1.394829   2.416183   2.790080   2.416236   1.395138
     7  H    1.099610   2.165553   3.412986   3.889675   3.413102
     8  H    2.165414   1.099655   2.165330   3.413316   3.889601
     9  H    3.413229   2.165375   1.099680   2.165806   3.413209
    10  H    3.889745   3.413024   2.165678   1.099680   2.165606
    11  H    3.413055   3.889707   3.413506   2.165528   1.099761
    12  H    2.165365   3.413128   3.889684   3.412999   2.165471
                    6          7          8          9         10
     6  C    0.000000
     7  H    2.165331   0.000000
     8  H    3.412938   2.494427   0.000000
     9  H    3.889760   4.320860   2.494768   0.000000
    10  H    3.413344   4.989355   4.320917   2.494678   0.000000
    11  H    2.165516   4.320781   4.989362   4.321228   2.495147
    12  H    1.099604   2.494641   4.320704   4.989364   4.320988
                   11         12
    11  H    0.000000
    12  H    2.494420   0.000000
 Stoichiometry    C6H6
 Framework group  C1[X(C6H6)]
 Deg. of freedom    30
 Full point group                 C1      NOp   1
 Largest Abelian subgroup         C1      NOp   1
 Largest concise Abelian subgroup C1      NOp   1
                         Standard orientation:                         
 ---------------------------------------------------------------------
 Center     Atomic      Atomic             Coordinates (Angstroms)
 Number     Number       Type             X           Y           Z
 ---------------------------------------------------------------------
      1          6           0       -0.176717   -1.383752    0.000005
      2          6           0        1.110106   -0.844719   -0.000364
      3          6           0        1.286853    0.538749    0.000194
      4          6           0        0.176454    1.383870   -0.000075
      5          6           0       -1.110031    0.844894   -0.000185
      6          6           0       -1.286660   -0.539018    0.000252
      7          1           0       -0.315850   -2.474525    0.000015
      8          1           0        1.984957   -1.510960    0.000218
      9          1           0        2.301110    0.963694    0.000537
     10          1           0        0.316060    2.474652    0.000306
     11          1           0       -1.985358    1.510684   -0.000405
     12          1           0       -2.300948   -0.963691    0.000364
 ---------------------------------------------------------------------
 Rotational constants (GHZ):      5.6865650      5.6862639      2.8432074
 Leave Link  202 at Thu Jun 23 11:41:02 2016, MaxMem=    33554432 cpu:         0.0
 (Enter /share/sw/gaussian/D.01/g09/l301.exe)
 Standard basis: 6-311+G(3df,2pd) (5D, 7F)
 Ernie: Thresh=  0.10000D-02 Tol=  0.10000D-05 Strict=F.
 There are   360 symmetry adapted cartesian basis functions of A   symmetry.
 There are   318 symmetry adapted basis functions of A   symmetry.
   318 basis functions,   450 primitive gaussians,   360 cartesian basis functions
    21 alpha electrons       21 beta electrons
       nuclear repulsion energy       203.0307482098 Hartrees.
 IExCor=  402 DFT=T Ex+Corr=B3LYP ExCW=0 ScaHFX=  0.200000
 ScaDFX=  0.800000  0.720000  1.000000  0.810000 ScalE2=  1.000000  1.000000
 IRadAn=      0 IRanWt=     -1 IRanGd=            0 ICorTp=0 IEmpDi=  4
 NAtoms=   12 NActive=   12 NUniq=   12 SFac= 1.00D+00 NAtFMM=   60 NAOKFM=F Big=F
 Integral buffers will be    131072 words long.
 Raffenetti 2 integral format.
 Two-electron integral symmetry is turned on.
 Leave Link  301 at Thu Jun 23 11:41:02 2016, MaxMem=    33554432 cpu:         0.0
 (Enter /share/sw/gaussian/D.01/g09/l302.exe)
 NPDir=0 NMtPBC=     1 NCelOv=     1 NCel=       1 NClECP=     1 NCelD=      1
         NCelK=      1 NCelE2=     1 NClLst=     1 CellRange=     0.0.
 One-electron integrals computed using PRISM.
 NBasis=   318 RedAO= T EigKep=  1.87D-06  NBF=   318
 NBsUse=   318 1.00D-06 EigRej= -1.00D+00 NBFU=   318
 Precomputing XC quadrature grid using
 IXCGrd= 4 IRadAn=           0 IRanWt=          -1 IRanGd=           0 AccXCQ= 0.00D+00.
 Generated NRdTot=       0 NPtTot=           0 NUsed=           0 NTot=          32
 NSgBfM=   360   360   360   360   360 MxSgAt=    12 MxSgA2=    12.
 Leave Link  302 at Thu Jun 23 11:41:02 2016, MaxMem=    33554432 cpu:         0.4
 (Enter /share/sw/gaussian/D.01/g09/l303.exe)
 DipDrv:  MaxL=1.
 Leave Link  303 at Thu Jun 23 11:41:02 2016, MaxMem=    33554432 cpu:         0.1
 (Enter /share/sw/gaussian/D.01/g09/l401.exe)
 ExpMin= 4.38D-02 ExpMax= 4.56D+03 ExpMxC= 6.82D+02 IAcc=2 IRadAn=         4 AccDes= 0.00D+00
 Harris functional with IExCor=  402 and IRadAn=       4 diagonalized for initial guess.
 HarFok:  IExCor=  402 AccDes= 0.00D+00 IRadAn=         4 IDoV= 1 UseB2=F ITyADJ=14
 ICtDFT=  3500011 ScaDFX=  1.000000  1.000000  1.000000  1.000000
 FoFCou: FMM=F IPFlag=           0 FMFlag=      100000 FMFlg1=           0
         NFxFlg=           0 DoJE=T BraDBF=F KetDBF=T FulRan=T
         wScrn=  0.000000 ICntrl=     500 IOpCl=  0 I1Cent=   200000004 NGrid=           0
         NMat0=    1 NMatS0=      1 NMatT0=    0 NMatD0=    1 NMtDS0=    0 NMtDT0=    0
 Petite list used in FoFCou.
 Harris En= -232.368296488252    
 JPrj=0 DoOrth=F DoCkMO=F.
 Leave Link  401 at Thu Jun 23 11:41:06 2016, MaxMem=    33554432 cpu:         3.7
 (Enter /share/sw/gaussian/D.01/g09/l502.exe)
 Closed shell SCF:
 Using DIIS extrapolation, IDIIS=  1040.
 Integral symmetry usage will be decided dynamically.
 IVT=      412102 IEndB=      412102 NGot=    33554432 MDV=    33288931
 LenX=    33288931 LenY=    33158890
 Requested convergence on RMS density matrix=1.00D-08 within 128 cycles.
 Requested convergence on MAX density matrix=1.00D-06.
 Requested convergence on             energy=1.00D-06.
 No special actions if energy rises.
 Fock matrices will be formed incrementally for  20 cycles.

 Cycle   1  Pass 1  IDiag  1:
 FoFJK:  IHMeth= 1 ICntrl=       0 DoSepK=F KAlg= 0 I1Cent=   0 FoldK=F
 IRaf= 980000000 NMat=   1 IRICut=       1 DoRegI=T DoRafI=F ISym2E= 0.
 FoFCou: FMM=F IPFlag=           0 FMFlag=      100000 FMFlg1=           0
         NFxFlg=           0 DoJE=F BraDBF=F KetDBF=F FulRan=T
         wScrn=  0.000000 ICntrl=       0 IOpCl=  0 I1Cent=           0 NGrid=           0
         NMat0=    1 NMatS0=      1 NMatT0=    0 NMatD0=    1 NMtDS0=    0 NMtDT0=    0
 Symmetry not used in FoFCou.
 E= -232.151798699692    
 DIIS: error= 3.21D-02 at cycle   1 NSaved=   1.
 NSaved= 1 IEnMin= 1 EnMin= -232.151798699692     IErMin= 1 ErrMin= 3.21D-02
 ErrMax= 3.21D-02  0.00D+00 EMaxC= 1.00D-01 BMatC= 1.74D-01 BMatP= 1.74D-01
 IDIUse=3 WtCom= 6.79D-01 WtEn= 3.21D-01
 Coeff-Com:  0.100D+01
 Coeff-En:   0.100D+01
 Coeff:      0.100D+01
 Gap=     0.242 Goal=   None    Shift=    0.000
 GapD=    0.242 DampG=1.000 DampE=0.500 DampFc=0.5000 IDamp=-1.
 Damping current iteration by 5.00D-01
 RMSDP=3.55D-03 MaxDP=9.97D-02              OVMax= 1.96D-01

 Cycle   2  Pass 1  IDiag  1:
 RMSU=  1.65D-03    CP:  9.21D-01
 E= -232.222535841519     Delta-E=       -0.070737141828 Rises=F Damp=T
 DIIS: error= 1.04D-02 at cycle   2 NSaved=   2.
 NSaved= 2 IEnMin= 2 EnMin= -232.222535841519     IErMin= 2 ErrMin= 1.04D-02
 ErrMax= 1.04D-02  0.00D+00 EMaxC= 1.00D-01 BMatC= 1.12D-02 BMatP= 1.74D-01
 IDIUse=3 WtCom= 8.96D-01 WtEn= 1.04D-01
 Coeff-Com:  0.632D-01 0.937D+00
 Coeff-En:   0.176D+00 0.824D+00
 Coeff:      0.750D-01 0.925D+00
 Gap=     0.270 Goal=   None    Shift=    0.000
 RMSDP=9.94D-04 MaxDP=3.42D-02 DE=-7.07D-02 OVMax= 1.20D-01

 Cycle   3  Pass 1  IDiag  1:
 RMSU=  7.94D-04    CP:  9.00D-01  6.53D-01
 E= -232.324251538153     Delta-E=       -0.101715696634 Rises=F Damp=F
 DIIS: error= 6.93D-03 at cycle   3 NSaved=   3.
 NSaved= 3 IEnMin= 3 EnMin= -232.324251538153     IErMin= 3 ErrMin= 6.93D-03
 ErrMax= 6.93D-03  0.00D+00 EMaxC= 1.00D-01 BMatC= 3.66D-03 BMatP= 1.12D-02
 IDIUse=3 WtCom= 9.31D-01 WtEn= 6.93D-02
 Coeff-Com: -0.454D-01 0.333D+00 0.713D+00
 Coeff-En:   0.000D+00 0.000D+00 0.100D+01
 Coeff:     -0.422D-01 0.310D+00 0.733D+00
 Gap=     0.242 Goal=   None    Shift=    0.000
 RMSDP=2.62D-04 MaxDP=7.65D-03 DE=-1.02D-01 OVMax= 1.34D-02

 Cycle   4  Pass 1  IDiag  1:
 RMSU=  2.16D-04    CP:  8.92D-01  6.90D-01  8.53D-01
 E= -232.327756423947     Delta-E=       -0.003504885794 Rises=F Damp=F
 DIIS: error= 8.36D-04 at cycle   4 NSaved=   4.
 NSaved= 4 IEnMin= 4 EnMin= -232.327756423947     IErMin= 4 ErrMin= 8.36D-04
 ErrMax= 8.36D-04  0.00D+00 EMaxC= 1.00D-01 BMatC= 7.90D-05 BMatP= 3.66D-03
 IDIUse=3 WtCom= 9.92D-01 WtEn= 8.36D-03
 Coeff-Com: -0.152D-01 0.325D-01 0.173D+00 0.809D+00
 Coeff-En:   0.000D+00 0.000D+00 0.000D+00 0.100D+01
 Coeff:     -0.151D-01 0.322D-01 0.172D+00 0.811D+00
 Gap=     0.242 Goal=   None    Shift=    0.000
 RMSDP=3.41D-05 MaxDP=1.36D-03 DE=-3.50D-03 OVMax= 1.59D-03

 Cycle   5  Pass 1  IDiag  1:
 RMSU=  2.05D-05    CP:  8.90D-01  7.00D-01  8.74D-01  9.70D-01
 E= -232.327825632849     Delta-E=       -0.000069208902 Rises=F Damp=F
 DIIS: error= 3.67D-05 at cycle   5 NSaved=   5.
 NSaved= 5 IEnMin= 5 EnMin= -232.327825632849     IErMin= 5 ErrMin= 3.67D-05
 ErrMax= 3.67D-05  0.00D+00 EMaxC= 1.00D-01 BMatC= 2.18D-07 BMatP= 7.90D-05
 IDIUse=1 WtCom= 1.00D+00 WtEn= 0.00D+00
 Coeff-Com: -0.546D-03-0.908D-03 0.777D-02 0.744D-01 0.919D+00
 Coeff:     -0.546D-03-0.908D-03 0.777D-02 0.744D-01 0.919D+00
 Gap=     0.242 Goal=   None    Shift=    0.000
 RMSDP=3.95D-06 MaxDP=1.44D-04 DE=-6.92D-05 OVMax= 1.76D-04

 Cycle   6  Pass 1  IDiag  1:
 RMSU=  2.39D-06    CP:  8.90D-01  6.99D-01  8.78D-01  9.69D-01  1.01D+00
 E= -232.327825790715     Delta-E=       -0.000000157867 Rises=F Damp=F
 DIIS: error= 2.29D-05 at cycle   6 NSaved=   6.
 NSaved= 6 IEnMin= 6 EnMin= -232.327825790715     IErMin= 6 ErrMin= 2.29D-05
 ErrMax= 2.29D-05  0.00D+00 EMaxC= 1.00D-01 BMatC= 4.26D-08 BMatP= 2.18D-07
 IDIUse=1 WtCom= 1.00D+00 WtEn= 0.00D+00
 Coeff-Com: -0.131D-03-0.571D-03 0.196D-02 0.265D-01 0.377D+00 0.595D+00
 Coeff:     -0.131D-03-0.571D-03 0.196D-02 0.265D-01 0.377D+00 0.595D+00
 Gap=     0.242 Goal=   None    Shift=    0.000
 RMSDP=9.68D-07 MaxDP=5.07D-05 DE=-1.58D-07 OVMax= 1.66D-04

 Cycle   7  Pass 1  IDiag  1:
 RMSU=  9.08D-07    CP:  8.90D-01  6.99D-01  8.78D-01  9.70D-01  1.02D+00
                    CP:  8.93D-01
 E= -232.327825809966     Delta-E=       -0.000000019251 Rises=F Damp=F
 DIIS: error= 1.80D-05 at cycle   7 NSaved=   7.
 NSaved= 7 IEnMin= 7 EnMin= -232.327825809966     IErMin= 7 ErrMin= 1.80D-05
 ErrMax= 1.80D-05  0.00D+00 EMaxC= 1.00D-01 BMatC= 2.57D-08 BMatP= 4.26D-08
 IDIUse=1 WtCom= 1.00D+00 WtEn= 0.00D+00
 Coeff-Com:  0.372D-04-0.929D-04-0.641D-03-0.780D-03 0.491D-02 0.439D+00
 Coeff-Com:  0.558D+00
 Coeff:      0.372D-04-0.929D-04-0.641D-03-0.780D-03 0.491D-02 0.439D+00
 Coeff:      0.558D+00
 Gap=     0.242 Goal=   None    Shift=    0.000
 RMSDP=4.44D-07 MaxDP=2.39D-05 DE=-1.93D-08 OVMax= 7.43D-05

 Cycle   8  Pass 1  IDiag  1:
 RMSU=  8.74D-08    CP:  8.90D-01  6.99D-01  8.78D-01  9.70D-01  1.02D+00
                    CP:  9.70D-01  5.92D-01
 E= -232.327825839520     Delta-E=       -0.000000029555 Rises=F Damp=F
 DIIS: error= 5.45D-07 at cycle   8 NSaved=   8.
 NSaved= 8 IEnMin= 8 EnMin= -232.327825839520     IErMin= 8 ErrMin= 5.45D-07
 ErrMax= 5.45D-07  0.00D+00 EMaxC= 1.00D-01 BMatC= 4.47D-11 BMatP= 2.57D-08
 IDIUse=1 WtCom= 1.00D+00 WtEn= 0.00D+00
 Coeff-Com:  0.812D-05-0.215D-04-0.191D-03-0.344D-03-0.769D-03 0.111D+00
 Coeff-Com:  0.148D+00 0.742D+00
 Coeff:      0.812D-05-0.215D-04-0.191D-03-0.344D-03-0.769D-03 0.111D+00
 Coeff:      0.148D+00 0.742D+00
 Gap=     0.242 Goal=   None    Shift=    0.000
 RMSDP=3.63D-08 MaxDP=1.46D-06 DE=-2.96D-08 OVMax= 3.62D-06

 Cycle   9  Pass 1  IDiag  1:
 RMSU=  3.21D-08    CP:  8.90D-01  6.99D-01  8.78D-01  9.70D-01  1.03D+00
                    CP:  9.72D-01  5.95D-01  8.55D-01
 E= -232.327825839540     Delta-E=       -0.000000000019 Rises=F Damp=F
 DIIS: error= 4.72D-07 at cycle   9 NSaved=   9.
 NSaved= 9 IEnMin= 9 EnMin= -232.327825839540     IErMin= 9 ErrMin= 4.72D-07
 ErrMax= 4.72D-07  0.00D+00 EMaxC= 1.00D-01 BMatC= 2.80D-11 BMatP= 4.47D-11
 IDIUse=1 WtCom= 1.00D+00 WtEn= 0.00D+00
 Coeff-Com: -0.757D-06-0.116D-06-0.255D-04-0.891D-04-0.101D-02 0.444D-02
 Coeff-Com:  0.920D-02 0.456D+00 0.532D+00
 Coeff:     -0.757D-06-0.116D-06-0.255D-04-0.891D-04-0.101D-02 0.444D-02
 Coeff:      0.920D-02 0.456D+00 0.532D+00
 Gap=     0.242 Goal=   None    Shift=    0.000
 RMSDP=1.64D-08 MaxDP=5.72D-07 DE=-1.93D-11 OVMax= 1.70D-06

 Cycle  10  Pass 1  IDiag  1:
 RMSU=  5.08D-09    CP:  8.90D-01  6.99D-01  8.78D-01  9.70D-01  1.03D+00
                    CP:  9.72D-01  5.96D-01  9.16D-01  5.59D-01
 E= -232.327825839571     Delta-E=       -0.000000000031 Rises=F Damp=F
 DIIS: error= 8.83D-09 at cycle  10 NSaved=  10.
 NSaved=10 IEnMin=10 EnMin= -232.327825839571     IErMin=10 ErrMin= 8.83D-09
 ErrMax= 8.83D-09  0.00D+00 EMaxC= 1.00D-01 BMatC= 1.43D-14 BMatP= 2.80D-11
 IDIUse=1 WtCom= 1.00D+00 WtEn= 0.00D+00
 Coeff-Com: -0.294D-07 0.327D-06 0.105D-05-0.757D-05-0.115D-03-0.170D-02
 Coeff-Com: -0.200D-02 0.184D-01 0.360D-01 0.949D+00
 Coeff:     -0.294D-07 0.327D-06 0.105D-05-0.757D-05-0.115D-03-0.170D-02
 Coeff:     -0.200D-02 0.184D-01 0.360D-01 0.949D+00
 Gap=     0.242 Goal=   None    Shift=    0.000
 RMSDP=1.03D-09 MaxDP=4.34D-08 DE=-3.12D-11 OVMax= 5.22D-08

 SCF Done:  E(RB3LYP) =  -232.327825840     A.U. after   10 cycles
            NFock= 10  Conv=0.10D-08     -V/T= 2.0058
 KE= 2.309941551342D+02 PE=-9.443946859605D+02 EE= 2.780419567770D+02
 Leave Link  502 at Thu Jun 23 11:46:45 2016, MaxMem=    33554432 cpu:       337.9
 (Enter /share/sw/gaussian/D.01/g09/l601.exe)
 Copying SCF densities to generalized density rwf, IOpCl= 0 IROHF=0.

 **********************************************************************

            Population analysis using the SCF density.

 **********************************************************************

 Orbital symmetries:
       Occupied  (A) (A) (A) (A) (A) (A) (A) (A) (A) (A) (A) (A)
                 (A) (A) (A) (A) (A) (A) (A) (A) (A)
       Virtual   (A) (A) (A) (A) (A) (A) (A) (A) (A) (A) (A) (A)
                 (A) (A) (A) (A) (A) (A) (A) (A) (A) (A) (A) (A)
                 (A) (A) (A) (A) (A) (A) (A) (A) (A) (A) (A) (A)
                 (A) (A) (A) (A) (A) (A) (A) (A) (A) (A) (A) (A)
                 (A) (A) (A) (A) (A) (A) (A) (A) (A) (A) (A) (A)
                 (A) (A) (A) (A) (A) (A) (A) (A) (A) (A) (A) (A)
                 (A) (A) (A) (A) (A) (A) (A) (A) (A) (A) (A) (A)
                 (A) (A) (A) (A) (A) (A) (A) (A) (A) (A) (A) (A)
                 (A) (A) (A) (A) (A) (A) (A) (A) (A) (A) (A) (A)
                 (A) (A) (A) (A) (A) (A) (A) (A) (A) (A) (A) (A)
                 (A) (A) (A) (A) (A) (A) (A) (A) (A) (A) (A) (A)
                 (A) (A) (A) (A) (A) (A) (A) (A) (A) (A) (A) (A)
                 (A) (A) (A) (A) (A) (A) (A) (A) (A) (A) (A) (A)
                 (A) (A) (A) (A) (A) (A) (A) (A) (A) (A) (A) (A)
                 (A) (A) (A) (A) (A) (A) (A) (A) (A) (A) (A) (A)
                 (A) (A) (A) (A) (A) (A) (A) (A) (A) (A) (A) (A)
                 (A) (A) (A) (A) (A) (A) (A) (A) (A) (A) (A) (A)
                 (A) (A) (A) (A) (A) (A) (A) (A) (A) (A) (A) (A)
                 (A) (A) (A) (A) (A) (A) (A) (A) (A) (A) (A) (A)
                 (A) (A) (A) (A) (A) (A) (A) (A) (A) (A) (A) (A)
                 (A) (A) (A) (A) (A) (A) (A) (A) (A) (A) (A) (A)
                 (A) (A) (A) (A) (A) (A) (A) (A) (A) (A) (A) (A)
                 (A) (A) (A) (A) (A) (A) (A) (A) (A) (A) (A) (A)
                 (A) (A) (A) (A) (A) (A) (A) (A) (A) (A) (A) (A)
                 (A) (A) (A) (A) (A) (A) (A) (A) (A)
 The electronic state is 1-A.
 Alpha  occ. eigenvalues --  -10.18058 -10.18038 -10.18037 -10.17984 -10.17983
 Alpha  occ. eigenvalues --  -10.17957  -0.85863  -0.74959  -0.74956  -0.60548
 Alpha  occ. eigenvalues --   -0.60543  -0.52589  -0.46157  -0.45249  -0.42514
 Alpha  occ. eigenvalues --   -0.42513  -0.37381  -0.34879  -0.34871  -0.26074
 Alpha  occ. eigenvalues --   -0.26070
 Alpha virt. eigenvalues --   -0.01875  -0.01870   0.00302   0.02136   0.02137
 Alpha virt. eigenvalues --    0.04330   0.04331   0.06032   0.06896   0.07553
 Alpha virt. eigenvalues --    0.08840   0.08859   0.09737   0.12328   0.13832
 Alpha virt. eigenvalues --    0.13870   0.13881   0.13882   0.13883   0.13893
 Alpha virt. eigenvalues --    0.16286   0.18762   0.18770   0.19457   0.19472
 Alpha virt. eigenvalues --    0.19773   0.19858   0.19859   0.21560   0.22008
 Alpha virt. eigenvalues --    0.22024   0.26413   0.27012   0.27783   0.30532
 Alpha virt. eigenvalues --    0.30537   0.31544   0.31550   0.32925   0.36766
 Alpha virt. eigenvalues --    0.39197   0.39210   0.42058   0.42070   0.42529
 Alpha virt. eigenvalues --    0.43245   0.45412   0.45415   0.47069   0.51311
 Alpha virt. eigenvalues --    0.51317   0.52855   0.54038   0.54309   0.54320
 Alpha virt. eigenvalues --    0.55671   0.56908   0.57257   0.57261   0.57320
 Alpha virt. eigenvalues --    0.57322   0.58032   0.58039   0.62544   0.62552
 Alpha virt. eigenvalues --    0.62619   0.66340   0.66353   0.72752   0.72757
 Alpha virt. eigenvalues --    0.72908   0.77635   0.78225   0.78231   0.80078
 Alpha virt. eigenvalues --    0.81204   0.81210   0.87656   0.93364   0.93373
 Alpha virt. eigenvalues --    0.96566   0.96978   0.97376   1.05580   1.05584
 Alpha virt. eigenvalues --    1.06107   1.07854   1.07857   1.11056   1.12396
 Alpha virt. eigenvalues --    1.12399   1.14684   1.14689   1.18386   1.18387
 Alpha virt. eigenvalues --    1.20024   1.20034   1.26086   1.26232   1.27162
 Alpha virt. eigenvalues --    1.27168   1.27328   1.28494   1.29133   1.30705
 Alpha virt. eigenvalues --    1.30708   1.33095   1.33956   1.33959   1.37120
 Alpha virt. eigenvalues --    1.37134   1.38526   1.38532   1.42472   1.46564
 Alpha virt. eigenvalues --    1.46569   1.46873   1.47120   1.47122   1.48408
 Alpha virt. eigenvalues --    1.53488   1.62774   1.62785   1.63851   1.77486
 Alpha virt. eigenvalues --    1.85804   1.85808   1.88072   1.89277   1.89284
 Alpha virt. eigenvalues --    1.99264   1.99276   1.99371   1.99375   2.10347
 Alpha virt. eigenvalues --    2.10348   2.15636   2.30434   2.30447   2.36451
 Alpha virt. eigenvalues --    2.39566   2.39578   2.43874   2.46001   2.46006
 Alpha virt. eigenvalues --    2.53992   2.58101   2.67776   2.70249   2.73130
 Alpha virt. eigenvalues --    2.74020   2.74023   2.75430   2.78635   2.78641
 Alpha virt. eigenvalues --    2.80100   2.80113   2.81179   2.82684   2.82688
 Alpha virt. eigenvalues --    2.85203   2.85208   2.88674   2.97829   2.97831
 Alpha virt. eigenvalues --    3.00438   3.00440   3.02294   3.02298   3.05476
 Alpha virt. eigenvalues --    3.06849   3.07087   3.09065   3.13527   3.13530
 Alpha virt. eigenvalues --    3.17783   3.17792   3.20909   3.20924   3.21194
 Alpha virt. eigenvalues --    3.21203   3.24569   3.36602   3.36609   3.39047
 Alpha virt. eigenvalues --    3.40162   3.40167   3.40459   3.46782   3.53905
 Alpha virt. eigenvalues --    3.61585   3.61591   3.64725   3.67647   3.69537
 Alpha virt. eigenvalues --    3.69540   3.70329   3.70336   3.72384   3.78544
 Alpha virt. eigenvalues --    3.80445   3.80452   3.82841   3.82846   3.84081
 Alpha virt. eigenvalues --    3.87337   3.87339   3.91741   4.05787   4.05814
 Alpha virt. eigenvalues --    4.06876   4.06879   4.16185   4.16192   4.26621
 Alpha virt. eigenvalues --    4.26721   4.29595   4.29605   4.33845   4.34095
 Alpha virt. eigenvalues --    4.37102   4.37109   4.38371   4.38404   4.40299
 Alpha virt. eigenvalues --    4.40335   4.41709   4.43309   4.43313   4.51880
 Alpha virt. eigenvalues --    4.51886   4.55057   4.56870   4.66882   4.68926
 Alpha virt. eigenvalues --    4.68932   4.72110   4.72134   4.75318   4.88660
 Alpha virt. eigenvalues --    4.90756   4.90761   4.91134   4.96386   4.96387
 Alpha virt. eigenvalues --    4.98622   4.98642   5.31458   5.32281   5.32282
 Alpha virt. eigenvalues --    5.35114   5.38327   5.80874   5.80899   6.30981
 Alpha virt. eigenvalues --    6.31014   6.37191   6.37210   6.53097   6.66717
 Alpha virt. eigenvalues --    6.77291   7.09499   7.12743   7.15467   7.15473
 Alpha virt. eigenvalues --    7.18505   7.18511   7.34996   7.35012   7.41001
 Alpha virt. eigenvalues --    7.41021   7.46834   7.46837   7.51305   7.53695
 Alpha virt. eigenvalues --    7.58287   7.63933   7.63936   7.86412   7.90922
 Alpha virt. eigenvalues --    7.94208   7.94246   7.97158   8.03428   8.03439
 Alpha virt. eigenvalues --    8.33080   8.33116   8.50480   8.50498   8.61542
 Alpha virt. eigenvalues --    9.40561  24.42512  25.27636  25.27710  25.59543
 Alpha virt. eigenvalues --   25.59626  25.95357
          Condensed to atoms (all electrons):
               1          2          3          4          5          6
     1  C    5.647029   0.154789  -0.105467  -0.009267  -0.106288   0.151871
     2  C    0.154789   5.645618   0.152796  -0.106326  -0.008728  -0.105925
     3  C   -0.105467   0.152796   5.645951   0.154439  -0.105628  -0.009464
     4  C   -0.009267  -0.106326   0.154439   5.646319   0.153239  -0.105594
     5  C   -0.106288  -0.008728  -0.105628   0.153239   5.645743   0.154632
     6  C    0.151871  -0.105925  -0.009464  -0.105594   0.154632   5.646028
     7  H    0.439431  -0.069602   0.019060  -0.015582   0.019116  -0.069614
     8  H   -0.069517   0.439416  -0.069743   0.019185  -0.015641   0.019222
     9  H    0.019170  -0.069974   0.439793  -0.069689   0.019150  -0.015610
    10  H   -0.015592   0.019152  -0.069368   0.439385  -0.069831   0.019055
    11  H    0.019185  -0.015629   0.019187  -0.069701   0.439480  -0.069619
    12  H   -0.069970   0.019145  -0.015623   0.019209  -0.069671   0.439770
               7          8          9         10         11         12
     1  C    0.439431  -0.069517   0.019170  -0.015592   0.019185  -0.069970
     2  C   -0.069602   0.439416  -0.069974   0.019152  -0.015629   0.019145
     3  C    0.019060  -0.069743   0.439793  -0.069368   0.019187  -0.015623
     4  C   -0.015582   0.019185  -0.069689   0.439385  -0.069701   0.019209
     5  C    0.019116  -0.015641   0.019150  -0.069831   0.439480  -0.069671
     6  C   -0.069614   0.019222  -0.015610   0.019055  -0.069619   0.439770
     7  H    0.627839  -0.002697  -0.000285   0.000040  -0.000285  -0.002705
     8  H   -0.002697   0.627710  -0.002712  -0.000285   0.000041  -0.000285
     9  H   -0.000285  -0.002712   0.627707  -0.002688  -0.000284   0.000040
    10  H    0.000040  -0.000285  -0.002688   0.627790  -0.002703  -0.000285
    11  H   -0.000285   0.000041  -0.000284  -0.002703   0.627684  -0.002701
    12  H   -0.002705  -0.000285   0.000040  -0.000285  -0.002701   0.627741
 Mulliken charges:
               1
     1  C   -0.055375
     2  C   -0.054731
     3  C   -0.055932
     4  C   -0.055618
     5  C   -0.055573
     6  C   -0.054752
     7  H    0.055282
     8  H    0.055305
     9  H    0.055382
    10  H    0.055330
    11  H    0.055346
    12  H    0.055335
 Sum of Mulliken charges =   0.00000
 Mulliken charges with hydrogens summed into heavy atoms:
               1
     1  C   -0.000093
     2  C    0.000574
     3  C   -0.000550
     4  C   -0.000287
     5  C   -0.000227
     6  C    0.000583
 Electronic spatial extent (au):  <R**2>=            461.5074
 Charge=              0.0000 electrons
 Dipole moment (field-independent basis, Debye):
    X=              0.0000    Y=             -0.0002    Z=              0.0008  Tot=              0.0008
 Quadrupole moment (field-independent basis, Debye-Ang):
   XX=            -32.3317   YY=            -32.3319   ZZ=            -40.2203
   XY=              0.0013   XZ=              0.0018   YZ=             -0.0001
 Traceless Quadrupole moment (field-independent basis, Debye-Ang):
   XX=              2.6296   YY=              2.6294   ZZ=             -5.2590
   XY=              0.0013   XZ=              0.0018   YZ=             -0.0001
 Octapole moment (field-independent basis, Debye-Ang**2):
  XXX=             -0.0046  YYY=             -0.0035  ZZZ=              0.0013  XYY=              0.0048
  XXY=              0.0020  XXZ=              0.0042  XZZ=             -0.0002  YZZ=             -0.0013
  YYZ=              0.0030  XYZ=              0.0018
 Hexadecapole moment (field-independent basis, Debye-Ang**3):
 XXXX=           -279.3863 YYYY=           -279.3691 ZZZZ=            -49.7101 XXXY=              0.0056
 XXXZ=              0.0106 YYYX=              0.0082 YYYZ=              0.0030 ZZZX=              0.0026
 ZZZY=             -0.0001 XXYY=            -93.1274 XXZZ=            -65.5560 YYZZ=            -65.5526
 XXYZ=             -0.0035 YYXZ=              0.0053 ZZXY=              0.0008
 N-N= 2.030307482098D+02 E-N=-9.443946871856D+02  KE= 2.309941551342D+02
 No NMR shielding tensors so no spin-rotation constants.
 Leave Link  601 at Thu Jun 23 11:46:45 2016, MaxMem=    33554432 cpu:         0.3
 (Enter /share/sw/gaussian/D.01/g09/l701.exe)
 Compute integral first derivatives.
 ... and contract with generalized density number  0.
 Leave Link  701 at Thu Jun 23 11:46:45 2016, MaxMem=    33554432 cpu:         0.3
 (Enter /share/sw/gaussian/D.01/g09/l702.exe)
 L702 exits ... SP integral derivatives will be done elsewhere.
 Leave Link  702 at Thu Jun 23 11:46:45 2016, MaxMem=    33554432 cpu:         0.0
 (Enter /share/sw/gaussian/D.01/g09/l703.exe)
 Compute integral first derivatives, UseDBF=F ICtDFT=           0.
 Integral derivatives from FoFJK, PRISM(SPDF).
 Calling FoFJK, ICntrl=      2127 FMM=F ISym2X=0 I1Cent= 0 IOpClX= 0 NMat=1 NMatS=1 NMatT=0.
 FoFJK:  IHMeth= 1 ICntrl=    2127 DoSepK=F KAlg= 0 I1Cent=   0 FoldK=F
 IRaf=         0 NMat=   1 IRICut=       1 DoRegI=T DoRafI=F ISym2E= 0.
 FoFCou: FMM=F IPFlag=           0 FMFlag=      100000 FMFlg1=         800
         NFxFlg=           0 DoJE=F BraDBF=F KetDBF=F FulRan=T
         wScrn=  0.000000 ICntrl=    2127 IOpCl=  0 I1Cent=           0 NGrid=           0
         NMat0=    1 NMatS0=      1 NMatT0=    0 NMatD0=    1 NMtDS0=    0 NMtDT0=    0
 Symmetry not used in FoFCou.
 Leave Link  703 at Thu Jun 23 11:48:50 2016, MaxMem=    33554432 cpu:       123.8
 (Enter /share/sw/gaussian/D.01/g09/l716.exe)
 Dipole        =-3.46344125D-06-7.48842553D-05 2.99933247D-04
 ***** Axes restored to original set *****
 -------------------------------------------------------------------
 Center     Atomic                   Forces (Hartrees/Bohr)
 Number     Number              X              Y              Z
 -------------------------------------------------------------------
      1        6          -0.003570684   -0.006318004   -0.000015945
      2        6           0.003524939   -0.006414705    0.000125234
      3        6           0.007234472    0.000357180   -0.000052737
      4        6           0.003897201    0.006064293    0.000034842
      5        6          -0.003784096    0.006281730    0.000017007
      6        6          -0.007274039    0.000099216   -0.000059095
      7        1           0.005758883    0.009958893    0.000000307
      8        1          -0.005740843    0.009980612   -0.000049597
      9        1          -0.011552830   -0.000015209   -0.000008138
     10        1          -0.005811099   -0.009981242   -0.000016584
     11        1           0.005815062   -0.010014543    0.000017219
     12        1           0.011503034    0.000001778    0.000007487
 -------------------------------------------------------------------
 Cartesian Forces:  Max     0.011552830 RMS     0.005566765
 Leave Link  716 at Thu Jun 23 11:48:51 2016, MaxMem=    33554432 cpu:         0.0
 (Enter /share/sw/gaussian/D.01/g09/l103.exe)

 GradGradGradGradGradGradGradGradGradGradGradGradGradGradGradGradGradGrad
 Berny optimization.
 FormGI is forming the generalized inverse of G from B-inverse, IUseBI=4.
 Internal  Forces:  Max     0.011580397 RMS     0.004099316
 Search for a local minimum.
 Step number   1 out of a maximum of   64
 All quantities printed in internal units (Hartrees-Bohrs-Radians)
 RMS Force = .40993D-02 SwitMx=.10000D-02 MixMth= 1
 Mixed Optimization -- RFO/linear search
 Second derivative matrix not updated -- first step.
 ITU=  0
     Eigenvalues ---    0.02152   0.02153   0.02154   0.02155   0.02155
     Eigenvalues ---    0.02155   0.02155   0.02156   0.02157   0.16000
     Eigenvalues ---    0.16000   0.16000   0.16000   0.16000   0.16000
     Eigenvalues ---    0.22000   0.22000   0.22000   0.33709   0.33718
     Eigenvalues ---    0.33718   0.33720   0.33725   0.33726   0.42106
     Eigenvalues ---    0.42123   0.46412   0.46453   0.46466   0.46497
 RFO step:  Lambda=-2.58325144D-03 EMin= 2.15189816D-02
 Linear search not attempted -- first point.
 Iteration  1 RMS(Cart)=  0.01468000 RMS(Int)=  0.00000338
 Iteration  2 RMS(Cart)=  0.00000284 RMS(Int)=  0.00000009
 Iteration  3 RMS(Cart)=  0.00000000 RMS(Int)=  0.00000009
 ITry= 1 IFail=0 DXMaxC= 4.31D-02 DCOld= 1.00D+10 DXMaxT= 3.00D-01 DXLimC= 3.00D+00 Rises=F
 Variable       Old X    -DE/DX   Delta X   Delta X   Delta X     New X
                                 (Linear)    (Quad)   (Total)
    R1        2.63647  -0.00428   0.00000  -0.00916  -0.00916   2.62731
    R2        2.63584  -0.00420   0.00000  -0.00897  -0.00897   2.62688
    R3        2.07796  -0.01150   0.00000  -0.03385  -0.03385   2.04411
    R4        2.63562  -0.00412   0.00000  -0.00882  -0.00882   2.62681
    R5        2.07805  -0.01151   0.00000  -0.03389  -0.03389   2.04416
    R6        2.63697  -0.00451   0.00000  -0.00969  -0.00969   2.62729
    R7        2.07809  -0.01155   0.00000  -0.03400  -0.03400   2.04409
    R8        2.63584  -0.00417   0.00000  -0.00893  -0.00893   2.62691
    R9        2.07809  -0.01155   0.00000  -0.03399  -0.03399   2.04410
   R10        2.63643  -0.00431   0.00000  -0.00922  -0.00922   2.62721
   R11        2.07825  -0.01158   0.00000  -0.03409  -0.03409   2.04415
   R12        2.07795  -0.01150   0.00000  -0.03385  -0.03385   2.04410
    A1        2.09437  -0.00001   0.00000  -0.00002  -0.00002   2.09435
    A2        2.09435   0.00000   0.00000  -0.00005  -0.00005   2.09430
    A3        2.09447   0.00002   0.00000   0.00006   0.00006   2.09453
    A4        2.09455   0.00000   0.00000   0.00001   0.00001   2.09455
    A5        2.09406   0.00002   0.00000   0.00009   0.00009   2.09415
    A6        2.09458  -0.00001   0.00000  -0.00010  -0.00010   2.09448
    A7        2.09429   0.00000   0.00000  -0.00001  -0.00001   2.09428
    A8        2.09462  -0.00002   0.00000  -0.00008  -0.00008   2.09453
    A9        2.09427   0.00001   0.00000   0.00010   0.00010   2.09437
   A10        2.09429   0.00002   0.00000   0.00006   0.00006   2.09435
   A11        2.09407   0.00003   0.00000   0.00021   0.00021   2.09428
   A12        2.09483  -0.00005   0.00000  -0.00027  -0.00027   2.09456
   A13        2.09448   0.00002   0.00000   0.00008   0.00008   2.09455
   A14        2.09459  -0.00004   0.00000  -0.00020  -0.00020   2.09439
   A15        2.09411   0.00002   0.00000   0.00013   0.00013   2.09424
   A16        2.09440  -0.00003   0.00000  -0.00011  -0.00011   2.09428
   A17        2.09453   0.00002   0.00000   0.00008   0.00008   2.09461
   A18        2.09426   0.00001   0.00000   0.00003   0.00003   2.09429
    D1        0.00056  -0.00002   0.00000  -0.00063  -0.00063  -0.00007
    D2        3.14078   0.00002   0.00000   0.00082   0.00082  -3.14159
    D3       -3.14112  -0.00001   0.00000  -0.00061  -0.00061   3.14146
    D4       -0.00091   0.00002   0.00000   0.00084   0.00084  -0.00007
    D5        0.00026  -0.00001   0.00000  -0.00034  -0.00034  -0.00008
    D6        3.14140   0.00001   0.00000   0.00024   0.00024  -3.14154
    D7       -3.14124  -0.00001   0.00000  -0.00036  -0.00036   3.14158
    D8       -0.00010   0.00001   0.00000   0.00022   0.00022   0.00012
    D9       -0.00099   0.00003   0.00000   0.00113   0.00113   0.00014
   D10        3.14093   0.00002   0.00000   0.00075   0.00075  -3.14151
   D11       -3.14120  -0.00001   0.00000  -0.00032  -0.00032  -3.14152
   D12        0.00072  -0.00002   0.00000  -0.00070  -0.00070   0.00002
   D13        0.00060  -0.00002   0.00000  -0.00066  -0.00066  -0.00007
   D14       -3.14153   0.00000   0.00000  -0.00016  -0.00016   3.14149
   D15       -3.14132  -0.00001   0.00000  -0.00028  -0.00028   3.14158
   D16       -0.00026   0.00001   0.00000   0.00022   0.00022  -0.00004
   D17        0.00023  -0.00001   0.00000  -0.00031  -0.00031  -0.00008
   D18       -3.14158   0.00000   0.00000   0.00010   0.00010  -3.14149
   D19       -3.14083  -0.00002   0.00000  -0.00081  -0.00081   3.14154
   D20        0.00054  -0.00001   0.00000  -0.00041  -0.00041   0.00014
   D21       -0.00066   0.00002   0.00000   0.00081   0.00081   0.00016
   D22        3.14138   0.00001   0.00000   0.00023   0.00023  -3.14157
   D23        3.14116   0.00001   0.00000   0.00041   0.00041   3.14156
   D24        0.00001   0.00000   0.00000  -0.00018  -0.00018  -0.00017
         Item               Value     Threshold  Converged?
 Maximum Force            0.011580     0.000450     NO 
 RMS     Force            0.004099     0.000300     NO 
 Maximum Displacement     0.043117     0.001800     NO 
 RMS     Displacement     0.014680     0.001200     NO 
 Predicted change in Energy=-1.301212D-03
 Lowest energy point so far.  Saving SCF results.
 GradGradGradGradGradGradGradGradGradGradGradGradGradGradGradGradGradGrad

 Leave Link  103 at Thu Jun 23 11:48:51 2016, MaxMem=    33554432 cpu:         0.0
 (Enter /share/sw/gaussian/D.01/g09/l202.exe)
                          Input orientation:                          
 ---------------------------------------------------------------------
 Center     Atomic      Atomic             Coordinates (Angstroms)
 Number     Number       Type             X           Y           Z
 ---------------------------------------------------------------------
      1          6           0       -0.043634    0.464267    0.000067
      2          6           0        1.346681    0.464306    0.000547
      3          6           0        2.041863    1.668030   -0.000089
      4          6           0        1.346730    2.872076   -0.001035
      5          6           0       -0.043371    2.872034   -0.001428
      6          6           0       -0.738656    1.668127   -0.000970
      7          1           0       -0.584368   -0.472576    0.000434
      8          1           0        1.887340   -0.472611    0.001351
      9          1           0        3.123549    1.668039    0.000205
     10          1           0        1.887701    3.808776   -0.001437
     11          1           0       -0.584253    3.808818   -0.002262
     12          1           0       -1.820348    1.668382   -0.001293
 ---------------------------------------------------------------------
                    Distance matrix (angstroms):
                    1          2          3          4          5
     1  C    0.000000
     2  C    1.390315   0.000000
     3  C    2.407975   1.390047   0.000000
     4  C    2.780406   2.407770   1.390300   0.000000
     5  C    2.407768   2.780180   2.407867   1.390101   0.000000
     6  C    1.390085   2.407865   2.780519   2.407972   1.390258
     7  H    1.081697   2.146322   3.388109   3.862102   3.388082
     8  H    2.146253   1.081724   2.146212   3.388096   3.861904
     9  H    3.388232   2.146214   1.081687   2.146343   3.388065
    10  H    3.862097   3.387947   2.146289   1.081692   2.146281
    11  H    3.387963   3.861900   3.388135   2.146203   1.081720
    12  H    2.146301   3.388197   3.862211   3.388107   2.146259
                    6          7          8          9         10
     6  C    0.000000
     7  H    2.146256   0.000000
     8  H    3.388011   2.471707   0.000000
     9  H    3.862205   4.281458   2.471963   0.000000
    10  H    3.388234   4.943794   4.281388   2.471857   0.000000
    11  H    2.146252   4.281394   4.943624   4.281441   2.471955
    12  H    1.081692   2.472115   4.281449   4.943898   4.281462
                   11         12
    11  H    0.000000
    12  H    2.471719   0.000000
 Stoichiometry    C6H6
 Framework group  C1[X(C6H6)]
 Deg. of freedom    30
 Full point group                 C1      NOp   1
 RotChk:  IX=2 Diff= 9.11D-01
 Largest Abelian subgroup         C1      NOp   1
 Largest concise Abelian subgroup C1      NOp   1
                         Standard orientation:                         
 ---------------------------------------------------------------------
 Center     Atomic      Atomic             Coordinates (Angstroms)
 Number     Number       Type             X           Y           Z
 ---------------------------------------------------------------------
      1          6           0       -0.980260   -0.985776    0.000004
      2          6           0        0.363735   -1.341658    0.000044
      3          6           0        1.343904   -0.356012   -0.000043
      4          6           0        0.980171    0.985864    0.000001
      5          6           0       -0.363618    1.341690    0.000049
      6          6           0       -1.343934    0.355893   -0.000042
      7          1           0       -1.742806   -1.752972   -0.000056
      8          1           0        0.646527   -2.385763    0.000078
      9          1           0        2.389548   -0.632915   -0.000092
     10          1           0        1.742910    1.752862    0.000027
     11          1           0       -0.646660    2.385723   -0.000015
     12          1           0       -2.389516    0.633053   -0.000022
 ---------------------------------------------------------------------
 Rotational constants (GHZ):      5.7402709      5.7393373      2.8699020
 Leave Link  202 at Thu Jun 23 11:48:51 2016, MaxMem=    33554432 cpu:         0.0
 (Enter /share/sw/gaussian/D.01/g09/l301.exe)
 Standard basis: 6-311+G(3df,2pd) (5D, 7F)
 Ernie: Thresh=  0.10000D-02 Tol=  0.10000D-05 Strict=F.
 There are   360 symmetry adapted cartesian basis functions of A   symmetry.
 There are   318 symmetry adapted basis functions of A   symmetry.
   318 basis functions,   450 primitive gaussians,   360 cartesian basis functions
    21 alpha electrons       21 beta electrons
       nuclear repulsion energy       204.1354401487 Hartrees.
 IExCor=  402 DFT=T Ex+Corr=B3LYP ExCW=0 ScaHFX=  0.200000
 ScaDFX=  0.800000  0.720000  1.000000  0.810000 ScalE2=  1.000000  1.000000
 IRadAn=      0 IRanWt=     -1 IRanGd=            0 ICorTp=0 IEmpDi=  4
 NAtoms=   12 NActive=   12 NUniq=   12 SFac= 1.00D+00 NAtFMM=   60 NAOKFM=F Big=F
 Integral buffers will be    131072 words long.
 Raffenetti 2 integral format.
 Two-electron integral symmetry is turned on.
 Leave Link  301 at Thu Jun 23 11:48:51 2016, MaxMem=    33554432 cpu:         0.0
 (Enter /share/sw/gaussian/D.01/g09/l302.exe)
 NPDir=0 NMtPBC=     1 NCelOv=     1 NCel=       1 NClECP=     1 NCelD=      1
         NCelK=      1 NCelE2=     1 NClLst=     1 CellRange=     0.0.
 One-electron integrals computed using PRISM.
 NBasis=   318 RedAO= T EigKep=  1.83D-06  NBF=   318
 NBsUse=   318 1.00D-06 EigRej= -1.00D+00 NBFU=   318
 Precomputing XC quadrature grid using
 IXCGrd= 4 IRadAn=           0 IRanWt=          -1 IRanGd=           0 AccXCQ= 0.00D+00.
 Generated NRdTot=       0 NPtTot=           0 NUsed=           0 NTot=          32
 NSgBfM=   360   360   360   360   360 MxSgAt=    12 MxSgA2=    12.
 Leave Link  302 at Thu Jun 23 11:48:52 2016, MaxMem=    33554432 cpu:         0.4
 (Enter /share/sw/gaussian/D.01/g09/l303.exe)
 DipDrv:  MaxL=1.
 Leave Link  303 at Thu Jun 23 11:48:52 2016, MaxMem=    33554432 cpu:         0.0
 (Enter /share/sw/gaussian/D.01/g09/l401.exe)
 Initial guess from the checkpoint file:  "b3lyp-Benzene.chk"
 B after Tr=     0.000000    0.000000    0.000000
         Rot=    0.946758    0.000000    0.000000    0.321945 Ang=  37.56 deg.
 Guess basis will be translated and rotated to current coordinates.
 JPrj=2 DoOrth=T DoCkMO=T.
 Generating alternative initial guess.
 ExpMin= 4.38D-02 ExpMax= 4.56D+03 ExpMxC= 6.82D+02 IAcc=2 IRadAn=         4 AccDes= 0.00D+00
 Harris functional with IExCor=  402 and IRadAn=       4 diagonalized for initial guess.
 HarFok:  IExCor=  402 AccDes= 0.00D+00 IRadAn=         4 IDoV= 1 UseB2=F ITyADJ=14
 ICtDFT=  3500011 ScaDFX=  1.000000  1.000000  1.000000  1.000000
 FoFCou: FMM=F IPFlag=           0 FMFlag=      100000 FMFlg1=           0
         NFxFlg=           0 DoJE=T BraDBF=F KetDBF=T FulRan=T
         wScrn=  0.000000 ICntrl=     500 IOpCl=  0 I1Cent=   200000004 NGrid=           0
         NMat0=    1 NMatS0=      1 NMatT0=    0 NMatD0=    1 NMtDS0=    0 NMtDT0=    0
 Petite list used in FoFCou.
 Harris En= -232.378703185111    
 Leave Link  401 at Thu Jun 23 11:48:55 2016, MaxMem=    33554432 cpu:         3.8
 (Enter /share/sw/gaussian/D.01/g09/l502.exe)
 Closed shell SCF:
 Using DIIS extrapolation, IDIIS=  1040.
 Integral symmetry usage will be decided dynamically.
 IVT=      412102 IEndB=      412102 NGot=    33554432 MDV=    33288931
 LenX=    33288931 LenY=    33158890
 Requested convergence on RMS density matrix=1.00D-08 within 128 cycles.
 Requested convergence on MAX density matrix=1.00D-06.
 Requested convergence on             energy=1.00D-06.
 No special actions if energy rises.
 Fock matrices will be formed incrementally for  20 cycles.

 Cycle   1  Pass 1  IDiag  1:
 FoFJK:  IHMeth= 1 ICntrl=       0 DoSepK=F KAlg= 0 I1Cent=   0 FoldK=F
 IRaf= 980000000 NMat=   1 IRICut=       1 DoRegI=T DoRafI=F ISym2E= 0.
 FoFCou: FMM=F IPFlag=           0 FMFlag=      100000 FMFlg1=           0
         NFxFlg=           0 DoJE=F BraDBF=F KetDBF=F FulRan=T
         wScrn=  0.000000 ICntrl=       0 IOpCl=  0 I1Cent=           0 NGrid=           0
         NMat0=    1 NMatS0=      1 NMatT0=    0 NMatD0=    1 NMtDS0=    0 NMtDT0=    0
 Symmetry not used in FoFCou.
 E= -232.328849782646    
 DIIS: error= 1.89D-03 at cycle   1 NSaved=   1.
 NSaved= 1 IEnMin= 1 EnMin= -232.328849782646     IErMin= 1 ErrMin= 1.89D-03
 ErrMax= 1.89D-03  0.00D+00 EMaxC= 1.00D-01 BMatC= 5.68D-04 BMatP= 5.68D-04
 IDIUse=3 WtCom= 9.81D-01 WtEn= 1.89D-02
 Coeff-Com:  0.100D+01
 Coeff-En:   0.100D+01
 Coeff:      0.100D+01
 Gap=     0.521 Goal=   None    Shift=    0.000
 GapD=    0.521 DampG=2.000 DampE=1.000 DampFc=2.0000 IDamp=-1.
 RMSDP=2.39D-04 MaxDP=1.36D-02              OVMax= 4.27D-03

 Cycle   2  Pass 1  IDiag  1:
 RMSU=  2.25D-04    CP:  9.89D-01
 E= -232.329130913509     Delta-E=       -0.000281130863 Rises=F Damp=F
 DIIS: error= 4.49D-04 at cycle   2 NSaved=   2.
 NSaved= 2 IEnMin= 2 EnMin= -232.329130913509     IErMin= 2 ErrMin= 4.49D-04
 ErrMax= 4.49D-04  0.00D+00 EMaxC= 1.00D-01 BMatC= 1.88D-05 BMatP= 5.68D-04
 IDIUse=3 WtCom= 9.96D-01 WtEn= 4.49D-03
 Coeff-Com:  0.751D-01 0.925D+00
 Coeff-En:   0.000D+00 0.100D+01
 Coeff:      0.747D-01 0.925D+00
 Gap=     0.243 Goal=   None    Shift=    0.000
 RMSDP=2.79D-05 MaxDP=8.52D-04 DE=-2.81D-04 OVMax= 1.70D-03

 Cycle   3  Pass 1  IDiag  1:
 RMSU=  2.78D-05    CP:  9.89D-01  9.89D-01
 E= -232.329141959322     Delta-E=       -0.000011045814 Rises=F Damp=F
 DIIS: error= 2.73D-04 at cycle   3 NSaved=   3.
 NSaved= 3 IEnMin= 3 EnMin= -232.329141959322     IErMin= 3 ErrMin= 2.73D-04
 ErrMax= 2.73D-04  0.00D+00 EMaxC= 1.00D-01 BMatC= 8.98D-06 BMatP= 1.88D-05
 IDIUse=3 WtCom= 9.97D-01 WtEn= 2.73D-03
 Coeff-Com:  0.128D-01 0.404D+00 0.583D+00
 Coeff-En:   0.000D+00 0.270D+00 0.730D+00
 Coeff:      0.128D-01 0.404D+00 0.583D+00
 Gap=     0.243 Goal=   None    Shift=    0.000
 RMSDP=1.28D-05 MaxDP=3.43D-04 DE=-1.10D-05 OVMax= 7.50D-04

 Cycle   4  Pass 1  IDiag  1:
 RMSU=  6.18D-06    CP:  9.89D-01  9.73D-01  6.22D-01
 E= -232.329150982361     Delta-E=       -0.000009023039 Rises=F Damp=F
 DIIS: error= 1.05D-04 at cycle   4 NSaved=   4.
 NSaved= 4 IEnMin= 4 EnMin= -232.329150982361     IErMin= 4 ErrMin= 1.05D-04
 ErrMax= 1.05D-04  0.00D+00 EMaxC= 1.00D-01 BMatC= 6.99D-07 BMatP= 8.98D-06
 IDIUse=3 WtCom= 9.99D-01 WtEn= 1.05D-03
 Coeff-Com: -0.239D-03 0.127D+00 0.267D+00 0.607D+00
 Coeff-En:   0.000D+00 0.000D+00 0.000D+00 0.100D+01
 Coeff:     -0.239D-03 0.127D+00 0.266D+00 0.607D+00
 Gap=     0.243 Goal=   None    Shift=    0.000
 RMSDP=2.95D-06 MaxDP=6.73D-05 DE=-9.02D-06 OVMax= 1.78D-04

 Cycle   5  Pass 1  IDiag  1:
 RMSU=  1.29D-06    CP:  9.89D-01  9.80D-01  6.39D-01  6.62D-01
 E= -232.329151653937     Delta-E=       -0.000000671576 Rises=F Damp=F
 DIIS: error= 1.07D-05 at cycle   5 NSaved=   5.
 NSaved= 5 IEnMin= 5 EnMin= -232.329151653937     IErMin= 5 ErrMin= 1.07D-05
 ErrMax= 1.07D-05  0.00D+00 EMaxC= 1.00D-01 BMatC= 1.04D-08 BMatP= 6.99D-07
 IDIUse=1 WtCom= 1.00D+00 WtEn= 0.00D+00
 Coeff-Com: -0.670D-03 0.107D-01 0.314D-01 0.153D+00 0.806D+00
 Coeff:     -0.670D-03 0.107D-01 0.314D-01 0.153D+00 0.806D+00
 Gap=     0.243 Goal=   None    Shift=    0.000
 RMSDP=3.10D-07 MaxDP=1.29D-05 DE=-6.72D-07 OVMax= 4.29D-05

 Cycle   6  Pass 1  IDiag  1:
 RMSU=  2.53D-07    CP:  9.89D-01  9.80D-01  6.39D-01  6.75D-01  8.78D-01
 E= -232.329151660627     Delta-E=       -0.000000006690 Rises=F Damp=F
 DIIS: error= 6.35D-06 at cycle   6 NSaved=   6.
 NSaved= 6 IEnMin= 6 EnMin= -232.329151660627     IErMin= 6 ErrMin= 6.35D-06
 ErrMax= 6.35D-06  0.00D+00 EMaxC= 1.00D-01 BMatC= 2.47D-09 BMatP= 1.04D-08
 IDIUse=1 WtCom= 1.00D+00 WtEn= 0.00D+00
 Coeff-Com: -0.414D-03 0.449D-02 0.150D-01 0.865D-01 0.504D+00 0.390D+00
 Coeff:     -0.414D-03 0.449D-02 0.150D-01 0.865D-01 0.504D+00 0.390D+00
 Gap=     0.243 Goal=   None    Shift=    0.000
 RMSDP=1.48D-07 MaxDP=5.75D-06 DE=-6.69D-09 OVMax= 2.58D-05

 Cycle   7  Pass 1  IDiag  1:
 RMSU=  8.92D-08    CP:  9.89D-01  9.80D-01  6.39D-01  6.77D-01  8.90D-01
                    CP:  5.41D-01
 E= -232.329151663396     Delta-E=       -0.000000002769 Rises=F Damp=F
 DIIS: error= 9.62D-07 at cycle   7 NSaved=   7.
 NSaved= 7 IEnMin= 7 EnMin= -232.329151663396     IErMin= 7 ErrMin= 9.62D-07
 ErrMax= 9.62D-07  0.00D+00 EMaxC= 1.00D-01 BMatC= 5.56D-11 BMatP= 2.47D-09
 IDIUse=1 WtCom= 1.00D+00 WtEn= 0.00D+00
 Coeff-Com:  0.200D-05-0.758D-03-0.152D-02-0.962D-03 0.148D-02 0.127D+00
 Coeff-Com:  0.875D+00
 Coeff:      0.200D-05-0.758D-03-0.152D-02-0.962D-03 0.148D-02 0.127D+00
 Coeff:      0.875D+00
 Gap=     0.243 Goal=   None    Shift=    0.000
 RMSDP=3.27D-08 MaxDP=1.30D-06 DE=-2.77D-09 OVMax= 3.80D-06

 Cycle   8  Pass 1  IDiag  1:
 RMSU=  1.38D-08    CP:  9.89D-01  9.80D-01  6.39D-01  6.79D-01  8.92D-01
                    CP:  6.14D-01  9.48D-01
 E= -232.329151663462     Delta-E=       -0.000000000065 Rises=F Damp=F
 DIIS: error= 1.34D-07 at cycle   8 NSaved=   8.
 NSaved= 8 IEnMin= 8 EnMin= -232.329151663462     IErMin= 8 ErrMin= 1.34D-07
 ErrMax= 1.34D-07  0.00D+00 EMaxC= 1.00D-01 BMatC= 2.06D-12 BMatP= 5.56D-11
 IDIUse=1 WtCom= 1.00D+00 WtEn= 0.00D+00
 Coeff-Com:  0.487D-05-0.430D-03-0.894D-03-0.138D-02-0.427D-02 0.588D-01
 Coeff-Com:  0.432D+00 0.516D+00
 Coeff:      0.487D-05-0.430D-03-0.894D-03-0.138D-02-0.427D-02 0.588D-01
 Coeff:      0.432D+00 0.516D+00
 Gap=     0.243 Goal=   None    Shift=    0.000
 RMSDP=5.46D-09 MaxDP=2.25D-07 DE=-6.51D-11 OVMax= 5.69D-07

 SCF Done:  E(RB3LYP) =  -232.329151663     A.U. after    8 cycles
            NFock=  8  Conv=0.55D-08     -V/T= 2.0048
 KE= 2.312125582174D+02 PE=-9.467841252967D+02 EE= 2.791069752671D+02
 Leave Link  502 at Thu Jun 23 11:53:27 2016, MaxMem=    33554432 cpu:       271.0
 (Enter /share/sw/gaussian/D.01/g09/l701.exe)
 Compute integral first derivatives.
 ... and contract with generalized density number  0.
 Leave Link  701 at Thu Jun 23 11:53:27 2016, MaxMem=    33554432 cpu:         0.2
 (Enter /share/sw/gaussian/D.01/g09/l702.exe)
 L702 exits ... SP integral derivatives will be done elsewhere.
 Leave Link  702 at Thu Jun 23 11:53:27 2016, MaxMem=    33554432 cpu:         0.0
 (Enter /share/sw/gaussian/D.01/g09/l703.exe)
 Compute integral first derivatives, UseDBF=F ICtDFT=           0.
 Integral derivatives from FoFJK, PRISM(SPDF).
 Calling FoFJK, ICntrl=      2127 FMM=F ISym2X=0 I1Cent= 0 IOpClX= 0 NMat=1 NMatS=1 NMatT=0.
 FoFJK:  IHMeth= 1 ICntrl=    2127 DoSepK=F KAlg= 0 I1Cent=   0 FoldK=F
 IRaf=         0 NMat=   1 IRICut=       1 DoRegI=T DoRafI=F ISym2E= 0.
 FoFCou: FMM=F IPFlag=           0 FMFlag=      100000 FMFlg1=         800
         NFxFlg=           0 DoJE=F BraDBF=F KetDBF=F FulRan=T
         wScrn=  0.000000 ICntrl=    2127 IOpCl=  0 I1Cent=           0 NGrid=           0
         NMat0=    1 NMatS0=      1 NMatT0=    0 NMatD0=    1 NMtDS0=    0 NMtDT0=    0
 Symmetry not used in FoFCou.
 Leave Link  703 at Thu Jun 23 11:55:32 2016, MaxMem=    33554432 cpu:       124.4
 (Enter /share/sw/gaussian/D.01/g09/l716.exe)
 Dipole        = 2.85224445D-06 5.81636090D-07-2.35611476D-05
 ***** Axes restored to original set *****
 -------------------------------------------------------------------
 Center     Atomic                   Forces (Hartrees/Bohr)
 Number     Number              X              Y              Z
 -------------------------------------------------------------------
      1        6          -0.000248442   -0.000607633   -0.000003536
      2        6           0.000177523   -0.000598507   -0.000007980
      3        6           0.000520617    0.000125245    0.000009202
      4        6           0.000413625    0.000507586    0.000001955
      5        6          -0.000338333    0.000504471   -0.000016014
      6        6          -0.000527414    0.000062928    0.000013396
      7        1          -0.000053178   -0.000083292    0.000003528
      8        1           0.000061478   -0.000076485   -0.000000892
      9        1           0.000116192   -0.000008689    0.000001113
     10        1           0.000037955    0.000096065   -0.000002287
     11        1          -0.000047638    0.000087617    0.000005343
     12        1          -0.000112385   -0.000009305   -0.000003828
 -------------------------------------------------------------------
 Cartesian Forces:  Max     0.000607633 RMS     0.000250232
 Leave Link  716 at Thu Jun 23 11:55:32 2016, MaxMem=    33554432 cpu:         0.0
 (Enter /share/sw/gaussian/D.01/g09/l103.exe)

 GradGradGradGradGradGradGradGradGradGradGradGradGradGradGradGradGradGrad
 Berny optimization.
 Using GEDIIS/GDIIS optimizer.
 FormGI is forming the generalized inverse of G from B-inverse, IUseBI=4.
 Internal  Forces:  Max     0.000792190 RMS     0.000236587
 Search for a local minimum.
 Step number   2 out of a maximum of   64
 All quantities printed in internal units (Hartrees-Bohrs-Radians)
 RMS Force = .23659D-03 SwitMx=.10000D-02 MixMth= 2
 Mixed Optimization -- En-DIIS/RFO-DIIS
 Update second derivatives using D2CorX and points    1    2
 DE= -1.33D-03 DEPred=-1.30D-03 R= 1.02D+00
 TightC=F SS=  1.41D+00  RLast= 8.62D-02 DXNew= 5.0454D-01 2.5846D-01
 Trust test= 1.02D+00 RLast= 8.62D-02 DXMaxT set to 3.00D-01
 ITU=  1  0
 Use linear search instead of GDIIS.
     Eigenvalues ---    0.02152   0.02153   0.02154   0.02155   0.02155
     Eigenvalues ---    0.02155   0.02155   0.02156   0.02157   0.16000
     Eigenvalues ---    0.16000   0.16000   0.16000   0.16000   0.16000
     Eigenvalues ---    0.21999   0.22000   0.22000   0.33595   0.33711
     Eigenvalues ---    0.33718   0.33720   0.33723   0.33727   0.42082
     Eigenvalues ---    0.42098   0.46438   0.46459   0.46466   0.48061
 RFO step:  Lambda=-5.08421603D-06 EMin= 2.15189962D-02
 Quartic linear search produced a step of -0.01962.
 Iteration  1 RMS(Cart)=  0.00071773 RMS(Int)=  0.00000005
 Iteration  2 RMS(Cart)=  0.00000006 RMS(Int)=  0.00000000
 ITry= 1 IFail=0 DXMaxC= 1.64D-03 DCOld= 1.00D+10 DXMaxT= 3.00D-01 DXLimC= 3.00D+00 Rises=F
 Variable       Old X    -DE/DX   Delta X   Delta X   Delta X     New X
                                 (Linear)    (Quad)   (Total)
    R1        2.62731   0.00061   0.00018   0.00108   0.00126   2.62857
    R2        2.62688   0.00073   0.00018   0.00134   0.00151   2.62839
    R3        2.04411   0.00010   0.00066  -0.00055   0.00011   2.04423
    R4        2.62681   0.00079   0.00017   0.00146   0.00163   2.62844
    R5        2.04416   0.00010   0.00066  -0.00056   0.00011   2.04427
    R6        2.62729   0.00063   0.00019   0.00111   0.00130   2.62859
    R7        2.04409   0.00012   0.00067  -0.00050   0.00016   2.04426
    R8        2.62691   0.00071   0.00018   0.00129   0.00147   2.62838
    R9        2.04410   0.00010   0.00067  -0.00054   0.00012   2.04422
   R10        2.62721   0.00070   0.00018   0.00125   0.00143   2.62864
   R11        2.04415   0.00010   0.00067  -0.00055   0.00012   2.04427
   R12        2.04410   0.00011   0.00066  -0.00051   0.00015   2.04426
    A1        2.09435  -0.00005   0.00000  -0.00023  -0.00023   2.09412
    A2        2.09430   0.00003   0.00000   0.00013   0.00014   2.09444
    A3        2.09453   0.00002   0.00000   0.00010   0.00009   2.09463
    A4        2.09455   0.00000   0.00000   0.00000   0.00000   2.09456
    A5        2.09415   0.00002   0.00000   0.00010   0.00010   2.09425
    A6        2.09448  -0.00002   0.00000  -0.00010  -0.00010   2.09438
    A7        2.09428   0.00005   0.00000   0.00023   0.00023   2.09451
    A8        2.09453  -0.00003   0.00000  -0.00016  -0.00016   2.09437
    A9        2.09437  -0.00002   0.00000  -0.00006  -0.00007   2.09431
   A10        2.09435  -0.00005   0.00000  -0.00023  -0.00023   2.09412
   A11        2.09428   0.00004   0.00000   0.00022   0.00022   2.09450
   A12        2.09456   0.00001   0.00001   0.00001   0.00001   2.09457
   A13        2.09455   0.00000   0.00000   0.00000   0.00000   2.09456
   A14        2.09439   0.00000   0.00000  -0.00002  -0.00001   2.09438
   A15        2.09424   0.00000   0.00000   0.00001   0.00001   2.09425
   A16        2.09428   0.00005   0.00000   0.00023   0.00023   2.09451
   A17        2.09461  -0.00004   0.00000  -0.00018  -0.00018   2.09444
   A18        2.09429  -0.00001   0.00000  -0.00005  -0.00005   2.09424
    D1       -0.00007   0.00000   0.00001   0.00005   0.00006   0.00000
    D2       -3.14159   0.00000  -0.00002   0.00004   0.00002  -3.14157
    D3        3.14146   0.00000   0.00001   0.00012   0.00013   3.14158
    D4       -0.00007   0.00000  -0.00002   0.00010   0.00009   0.00002
    D5       -0.00008   0.00000   0.00001   0.00008   0.00008   0.00000
    D6       -3.14154   0.00000   0.00000  -0.00004  -0.00004  -3.14158
    D7        3.14158   0.00000   0.00001   0.00001   0.00002  -3.14159
    D8        0.00012   0.00000   0.00000  -0.00010  -0.00011   0.00002
    D9        0.00014   0.00000  -0.00002  -0.00011  -0.00014   0.00000
   D10       -3.14151   0.00000  -0.00001  -0.00004  -0.00006  -3.14156
   D11       -3.14152   0.00000   0.00001  -0.00010  -0.00010   3.14157
   D12        0.00002   0.00000   0.00001  -0.00003  -0.00001   0.00000
   D13       -0.00007   0.00000   0.00001   0.00005   0.00007   0.00000
   D14        3.14149   0.00000   0.00000   0.00010   0.00011  -3.14158
   D15        3.14158   0.00000   0.00001  -0.00002  -0.00002   3.14157
   D16       -0.00004   0.00000   0.00000   0.00003   0.00003  -0.00002
   D17       -0.00008   0.00000   0.00001   0.00008   0.00008   0.00000
   D18       -3.14149   0.00000   0.00000  -0.00011  -0.00011   3.14159
   D19        3.14154   0.00000   0.00002   0.00002   0.00004   3.14158
   D20        0.00014   0.00000   0.00001  -0.00016  -0.00015  -0.00002
   D21        0.00016   0.00000  -0.00002  -0.00014  -0.00016   0.00000
   D22       -3.14157   0.00000   0.00000  -0.00002  -0.00003   3.14158
   D23        3.14156   0.00000  -0.00001   0.00004   0.00004  -3.14159
   D24       -0.00017   0.00000   0.00000   0.00016   0.00016   0.00000
         Item               Value     Threshold  Converged?
 Maximum Force            0.000792     0.000450     NO 
 RMS     Force            0.000237     0.000300     YES
 Maximum Displacement     0.001640     0.001800     YES
 RMS     Displacement     0.000718     0.001200     YES
 Predicted change in Energy=-3.157899D-06
 Lowest energy point so far.  Saving SCF results.
 GradGradGradGradGradGradGradGradGradGradGradGradGradGradGradGradGradGrad

 Leave Link  103 at Thu Jun 23 11:55:32 2016, MaxMem=    33554432 cpu:         0.0
 (Enter /share/sw/gaussian/D.01/g09/l202.exe)
                          Input orientation:                          
 ---------------------------------------------------------------------
 Center     Atomic      Atomic             Coordinates (Angstroms)
 Number     Number       Type             X           Y           Z
 ---------------------------------------------------------------------
      1          6           0       -0.044042    0.463451    0.000060
      2          6           0        1.346938    0.463584    0.000511
      3          6           0        2.042473    1.668102   -0.000040
      4          6           0        1.347195    2.872857   -0.001037
      5          6           0       -0.043682    2.872724   -0.001488
      6          6           0       -0.739268    1.668116   -0.000939
      7          1           0       -0.584870   -0.473408    0.000480
      8          1           0        1.887784   -0.473293    0.001267
      9          1           0        3.124247    1.668005    0.000285
     10          1           0        1.888147    3.809643   -0.001473
     11          1           0       -0.584647    3.809531   -0.002258
     12          1           0       -1.821042    1.668354   -0.001279
 ---------------------------------------------------------------------
                    Distance matrix (angstroms):
                    1          2          3          4          5
     1  C    0.000000
     2  C    1.390981   0.000000
     3  C    2.409301   1.390911   0.000000
     4  C    2.782226   2.409274   1.390988   0.000000
     5  C    2.409274   2.781688   2.408975   1.390877   0.000000
     6  C    1.390884   2.408975   2.781741   2.409300   1.391014
     7  H    1.081757   2.147053   3.389542   3.863983   3.389615
     8  H    2.146961   1.081782   2.146975   3.389536   3.863469
     9  H    3.389544   2.146964   1.081774   2.146994   3.389266
    10  H    3.863983   3.389547   2.147096   1.081757   2.147040
    11  H    3.389471   3.863469   3.389319   2.146945   1.081781
    12  H    2.146980   3.389333   3.863515   3.389477   2.146978
                    6          7          8          9         10
     6  C    0.000000
     7  H    2.147083   0.000000
     8  H    3.389253   2.472654   0.000000
     9  H    3.863515   4.282896   2.472650   0.000000
    10  H    3.389609   4.945740   4.282937   2.472764   0.000000
    11  H    2.146990   4.282940   4.945250   4.282760   2.472794
    12  H    1.081774   2.472907   4.282762   4.945289   4.282897
                   11         12
    11  H    0.000000
    12  H    2.472511   0.000000
 Stoichiometry    C6H6
 Framework group  C1[X(C6H6)]
 Deg. of freedom    30
 Full point group                 C1      NOp   1
 RotChk:  IX=1 Diff= 1.06D+00
 Largest Abelian subgroup         C1      NOp   1
 Largest concise Abelian subgroup C1      NOp   1
                         Standard orientation:                         
 ---------------------------------------------------------------------
 Center     Atomic      Atomic             Coordinates (Angstroms)
 Number     Number       Type             X           Y           Z
 ---------------------------------------------------------------------
      1          6           0       -1.390907   -0.023916    0.000000
      2          6           0       -0.674609   -1.216285    0.000005
      3          6           0        0.716096   -1.192362    0.000003
      4          6           0        1.390906    0.023976    0.000002
      5          6           0        0.674662    1.216256   -0.000002
      6          6           0       -0.716147    1.192332   -0.000002
      7          1           0       -2.472502   -0.042651   -0.000007
      8          1           0       -1.199291   -2.162308   -0.000014
      9          1           0        1.272993   -2.119778   -0.000020
     10          1           0        2.472503    0.042567   -0.000007
     11          1           0        1.199222    2.162346    0.000003
     12          1           0       -1.272923    2.119820    0.000005
 ---------------------------------------------------------------------
 Rotational constants (GHZ):      5.7348978      5.7332111      2.8670271
 Leave Link  202 at Thu Jun 23 11:55:32 2016, MaxMem=    33554432 cpu:         0.0
 (Enter /share/sw/gaussian/D.01/g09/l301.exe)
 Standard basis: 6-311+G(3df,2pd) (5D, 7F)
 Ernie: Thresh=  0.10000D-02 Tol=  0.10000D-05 Strict=F.
 There are   360 symmetry adapted cartesian basis functions of A   symmetry.
 There are   318 symmetry adapted basis functions of A   symmetry.
   318 basis functions,   450 primitive gaussians,   360 cartesian basis functions
    21 alpha electrons       21 beta electrons
       nuclear repulsion energy       204.0389661516 Hartrees.
 IExCor=  402 DFT=T Ex+Corr=B3LYP ExCW=0 ScaHFX=  0.200000
 ScaDFX=  0.800000  0.720000  1.000000  0.810000 ScalE2=  1.000000  1.000000
 IRadAn=      0 IRanWt=     -1 IRanGd=            0 ICorTp=0 IEmpDi=  4
 NAtoms=   12 NActive=   12 NUniq=   12 SFac= 1.00D+00 NAtFMM=   60 NAOKFM=F Big=F
 Integral buffers will be    131072 words long.
 Raffenetti 2 integral format.
 Two-electron integral symmetry is turned on.
 Leave Link  301 at Thu Jun 23 11:55:32 2016, MaxMem=    33554432 cpu:         0.1
 (Enter /share/sw/gaussian/D.01/g09/l302.exe)
 NPDir=0 NMtPBC=     1 NCelOv=     1 NCel=       1 NClECP=     1 NCelD=      1
         NCelK=      1 NCelE2=     1 NClLst=     1 CellRange=     0.0.
 One-electron integrals computed using PRISM.
 NBasis=   318 RedAO= T EigKep=  1.85D-06  NBF=   318
 NBsUse=   318 1.00D-06 EigRej= -1.00D+00 NBFU=   318
 Precomputing XC quadrature grid using
 IXCGrd= 4 IRadAn=           0 IRanWt=          -1 IRanGd=           0 AccXCQ= 0.00D+00.
 Generated NRdTot=       0 NPtTot=           0 NUsed=           0 NTot=          32
 NSgBfM=   360   360   360   360   360 MxSgAt=    12 MxSgA2=    12.
 Leave Link  302 at Thu Jun 23 11:55:33 2016, MaxMem=    33554432 cpu:         0.4
 (Enter /share/sw/gaussian/D.01/g09/l303.exe)
 DipDrv:  MaxL=1.
 Leave Link  303 at Thu Jun 23 11:55:33 2016, MaxMem=    33554432 cpu:         0.0
 (Enter /share/sw/gaussian/D.01/g09/l401.exe)
 Initial guess from the checkpoint file:  "b3lyp-Benzene.chk"
 B after Tr=     0.000000    0.000000    0.000000
         Rot=    0.926600    0.000000    0.000000    0.376048 Ang=  44.18 deg.
 Guess basis will be translated and rotated to current coordinates.
 JPrj=2 DoOrth=T DoCkMO=T.
 Leave Link  401 at Thu Jun 23 11:55:33 2016, MaxMem=    33554432 cpu:         0.2
 (Enter /share/sw/gaussian/D.01/g09/l502.exe)
 Closed shell SCF:
 Using DIIS extrapolation, IDIIS=  1040.
 Integral symmetry usage will be decided dynamically.
 IVT=      412102 IEndB=      412102 NGot=    33554432 MDV=    33288931
 LenX=    33288931 LenY=    33158890
 Requested convergence on RMS density matrix=1.00D-08 within 128 cycles.
 Requested convergence on MAX density matrix=1.00D-06.
 Requested convergence on             energy=1.00D-06.
 No special actions if energy rises.
 Fock matrices will be formed incrementally for  20 cycles.

 Cycle   1  Pass 1  IDiag  1:
 FoFJK:  IHMeth= 1 ICntrl=       0 DoSepK=F KAlg= 0 I1Cent=   0 FoldK=F
 IRaf= 980000000 NMat=   1 IRICut=       1 DoRegI=T DoRafI=F ISym2E= 0.
 FoFCou: FMM=F IPFlag=           0 FMFlag=      100000 FMFlg1=           0
         NFxFlg=           0 DoJE=F BraDBF=F KetDBF=F FulRan=T
         wScrn=  0.000000 ICntrl=       0 IOpCl=  0 I1Cent=           0 NGrid=           0
         NMat0=    1 NMatS0=      1 NMatT0=    0 NMatD0=    1 NMtDS0=    0 NMtDT0=    0
 Symmetry not used in FoFCou.
 E= -232.329120914972    
 DIIS: error= 1.03D-04 at cycle   1 NSaved=   1.
 NSaved= 1 IEnMin= 1 EnMin= -232.329120914972     IErMin= 1 ErrMin= 1.03D-04
 ErrMax= 1.03D-04  0.00D+00 EMaxC= 1.00D-01 BMatC= 1.64D-06 BMatP= 1.64D-06
 IDIUse=3 WtCom= 9.99D-01 WtEn= 1.03D-03
 Coeff-Com:  0.100D+01
 Coeff-En:   0.100D+01
 Coeff:      0.100D+01
 Gap=     0.521 Goal=   None    Shift=    0.000
 RMSDP=2.07D-05 MaxDP=5.09D-04              OVMax= 2.56D-04

 Cycle   2  Pass 1  IDiag  1:
 RMSU=  2.04D-05    CP:  1.00D+00
 E= -232.329121496239     Delta-E=       -0.000000581267 Rises=F Damp=F
 DIIS: error= 5.36D-05 at cycle   2 NSaved=   2.
 NSaved= 2 IEnMin= 2 EnMin= -232.329121496239     IErMin= 2 ErrMin= 5.36D-05
 ErrMax= 5.36D-05  0.00D+00 EMaxC= 1.00D-01 BMatC= 1.96D-07 BMatP= 1.64D-06
 IDIUse=1 WtCom= 1.00D+00 WtEn= 0.00D+00
 Coeff-Com:  0.163D+00 0.837D+00
 Coeff:      0.163D+00 0.837D+00
 Gap=     0.243 Goal=   None    Shift=    0.000
 RMSDP=2.59D-06 MaxDP=6.85D-05 DE=-5.81D-07 OVMax= 1.65D-04

 Cycle   3  Pass 1  IDiag  1:
 RMSU=  2.55D-06    CP:  1.00D+00  1.00D+00
 E= -232.329121538132     Delta-E=       -0.000000041893 Rises=F Damp=F
 DIIS: error= 4.54D-05 at cycle   3 NSaved=   3.
 NSaved= 3 IEnMin= 3 EnMin= -232.329121538132     IErMin= 3 ErrMin= 4.54D-05
 ErrMax= 4.54D-05  0.00D+00 EMaxC= 1.00D-01 BMatC= 1.42D-07 BMatP= 1.96D-07
 IDIUse=1 WtCom= 1.00D+00 WtEn= 0.00D+00
 Coeff-Com: -0.102D-02 0.460D+00 0.541D+00
 Coeff:     -0.102D-02 0.460D+00 0.541D+00
 Gap=     0.243 Goal=   None    Shift=    0.000
 RMSDP=1.21D-06 MaxDP=3.01D-05 DE=-4.19D-08 OVMax= 8.28D-05

 Cycle   4  Pass 1  IDiag  1:
 RMSU=  3.36D-07    CP:  1.00D+00  1.02D+00  5.61D-01
 E= -232.329121685446     Delta-E=       -0.000000147314 Rises=F Damp=F
 DIIS: error= 1.12D-06 at cycle   4 NSaved=   4.
 NSaved= 4 IEnMin= 4 EnMin= -232.329121685446     IErMin= 4 ErrMin= 1.12D-06
 ErrMax= 1.12D-06  0.00D+00 EMaxC= 1.00D-01 BMatC= 2.10D-10 BMatP= 1.42D-07
 IDIUse=1 WtCom= 1.00D+00 WtEn= 0.00D+00
 Coeff-Com: -0.122D-02 0.545D-01 0.892D-01 0.858D+00
 Coeff:     -0.122D-02 0.545D-01 0.892D-01 0.858D+00
 Gap=     0.243 Goal=   None    Shift=    0.000
 RMSDP=8.94D-08 MaxDP=3.37D-06 DE=-1.47D-07 OVMax= 5.71D-06

[...]
 ! A12   A(5,4,10)             120.01           -DE/DX =    0.0                 !
 ! A13   A(4,5,6)              120.0092         -DE/DX =    0.0                 !
 ! A14   A(4,5,11)             119.9991         -DE/DX =    0.0                 !
 ! A15   A(6,5,11)             119.9917         -DE/DX =    0.0                 !
 ! A16   A(1,6,5)              120.0065         -DE/DX =    0.0                 !
 ! A17   A(1,6,12)             120.0023         -DE/DX =    0.0                 !
 ! A18   A(5,6,12)             119.9912         -DE/DX =    0.0                 !
 ! D1    D(6,1,2,3)             -0.0002         -DE/DX =    0.0                 !
 ! D2    D(6,1,2,8)            180.0013         -DE/DX =    0.0                 !
 ! D3    D(7,1,2,3)           -180.0005         -DE/DX =    0.0                 !
 ! D4    D(7,1,2,8)              0.001          -DE/DX =    0.0                 !
 ! D5    D(2,1,6,5)              0.0001         -DE/DX =    0.0                 !
 ! D6    D(2,1,6,12)           180.0007         -DE/DX =    0.0                 !
 ! D7    D(7,1,6,5)            180.0004         -DE/DX =    0.0                 !
 ! D8    D(7,1,6,12)             0.001          -DE/DX =    0.0                 !
 ! D9    D(1,2,3,4)              0.0003         -DE/DX =    0.0                 !
 ! D10   D(1,2,3,9)            180.0016         -DE/DX =    0.0                 !
 ! D11   D(8,2,3,4)           -180.0012         -DE/DX =    0.0                 !
 ! D12   D(8,2,3,9)              0.0001         -DE/DX =    0.0                 !
 ! D13   D(2,3,4,5)             -0.0002         -DE/DX =    0.0                 !
 ! D14   D(2,3,4,10)          -179.9996         -DE/DX =    0.0                 !
 ! D15   D(9,3,4,5)           -180.0016         -DE/DX =    0.0                 !
 ! D16   D(9,3,4,10)            -0.0009         -DE/DX =    0.0                 !
 ! D17   D(3,4,5,6)              0.0001         -DE/DX =    0.0                 !
 ! D18   D(3,4,5,11)           179.9997         -DE/DX =    0.0                 !
 ! D19   D(10,4,5,6)          -180.0006         -DE/DX =    0.0                 !
 ! D20   D(10,4,5,11)           -0.001          -DE/DX =    0.0                 !
 ! D21   D(4,5,6,1)             -0.0001         -DE/DX =    0.0                 !
 ! D22   D(4,5,6,12)           179.9994         -DE/DX =    0.0                 !
 ! D23   D(11,5,6,1)          -179.9996         -DE/DX =    0.0                 !
 ! D24   D(11,5,6,12)           -0.0002         -DE/DX =    0.0                 !
 --------------------------------------------------------------------------------
 GradGradGradGradGradGradGradGradGradGradGradGradGradGradGradGradGradGrad

 Largest change from initial coordinates is atom   11       3.250 Angstoms.
 Leave Link  103 at Thu Jun 23 12:01:00 2016, MaxMem=    33554432 cpu:         0.0
 (Enter /share/sw/gaussian/D.01/g09/l202.exe)
                          Input orientation:                          
 ---------------------------------------------------------------------
 Center     Atomic      Atomic             Coordinates (Angstroms)
 Number     Number       Type             X           Y           Z
 ---------------------------------------------------------------------
      1          6           0       -0.044042    0.463451    0.000060
      2          6           0        1.346938    0.463584    0.000511
      3          6           0        2.042473    1.668102   -0.000040
      4          6           0        1.347195    2.872857   -0.001037
      5          6           0       -0.043682    2.872724   -0.001488
      6          6           0       -0.739268    1.668116   -0.000939
      7          1           0       -0.584870   -0.473408    0.000480
      8          1           0        1.887784   -0.473293    0.001267
      9          1           0        3.124247    1.668005    0.000285
     10          1           0        1.888147    3.809643   -0.001473
     11          1           0       -0.584647    3.809531   -0.002258
     12          1           0       -1.821042    1.668354   -0.001279
 ---------------------------------------------------------------------
                    Distance matrix (angstroms):
                    1          2          3          4          5
     1  C    0.000000
     2  C    1.390981   0.000000
     3  C    2.409301   1.390911   0.000000
     4  C    2.782226   2.409274   1.390988   0.000000
     5  C    2.409274   2.781688   2.408975   1.390877   0.000000
     6  C    1.390884   2.408975   2.781741   2.409300   1.391014
     7  H    1.081757   2.147053   3.389542   3.863983   3.389615
     8  H    2.146961   1.081782   2.146975   3.389536   3.863469
     9  H    3.389544   2.146964   1.081774   2.146994   3.389266
    10  H    3.863983   3.389547   2.147096   1.081757   2.147040
    11  H    3.389471   3.863469   3.389319   2.146945   1.081781
    12  H    2.146980   3.389333   3.863515   3.389477   2.146978
                    6          7          8          9         10
     6  C    0.000000
     7  H    2.147083   0.000000
     8  H    3.389253   2.472654   0.000000
     9  H    3.863515   4.282896   2.472650   0.000000
    10  H    3.389609   4.945740   4.282937   2.472764   0.000000
    11  H    2.146990   4.282940   4.945250   4.282760   2.472794
    12  H    1.081774   2.472907   4.282762   4.945289   4.282897
                   11         12
    11  H    0.000000
    12  H    2.472511   0.000000
 Stoichiometry    C6H6
 Framework group  C1[X(C6H6)]
 Deg. of freedom    30
 Full point group                 C1      NOp   1
 RotChk:  IX=1 Diff= 1.57D-12
 Largest Abelian subgroup         C1      NOp   1
 Largest concise Abelian subgroup C1      NOp   1
                         Standard orientation:                         
 ---------------------------------------------------------------------
 Center     Atomic      Atomic             Coordinates (Angstroms)
 Number     Number       Type             X           Y           Z
 ---------------------------------------------------------------------
      1          6           0       -1.390907   -0.023916    0.000000
      2          6           0       -0.674609   -1.216285    0.000005
      3          6           0        0.716096   -1.192362    0.000003
      4          6           0        1.390906    0.023976    0.000002
      5          6           0        0.674662    1.216256   -0.000002
      6          6           0       -0.716147    1.192332   -0.000002
      7          1           0       -2.472502   -0.042651   -0.000007
      8          1           0       -1.199291   -2.162308   -0.000014
      9          1           0        1.272993   -2.119778   -0.000020
     10          1           0        2.472503    0.042567   -0.000007
     11          1           0        1.199222    2.162346    0.000003
     12          1           0       -1.272923    2.119820    0.000005
 ---------------------------------------------------------------------
 Rotational constants (GHZ):      5.7348978      5.7332111      2.8670271
 Leave Link  202 at Thu Jun 23 12:01:00 2016, MaxMem=    33554432 cpu:         0.0
 (Enter /share/sw/gaussian/D.01/g09/l601.exe)
 Copying SCF densities to generalized density rwf, IOpCl= 0 IROHF=0.

 **********************************************************************

            Population analysis using the SCF density.

 **********************************************************************

 Orbital symmetries:
       Occupied  (A) (A) (A) (A) (A) (A) (A) (A) (A) (A) (A) (A)
                 (A) (A) (A) (A) (A) (A) (A) (A) (A)
       Virtual   (A) (A) (A) (A) (A) (A) (A) (A) (A) (A) (A) (A)
                 (A) (A) (A) (A) (A) (A) (A) (A) (A) (A) (A) (A)
                 (A) (A) (A) (A) (A) (A) (A) (A) (A) (A) (A) (A)
                 (A) (A) (A) (A) (A) (A) (A) (A) (A) (A) (A) (A)
                 (A) (A) (A) (A) (A) (A) (A) (A) (A) (A) (A) (A)
                 (A) (A) (A) (A) (A) (A) (A) (A) (A) (A) (A) (A)
                 (A) (A) (A) (A) (A) (A) (A) (A) (A) (A) (A) (A)
                 (A) (A) (A) (A) (A) (A) (A) (A) (A) (A) (A) (A)
                 (A) (A) (A) (A) (A) (A) (A) (A) (A) (A) (A) (A)
                 (A) (A) (A) (A) (A) (A) (A) (A) (A) (A) (A) (A)
                 (A) (A) (A) (A) (A) (A) (A) (A) (A) (A) (A) (A)
                 (A) (A) (A) (A) (A) (A) (A) (A) (A) (A) (A) (A)
                 (A) (A) (A) (A) (A) (A) (A) (A) (A) (A) (A) (A)
                 (A) (A) (A) (A) (A) (A) (A) (A) (A) (A) (A) (A)
                 (A) (A) (A) (A) (A) (A) (A) (A) (A) (A) (A) (A)
                 (A) (A) (A) (A) (A) (A) (A) (A) (A) (A) (A) (A)
                 (A) (A) (A) (A) (A) (A) (A) (A) (A) (A) (A) (A)
                 (A) (A) (A) (A) (A) (A) (A) (A) (A) (A) (A) (A)
                 (A) (A) (A) (A) (A) (A) (A) (A) (A) (A) (A) (A)
                 (A) (A) (A) (A) (A) (A) (A) (A) (A) (A) (A) (A)
                 (A) (A) (A) (A) (A) (A) (A) (A) (A) (A) (A) (A)
                 (A) (A) (A) (A) (A) (A) (A) (A) (A) (A) (A) (A)
                 (A) (A) (A) (A) (A) (A) (A) (A) (A) (A) (A) (A)
                 (A) (A) (A) (A) (A) (A) (A) (A) (A) (A) (A) (A)
                 (A) (A) (A) (A) (A) (A) (A) (A) (A)
 The electronic state is 1-A.
 Alpha  occ. eigenvalues --  -10.17695 -10.17674 -10.17674 -10.17619 -10.17618
 Alpha  occ. eigenvalues --  -10.17591  -0.86032  -0.75137  -0.75133  -0.60791
 Alpha  occ. eigenvalues --   -0.60790  -0.53002  -0.46555  -0.45294  -0.42747
 Alpha  occ. eigenvalues --   -0.42740  -0.37453  -0.34993  -0.34987  -0.26072
 Alpha  occ. eigenvalues --   -0.26069
 Alpha virt. eigenvalues --   -0.01758  -0.01756   0.00399   0.02193   0.02194
 Alpha virt. eigenvalues --    0.04405   0.04405   0.06040   0.07042   0.07694
 Alpha virt. eigenvalues --    0.08858   0.08882   0.09819   0.12495   0.13923
 Alpha virt. eigenvalues --    0.13926   0.13940   0.13967   0.13994   0.13995
 Alpha virt. eigenvalues --    0.16621   0.19098   0.19102   0.19511   0.19529
 Alpha virt. eigenvalues --    0.19890   0.19947   0.19948   0.21908   0.22302
 Alpha virt. eigenvalues --    0.22318   0.26505   0.27202   0.27850   0.30766
 Alpha virt. eigenvalues --    0.30768   0.31741   0.31742   0.32969   0.36770
 Alpha virt. eigenvalues --    0.39291   0.39303   0.42106   0.42117   0.42612
 Alpha virt. eigenvalues --    0.43342   0.45727   0.45730   0.47684   0.51368
 Alpha virt. eigenvalues --    0.51372   0.52849   0.54408   0.54688   0.54697
 Alpha virt. eigenvalues --    0.55941   0.56971   0.57426   0.57432   0.57750
 Alpha virt. eigenvalues --    0.57751   0.58312   0.58316   0.62573   0.62587
 Alpha virt. eigenvalues --    0.62754   0.66506   0.66512   0.73498   0.73500
 Alpha virt. eigenvalues --    0.73609   0.78415   0.78424   0.78638   0.80404
 Alpha virt. eigenvalues --    0.81297   0.81299   0.87727   0.93764   0.93766
 Alpha virt. eigenvalues --    0.96729   0.97608   0.97746   1.05627   1.05631
 Alpha virt. eigenvalues --    1.06094   1.08100   1.08102   1.11677   1.11932
 Alpha virt. eigenvalues --    1.11936   1.14841   1.14852   1.19015   1.19021
 Alpha virt. eigenvalues --    1.20024   1.20028   1.25155   1.26047   1.27382
 Alpha virt. eigenvalues --    1.27383   1.27979   1.28787   1.29199   1.30737
 Alpha virt. eigenvalues --    1.30740   1.32579   1.34173   1.34179   1.37873
 Alpha virt. eigenvalues --    1.37877   1.38781   1.38792   1.42503   1.46434
 Alpha virt. eigenvalues --    1.46761   1.46764   1.47339   1.47344   1.48182
 Alpha virt. eigenvalues --    1.53529   1.64493   1.64498   1.65690   1.78354
 Alpha virt. eigenvalues --    1.86341   1.86357   1.88391   1.90393   1.90401
 Alpha virt. eigenvalues --    1.99622   1.99630   2.00720   2.00732   2.11187
 Alpha virt. eigenvalues --    2.11199   2.17842   2.30835   2.30842   2.36819
 Alpha virt. eigenvalues --    2.40227   2.40238   2.42381   2.47692   2.47695
 Alpha virt. eigenvalues --    2.54914   2.58482   2.68022   2.71577   2.74918
 Alpha virt. eigenvalues --    2.74922   2.75341   2.75848   2.76995   2.77000
 Alpha virt. eigenvalues --    2.79542   2.79909   2.79914   2.83757   2.83762
 Alpha virt. eigenvalues --    2.86462   2.86471   2.89172   2.98219   2.98221
 Alpha virt. eigenvalues --    3.01414   3.01415   3.02701   3.02703   3.05768
 Alpha virt. eigenvalues --    3.07562   3.08400   3.11642   3.14885   3.14886
 Alpha virt. eigenvalues --    3.18251   3.18256   3.20105   3.20110   3.22750
 Alpha virt. eigenvalues --    3.22752   3.25407   3.38749   3.38752   3.40424
 Alpha virt. eigenvalues --    3.41466   3.41474   3.42299   3.48290   3.56002
 Alpha virt. eigenvalues --    3.63690   3.63691   3.67120   3.71308   3.71822
 Alpha virt. eigenvalues --    3.71858   3.72777   3.72800   3.73244   3.81599
 Alpha virt. eigenvalues --    3.82762   3.82768   3.85045   3.85762   3.85787
 Alpha virt. eigenvalues --    3.90559   3.90560   3.91324   4.06736   4.06737
 Alpha virt. eigenvalues --    4.06742   4.06743   4.16042   4.16046   4.25693
 Alpha virt. eigenvalues --    4.29465   4.29476   4.29837   4.31819   4.32547
 Alpha virt. eigenvalues --    4.38043   4.38049   4.40401   4.40406   4.41646
 Alpha virt. eigenvalues --    4.41673   4.45294   4.46629   4.46650   4.56722
 Alpha virt. eigenvalues --    4.56725   4.60108   4.60184   4.72499   4.72501
 Alpha virt. eigenvalues --    4.73635   4.74611   4.74622   4.81156   4.90703
 Alpha virt. eigenvalues --    4.94081   4.94102   4.94624   5.01975   5.01980
 Alpha virt. eigenvalues --    5.02431   5.02440   5.31797   5.38298   5.38347
 Alpha virt. eigenvalues --    5.41479   5.41579   5.85527   5.85535   6.35906
 Alpha virt. eigenvalues --    6.35934   6.39926   6.39934   6.57081   6.69267
 Alpha virt. eigenvalues --    6.84760   7.10200   7.12397   7.15065   7.15066
 Alpha virt. eigenvalues --    7.18732   7.18737   7.35404   7.35408   7.42209
 Alpha virt. eigenvalues --    7.42217   7.46869   7.46882   7.53589   7.53968
 Alpha virt. eigenvalues --    7.60301   7.64196   7.64203   7.86860   7.93183
 Alpha virt. eigenvalues --    7.94032   7.94043   7.98310   8.03905   8.03927
 Alpha virt. eigenvalues --    8.34836   8.34855   8.52771   8.52785   8.63365
 Alpha virt. eigenvalues --    9.42110  24.45873  25.33125  25.33149  25.65163
 Alpha virt. eigenvalues --   25.65170  26.01922
          Condensed to atoms (all electrons):
               1          2          3          4          5          6
     1  C    5.601883   0.180140  -0.113919  -0.008298  -0.113943   0.179748
     2  C    0.180140   5.599400   0.180935  -0.113941  -0.007774  -0.113235
     3  C   -0.113919   0.180935   5.598955   0.180203  -0.113232  -0.007577
     4  C   -0.008298  -0.113941   0.180203   5.601882   0.179685  -0.113923
     5  C   -0.113943  -0.007774  -0.113232   0.179685   5.599402   0.181390
     6  C    0.179748  -0.113235  -0.007577  -0.113923   0.181390   5.598946
     7  H    0.434107  -0.066338   0.019570  -0.015857   0.019550  -0.066458
     8  H   -0.066544   0.434091  -0.066290   0.019661  -0.015903   0.019604
     9  H    0.019655  -0.066288   0.433996  -0.066517   0.019617  -0.015913
    10  H   -0.015857   0.019557  -0.066395   0.434106  -0.066400   0.019564
    11  H    0.019668  -0.015903   0.019597  -0.066608   0.434092  -0.066227
    12  H   -0.066580   0.019611  -0.015913   0.019662  -0.066226   0.433997
               7          8          9         10         11         12
     1  C    0.434107  -0.066544   0.019655  -0.015857   0.019668  -0.066580
     2  C   -0.066338   0.434091  -0.066288   0.019557  -0.015903   0.019611
     3  C    0.019570  -0.066290   0.433996  -0.066395   0.019597  -0.015913
     4  C   -0.015857   0.019661  -0.066517   0.434106  -0.066608   0.019662
     5  C    0.019550  -0.015903   0.019617  -0.066400   0.434092  -0.066226
     6  C   -0.066458   0.019604  -0.015913   0.019564  -0.066227   0.433997
     7  H    0.631527  -0.002820  -0.000293   0.000043  -0.000293  -0.002812
     8  H   -0.002820   0.631474  -0.002811  -0.000293   0.000043  -0.000294
     9  H   -0.000293  -0.002811   0.631533  -0.002810  -0.000294   0.000043
    10  H    0.000043  -0.000293  -0.002810   0.631527  -0.002822  -0.000293
    11  H   -0.000293   0.000043  -0.000294  -0.002822   0.631474  -0.002809
    12  H   -0.002812  -0.000294   0.000043  -0.000293  -0.002809   0.631532
 Mulliken charges:
               1
     1  C   -0.050061
     2  C   -0.050255
     3  C   -0.049931
     4  C   -0.050057
     5  C   -0.050259
     6  C   -0.049916
     7  H    0.050075
     8  H    0.050082
     9  H    0.050082
    10  H    0.050075
    11  H    0.050082
    12  H    0.050082
 Sum of Mulliken charges =   0.00000
 Mulliken charges with hydrogens summed into heavy atoms:
               1
     1  C    0.000014
     2  C   -0.000173
     3  C    0.000151
     4  C    0.000018
     5  C   -0.000176
     6  C    0.000166
 Electronic spatial extent (au):  <R**2>=            457.5135
 Charge=              0.0000 electrons
 Dipole moment (field-independent basis, Debye):
    X=              0.0000    Y=              0.0000    Z=              0.0000  Tot=              0.0000
 Quadrupole moment (field-independent basis, Debye-Ang):
   XX=            -32.2855   YY=            -32.2894   ZZ=            -40.0437
   XY=              0.0001   XZ=              0.0000   YZ=              0.0001
 Traceless Quadrupole moment (field-independent basis, Debye-Ang):
   XX=              2.5873   YY=              2.5835   ZZ=             -5.1708
   XY=              0.0001   XZ=              0.0000   YZ=              0.0001
 Octapole moment (field-independent basis, Debye-Ang**2):
  XXX=              0.0001  YYY=              0.0016  ZZZ=             -0.0001  XYY=             -0.0001
  XXY=             -0.0016  XXZ=             -0.0001  XZZ=              0.0000  YZZ=              0.0000
  YYZ=             -0.0001  XYZ=              0.0000
 Hexadecapole moment (field-independent basis, Debye-Ang**3):
 XXXX=           -276.3335 YYYY=           -276.3074 ZZZZ=            -49.3858 XXXY=              0.0020
 XXXZ=              0.0000 YYYX=             -0.0014 YYYZ=              0.0006 ZZZX=              0.0000
 ZZZY=              0.0001 XXYY=            -92.1125 XXZZ=            -64.6222 YYZZ=            -64.6129
 XXYZ=              0.0002 YYXZ=             -0.0001 ZZXY=              0.0000
 N-N= 2.040389661516D+02 E-N=-9.465813895013D+02  KE= 2.312007799509D+02
 No NMR shielding tensors so no spin-rotation constants.
 Leave Link  601 at Thu Jun 23 12:01:01 2016, MaxMem=    33554432 cpu:         0.3
 (Enter /share/sw/gaussian/D.01/g09/l9999.exe)
 1\1\GINC-C13A-01\FOpt\RB3LYP\6-311+G(3df,2pd)\C6H6\EPLUHAR\23-Jun-2016
 \0\\#p b3lyp/6-311+g(3df,2pd) opt\\Benzene\\0,1\C,-0.044042112,0.46345
 07862,0.0000596586\C,1.3469384049,0.4635837352,0.0005114546\C,2.042473
 1039,1.6681017833,-0.0000397582\C,1.3471950889,2.87285688,-0.001037041
 9\C,-0.0436818668,2.8727240972,-0.001487617\C,-0.7392680182,1.66811642
 76,-0.0009386089\H,-0.5848698622,-0.4734078141,0.0004795664\H,1.887783
 7693,-0.4732925009,0.0012667126\H,3.1242467354,1.6680051255,0.00028501
 59\H,1.8881472247,3.8096434663,-0.001473051\H,-0.5846467018,3.80953091
 82,-0.0022579328\H,-1.8210420059,1.6683543755,-0.0012793983\\Version=E
 S64L-G09RevD.01\State=1-A\HF=-232.3291217\RMSD=7.616e-09\RMSF=4.433e-0
 5\Dipole=0.0000018,-0.0000014,-0.0000119\Quadrupole=1.9214529,1.922910
 1,-3.844363,0.0012495,0.0017877,-0.00367\PG=C01 [X(C6H6)]\\@


 ... UNTIL SCIENCE IS MIXED WITH EMOTION AND APPEALS TO THE HEART AND
 IMAGINATION , IT IS LIKE DEAD INORGANIC MATTER; AND WHEN IT IS SO MIXED
 AND SO TRANSFORMED IT IS LITERATURE.

                                  -- JOHN BURROUGHS
 Job cpu time:       0 days  0 hours 19 minutes 55.1 seconds.
 File lengths (MBytes):  RWF=     61 Int=      0 D2E=      0 Chk=      8 Scr=      1
 Normal termination of Gaussian 09 at Thu Jun 23 12:01:01 2016.
