 Entering Gaussian System, Link 0=g09
 Initial command:
 /share/sw/gaussian/D.01/g09/l1.exe "/local/scratch/epluhar/Gau-10198.inp" -scrdir="/local/scratch/epluhar/"
 Entering Link 1 = /share/sw/gaussian/D.01/g09/l1.exe PID=     10199.
  
 Copyright (c) 1988,1990,1992,1993,1995,1998,2003,2009,2013,
            Gaussian, Inc.  All Rights Reserved.
  
 This is part of the Gaussian(R) 09 program.  It is based on
 the Gaussian(R) 03 system (copyright 2003, Gaussian, Inc.),
 the Gaussian(R) 98 system (copyright 1998, Gaussian, Inc.),
 the Gaussian(R) 94 system (copyright 1995, Gaussian, Inc.),
 the Gaussian 92(TM) system (copyright 1992, Gaussian, Inc.),
 the Gaussian 90(TM) system (copyright 1990, Gaussian, Inc.),
 the Gaussian 88(TM) system (copyright 1988, Gaussian, Inc.),
 the Gaussian 86(TM) system (copyright 1986, Carnegie Mellon
 University), and the Gaussian 82(TM) system (copyright 1983,
 Carnegie Mellon University). Gaussian is a federally registered
 trademark of Gaussian, Inc.
  
 This software contains proprietary and confidential information,
 including trade secrets, belonging to Gaussian, Inc.
  
 This software is provided under written license and may be
 used, copied, transmitted, or stored only in accord with that
 written license.
  
 The following legend is applicable only to US Government
 contracts under FAR:
  
                    RESTRICTED RIGHTS LEGEND
  
 Use, reproduction and disclosure by the US Government is
 subject to restrictions as set forth in subparagraphs (a)
 and (c) of the Commercial Computer Software - Restricted
 Rights clause in FAR 52.227-19.
  
 Gaussian, Inc.
 340 Quinnipiac St., Bldg. 40, Wallingford CT 06492
  
  
 ---------------------------------------------------------------
 Warning -- This program may not be used in any manner that
 competes with the business of Gaussian, Inc. or will provide
 assistance to any competitor of Gaussian, Inc.  The licensee
 of this program is prohibited from giving any competitor of
 Gaussian, Inc. access to this program.  By using this program,
 the user acknowledges that Gaussian, Inc. is engaged in the
 business of creating and licensing software in the field of
 computational chemistry and represents and warrants to the
 licensee that it is not a competitor of Gaussian, Inc. and that
 it will not use this program in any manner prohibited above.
 ---------------------------------------------------------------
  

 Cite this work as:
 Gaussian 09, Revision D.01,
 M. J. Frisch, G. W. Trucks, H. B. Schlegel, G. E. Scuseria, 
 M. A. Robb, J. R. Cheeseman, G. Scalmani, V. Barone, B. Mennucci, 
 G. A. Petersson, H. Nakatsuji, M. Caricato, X. Li, H. P. Hratchian, 
 A. F. Izmaylov, J. Bloino, G. Zheng, J. L. Sonnenberg, M. Hada, 
 M. Ehara, K. Toyota, R. Fukuda, J. Hasegawa, M. Ishida, T. Nakajima, 
 Y. Honda, O. Kitao, H. Nakai, T. Vreven, J. A. Montgomery, Jr., 
 J. E. Peralta, F. Ogliaro, M. Bearpark, J. J. Heyd, E. Brothers, 
 K. N. Kudin, V. N. Staroverov, T. Keith, R. Kobayashi, J. Normand, 
 K. Raghavachari, A. Rendell, J. C. Burant, S. S. Iyengar, J. Tomasi, 
 M. Cossi, N. Rega, J. M. Millam, M. Klene, J. E. Knox, J. B. Cross, 
 V. Bakken, C. Adamo, J. Jaramillo, R. Gomperts, R. E. Stratmann, 
 O. Yazyev, A. J. Austin, R. Cammi, C. Pomelli, J. W. Ochterski, 
 R. L. Martin, K. Morokuma, V. G. Zakrzewski, G. A. Voth, 
 P. Salvador, J. J. Dannenberg, S. Dapprich, A. D. Daniels, 
 O. Farkas, J. B. Foresman, J. V. Ortiz, J. Cioslowski, 
 and D. J. Fox, Gaussian, Inc., Wallingford CT, 2013.
 
 ******************************************
 Gaussian 09:  ES64L-G09RevD.01 24-Apr-2013
                21-Jun-2016 
 ******************************************
 %chk=b3lyp-Benzene.chk
 -----------------------------
 #p opt 6-311+g(3df,2pd) svwn5
 -----------------------------
 1/14=-1,18=20,19=15,26=3,38=1/1,3;
 2/9=110,12=2,17=6,18=5,40=1/2;
 3/5=4,6=6,7=416,11=2,16=1,25=1,30=1,71=1,74=201/1,2,3;
 4//1;
 5/5=2,38=5/2;
 6/7=2,8=2,9=2,10=2,28=1/1;
 7//1,2,3,16;
 1/14=-1,18=20,19=15,26=3/3(2);
 2/9=110/2;
 99//99;
 2/9=110/2;
 3/5=4,6=6,7=416,11=2,16=1,25=1,30=1,71=1,74=201/1,2,3;
 4/5=5,16=3,69=1/1;
 5/5=2,38=5/2;
 7//1,2,3,16;
 1/14=-1,18=20,19=15,26=3/3(-5);
 2/9=110/2;
 6/7=2,8=2,9=2,10=2,19=2,28=1/1;
 99/9=1/99;
 Leave Link    1 at Tue Jun 21 12:58:32 2016, MaxMem=           0 cpu:         0.0
 (Enter /share/sw/gaussian/D.01/g09/l101.exe)
 -------
 Benzene
 -------
 Symbolic Z-matrix:
 Charge =  0 Multiplicity = 1
 C                    -0.04601   0.46012   0. 
 C                     1.34915   0.46012   0. 
 C                     2.04669   1.66787   0. 
 C                     1.34903   2.87638  -0.0012 
 C                    -0.04579   2.8763   -0.00168 
 C                    -0.74339   1.6681   -0.00068 
 H                    -0.59577  -0.49219   0.00045 
 H                     1.89866  -0.49239   0.00132 
 H                     3.14637   1.66795   0.00063 
 H                     1.89923   3.82853  -0.00126 
 H                    -0.59592   3.82859  -0.00263 
 H                    -1.843     1.66828  -0.00086 
 
 NAtoms=     12 NQM=       12 NQMF=       0 NMMI=      0 NMMIF=      0
                NMic=       0 NMicF=      0.
                    Isotopes and Nuclear Properties:
 (Nuclear quadrupole moments (NQMom) in fm**2, nuclear magnetic moments (NMagM)
  in nuclear magnetons)

  Atom         1           2           3           4           5           6           7           8           9          10
 IAtWgt=          12          12          12          12          12          12           1           1           1           1
 AtmWgt=  12.0000000  12.0000000  12.0000000  12.0000000  12.0000000  12.0000000   1.0078250   1.0078250   1.0078250   1.0078250
 NucSpn=           0           0           0           0           0           0           1           1           1           1
 AtZEff=   0.0000000   0.0000000   0.0000000   0.0000000   0.0000000   0.0000000   0.0000000   0.0000000   0.0000000   0.0000000
 NQMom=    0.0000000   0.0000000   0.0000000   0.0000000   0.0000000   0.0000000   0.0000000   0.0000000   0.0000000   0.0000000
 NMagM=    0.0000000   0.0000000   0.0000000   0.0000000   0.0000000   0.0000000   2.7928460   2.7928460   2.7928460   2.7928460
 AtZNuc=   6.0000000   6.0000000   6.0000000   6.0000000   6.0000000   6.0000000   1.0000000   1.0000000   1.0000000   1.0000000

  Atom        11          12
 IAtWgt=           1           1
 AtmWgt=   1.0078250   1.0078250
 NucSpn=           1           1
 AtZEff=   0.0000000   0.0000000
 NQMom=    0.0000000   0.0000000
 NMagM=    2.7928460   2.7928460
 AtZNuc=   1.0000000   1.0000000
 Leave Link  101 at Tue Jun 21 12:58:32 2016, MaxMem=    33554432 cpu:         0.1
 (Enter /share/sw/gaussian/D.01/g09/l103.exe)

 GradGradGradGradGradGradGradGradGradGradGradGradGradGradGradGradGradGrad
 Berny optimization.
 Initialization pass.
                           ----------------------------
                           !    Initial Parameters    !
                           ! (Angstroms and Degrees)  !
 --------------------------                            --------------------------
 ! Name  Definition              Value          Derivative Info.                !
 --------------------------------------------------------------------------------
 ! R1    R(1,2)                  1.3952         estimate D2E/DX2                !
 ! R2    R(1,6)                  1.3948         estimate D2E/DX2                !
 ! R3    R(1,7)                  1.0996         estimate D2E/DX2                !
 ! R4    R(2,3)                  1.3947         estimate D2E/DX2                !
 ! R5    R(2,8)                  1.0997         estimate D2E/DX2                !
 ! R6    R(3,4)                  1.3954         estimate D2E/DX2                !
 ! R7    R(3,9)                  1.0997         estimate D2E/DX2                !
 ! R8    R(4,5)                  1.3948         estimate D2E/DX2                !
 ! R9    R(4,10)                 1.0997         estimate D2E/DX2                !
 ! R10   R(5,6)                  1.3951         estimate D2E/DX2                !
 ! R11   R(5,11)                 1.0998         estimate D2E/DX2                !
 ! R12   R(6,12)                 1.0996         estimate D2E/DX2                !
 ! A1    A(2,1,6)              119.9985         estimate D2E/DX2                !
 ! A2    A(2,1,7)              119.9972         estimate D2E/DX2                !
 ! A3    A(6,1,7)              120.0043         estimate D2E/DX2                !
 ! A4    A(1,2,3)              120.0086         estimate D2E/DX2                !
 ! A5    A(1,2,8)              119.9808         estimate D2E/DX2                !
 ! A6    A(3,2,8)              120.0106         estimate D2E/DX2                !
 ! A7    A(2,3,4)              119.9942         estimate D2E/DX2                !
 ! A8    A(2,3,9)              120.0128         estimate D2E/DX2                !
 ! A9    A(4,3,9)              119.993          estimate D2E/DX2                !
 ! A10   A(3,4,5)              119.994          estimate D2E/DX2                !
 ! A11   A(3,4,10)             119.9811         estimate D2E/DX2                !
 ! A12   A(5,4,10)             120.0249         estimate D2E/DX2                !
 ! A13   A(4,5,6)              120.0047         estimate D2E/DX2                !
 ! A14   A(4,5,11)             120.0113         estimate D2E/DX2                !
 ! A15   A(6,5,11)             119.984          estimate D2E/DX2                !
 ! A16   A(1,6,5)              120.0            estimate D2E/DX2                !
 ! A17   A(1,6,12)             120.008          estimate D2E/DX2                !
 ! A18   A(5,6,12)             119.992          estimate D2E/DX2                !
 ! D1    D(6,1,2,3)              0.0323         estimate D2E/DX2                !
 ! D2    D(6,1,2,8)            179.9532         estimate D2E/DX2                !
 ! D3    D(7,1,2,3)           -179.9729         estimate D2E/DX2                !
 ! D4    D(7,1,2,8)             -0.052          estimate D2E/DX2                !
 ! D5    D(2,1,6,5)              0.0149         estimate D2E/DX2                !
 ! D6    D(2,1,6,12)           179.9892         estimate D2E/DX2                !
 ! D7    D(7,1,6,5)           -179.9798         estimate D2E/DX2                !
 ! D8    D(7,1,6,12)            -0.0056         estimate D2E/DX2                !
 ! D9    D(1,2,3,4)             -0.0568         estimate D2E/DX2                !
 ! D10   D(1,2,3,9)            179.9619         estimate D2E/DX2                !
 ! D11   D(8,2,3,4)           -179.9777         estimate D2E/DX2                !
 ! D12   D(8,2,3,9)              0.041          estimate D2E/DX2                !
 ! D13   D(2,3,4,5)              0.0341         estimate D2E/DX2                !
 ! D14   D(2,3,4,10)          -179.9964         estimate D2E/DX2                !
 ! D15   D(9,3,4,5)           -179.9846         estimate D2E/DX2                !
 ! D16   D(9,3,4,10)            -0.0151         estimate D2E/DX2                !
 ! D17   D(3,4,5,6)              0.0131         estimate D2E/DX2                !
 ! D18   D(3,4,5,11)          -179.9995         estimate D2E/DX2                !
 ! D19   D(10,4,5,6)          -179.9563         estimate D2E/DX2                !
 ! D20   D(10,4,5,11)            0.0311         estimate D2E/DX2                !
 ! D21   D(4,5,6,1)             -0.0376         estimate D2E/DX2                !
 ! D22   D(4,5,6,12)           179.9881         estimate D2E/DX2                !
 ! D23   D(11,5,6,1)           179.975          estimate D2E/DX2                !
 ! D24   D(11,5,6,12)            0.0007         estimate D2E/DX2                !
 --------------------------------------------------------------------------------
 Trust Radius=3.00D-01 FncErr=1.00D-07 GrdErr=1.00D-06
 Number of steps in this run=     64 maximum allowed number of steps=    100.
 GradGradGradGradGradGradGradGradGradGradGradGradGradGradGradGradGradGrad

 Leave Link  103 at Tue Jun 21 12:58:32 2016, MaxMem=    33554432 cpu:         0.0
 (Enter /share/sw/gaussian/D.01/g09/l202.exe)
                          Input orientation:                          
 ---------------------------------------------------------------------
 Center     Atomic      Atomic             Coordinates (Angstroms)
 Number     Number       Type             X           Y           Z
 ---------------------------------------------------------------------
      1          6           0       -0.046012    0.460123    0.000000
      2          6           0        1.349148    0.460123    0.000000
      3          6           0        2.046686    1.667874    0.000000
      4          6           0        1.349032    2.876383   -0.001199
      5          6           0       -0.045793    2.876305   -0.001678
      6          6           0       -0.743394    1.668099   -0.000682
      7          1           0       -0.595771   -0.492194    0.000450
      8          1           0        1.898656   -0.492390    0.001315
      9          1           0        3.146366    1.667954    0.000634
     10          1           0        1.899232    3.828526   -0.001258
     11          1           0       -0.595915    3.828586   -0.002631
     12          1           0       -1.842998    1.668282   -0.000862
 ---------------------------------------------------------------------
                    Distance matrix (angstroms):
                    1          2          3          4          5
     1  C    0.000000
     2  C    1.395160   0.000000
     3  C    2.416205   1.394712   0.000000
     4  C    2.790065   2.416260   1.395427   0.000000
     5  C    2.416183   2.789946   2.416356   1.394825   0.000000
     6  C    1.394829   2.416183   2.790080   2.416236   1.395138
     7  H    1.099610   2.165553   3.412986   3.889675   3.413102
     8  H    2.165414   1.099655   2.165330   3.413316   3.889601
     9  H    3.413229   2.165375   1.099680   2.165806   3.413209
    10  H    3.889745   3.413024   2.165678   1.099680   2.165606
    11  H    3.413055   3.889707   3.413506   2.165528   1.099761
    12  H    2.165365   3.413128   3.889684   3.412999   2.165471
                    6          7          8          9         10
     6  C    0.000000
     7  H    2.165331   0.000000
     8  H    3.412938   2.494427   0.000000
     9  H    3.889760   4.320860   2.494768   0.000000
    10  H    3.413344   4.989355   4.320917   2.494678   0.000000
    11  H    2.165516   4.320781   4.989362   4.321228   2.495147
    12  H    1.099604   2.494641   4.320704   4.989364   4.320988
                   11         12
    11  H    0.000000
    12  H    2.494420   0.000000
 Stoichiometry    C6H6
 Framework group  C1[X(C6H6)]
 Deg. of freedom    30
 Full point group                 C1      NOp   1
 Largest Abelian subgroup         C1      NOp   1
 Largest concise Abelian subgroup C1      NOp   1
                         Standard orientation:                         
 ---------------------------------------------------------------------
 Center     Atomic      Atomic             Coordinates (Angstroms)
 Number     Number       Type             X           Y           Z
 ---------------------------------------------------------------------
      1          6           0       -0.176717   -1.383752    0.000005
      2          6           0        1.110106   -0.844719   -0.000364
      3          6           0        1.286853    0.538749    0.000194
      4          6           0        0.176454    1.383870   -0.000075
      5          6           0       -1.110031    0.844894   -0.000185
      6          6           0       -1.286660   -0.539018    0.000252
      7          1           0       -0.315850   -2.474525    0.000015
      8          1           0        1.984957   -1.510960    0.000218
      9          1           0        2.301110    0.963694    0.000537
     10          1           0        0.316060    2.474652    0.000306
     11          1           0       -1.985358    1.510684   -0.000405
     12          1           0       -2.300948   -0.963691    0.000364
 ---------------------------------------------------------------------
 Rotational constants (GHZ):      5.6865650      5.6862639      2.8432074
 Leave Link  202 at Tue Jun 21 12:58:32 2016, MaxMem=    33554432 cpu:         0.0
 (Enter /share/sw/gaussian/D.01/g09/l301.exe)
 Standard basis: 6-311+G(3df,2pd) (5D, 7F)
 Ernie: Thresh=  0.10000D-02 Tol=  0.10000D-05 Strict=F.
 There are   360 symmetry adapted cartesian basis functions of A   symmetry.
 There are   318 symmetry adapted basis functions of A   symmetry.
   318 basis functions,   450 primitive gaussians,   360 cartesian basis functions
    21 alpha electrons       21 beta electrons
       nuclear repulsion energy       203.0307482098 Hartrees.
 IExCor=  201 DFT=T Ex=S Corr=VWN5 ExCW=0 ScaHFX=  0.000000
 ScaDFX=  1.000000  1.000000  1.000000  1.000000 ScalE2=  1.000000  1.000000
 IRadAn=      0 IRanWt=     -1 IRanGd=            0 ICorTp=0 IEmpDi=  4
 NAtoms=   12 NActive=   12 NUniq=   12 SFac= 1.00D+00 NAtFMM=   60 NAOKFM=F Big=F
 Integral buffers will be    131072 words long.
 Raffenetti 2 integral format.
 Two-electron integral symmetry is turned on.
 Leave Link  301 at Tue Jun 21 12:58:32 2016, MaxMem=    33554432 cpu:         0.1
 (Enter /share/sw/gaussian/D.01/g09/l302.exe)
 NPDir=0 NMtPBC=     1 NCelOv=     1 NCel=       1 NClECP=     1 NCelD=      1
         NCelK=      1 NCelE2=     1 NClLst=     1 CellRange=     0.0.
 One-electron integrals computed using PRISM.
 NBasis=   318 RedAO= T EigKep=  1.87D-06  NBF=   318
 NBsUse=   318 1.00D-06 EigRej= -1.00D+00 NBFU=   318
 Precomputing XC quadrature grid using
 IXCGrd= 4 IRadAn=           0 IRanWt=          -1 IRanGd=           0 AccXCQ= 0.00D+00.
 Generated NRdTot=       0 NPtTot=           0 NUsed=           0 NTot=          32
 NSgBfM=   360   360   360   360   360 MxSgAt=    12 MxSgA2=    12.
 Leave Link  302 at Tue Jun 21 12:58:33 2016, MaxMem=    33554432 cpu:         0.4
 (Enter /share/sw/gaussian/D.01/g09/l303.exe)
 DipDrv:  MaxL=1.
 Leave Link  303 at Tue Jun 21 12:58:33 2016, MaxMem=    33554432 cpu:         0.0
 (Enter /share/sw/gaussian/D.01/g09/l401.exe)
 ExpMin= 4.38D-02 ExpMax= 4.56D+03 ExpMxC= 6.82D+02 IAcc=2 IRadAn=         4 AccDes= 0.00D+00
 Harris functional with IExCor=  201 and IRadAn=       4 diagonalized for initial guess.
 HarFok:  IExCor=  201 AccDes= 0.00D+00 IRadAn=         4 IDoV= 1 UseB2=F ITyADJ=14
 ICtDFT=  3500011 ScaDFX=  1.000000  1.000000  1.000000  1.000000
 FoFCou: FMM=F IPFlag=           0 FMFlag=      100000 FMFlg1=           0
         NFxFlg=           0 DoJE=T BraDBF=F KetDBF=T FulRan=T
         wScrn=  0.000000 ICntrl=     500 IOpCl=  0 I1Cent=   200000004 NGrid=           0
         NMat0=    1 NMatS0=      1 NMatT0=    0 NMatD0=    1 NMtDS0=    0 NMtDT0=    0
 Petite list used in FoFCou.
 Harris En= -230.353156890348    
 JPrj=0 DoOrth=F DoCkMO=F.
 Leave Link  401 at Tue Jun 21 12:58:35 2016, MaxMem=    33554432 cpu:         2.2
 (Enter /share/sw/gaussian/D.01/g09/l502.exe)
 Closed shell SCF:
 Using DIIS extrapolation, IDIIS=  1040.
 Integral symmetry usage will be decided dynamically.
 IVT=      412102 IEndB=      412102 NGot=    33554432 MDV=    33288931
 LenX=    33288931 LenY=    33158890
 Requested convergence on RMS density matrix=1.00D-08 within 128 cycles.
 Requested convergence on MAX density matrix=1.00D-06.
 Requested convergence on             energy=1.00D-06.
 No special actions if energy rises.
 Fock matrices will be formed incrementally for  20 cycles.

 Cycle   1  Pass 1  IDiag  1:
 FoFJK:  IHMeth= 1 ICntrl=     500 DoSepK=F KAlg= 0 I1Cent=   0 FoldK=F
 IRaf= 980000000 NMat=   1 IRICut=       1 DoRegI=T DoRafI=F ISym2E= 0.
 FoFCou: FMM=F IPFlag=           0 FMFlag=      100000 FMFlg1=           0
         NFxFlg=           0 DoJE=T BraDBF=F KetDBF=F FulRan=T
         wScrn=  0.000000 ICntrl=     500 IOpCl=  0 I1Cent=           0 NGrid=           0
         NMat0=    1 NMatS0=      1 NMatT0=    0 NMatD0=    1 NMtDS0=    0 NMtDT0=    0
 Symmetry not used in FoFCou.
 E= -229.998154960286    
 DIIS: error= 3.81D-02 at cycle   1 NSaved=   1.
 NSaved= 1 IEnMin= 1 EnMin= -229.998154960286     IErMin= 1 ErrMin= 3.81D-02
 ErrMax= 3.81D-02  0.00D+00 EMaxC= 1.00D-01 BMatC= 1.61D-01 BMatP= 1.61D-01
 IDIUse=3 WtCom= 6.19D-01 WtEn= 3.81D-01
 Coeff-Com:  0.100D+01
 Coeff-En:   0.100D+01
 Coeff:      0.100D+01
 Gap=     0.183 Goal=   None    Shift=    0.000
 GapD=    0.183 DampG=1.000 DampE=0.500 DampFc=0.5000 IDamp=-1.
 Damping current iteration by 5.00D-01
 RMSDP=4.97D-03 MaxDP=1.74D-01              OVMax= 2.16D-01

 Cycle   2  Pass 1  IDiag  1:
 RMSU=  2.40D-03    CP:  9.23D-01
 E= -230.036061588631     Delta-E=       -0.037906628345 Rises=F Damp=T
 DIIS: error= 1.58D-02 at cycle   2 NSaved=   2.
 NSaved= 2 IEnMin= 2 EnMin= -230.036061588631     IErMin= 2 ErrMin= 1.58D-02
 ErrMax= 1.58D-02  0.00D+00 EMaxC= 1.00D-01 BMatC= 2.19D-02 BMatP= 1.61D-01
 IDIUse=3 WtCom= 8.42D-01 WtEn= 1.58D-01
 Coeff-Com:  0.223D+00 0.777D+00
 Coeff-En:   0.390D+00 0.610D+00
 Coeff:      0.249D+00 0.751D+00
 Gap=     0.230 Goal=   None    Shift=    0.000
 RMSDP=1.58D-03 MaxDP=6.69D-02 DE=-3.79D-02 OVMax= 1.44D-01

 Cycle   3  Pass 1  IDiag  1:
 RMSU=  8.62D-04    CP:  9.26D-01  4.49D-01
 E= -230.169097619567     Delta-E=       -0.133036030936 Rises=F Damp=F
 DIIS: error= 5.32D-03 at cycle   3 NSaved=   3.
 NSaved= 3 IEnMin= 3 EnMin= -230.169097619567     IErMin= 3 ErrMin= 5.32D-03
 ErrMax= 5.32D-03  0.00D+00 EMaxC= 1.00D-01 BMatC= 2.72D-03 BMatP= 2.19D-02
 IDIUse=3 WtCom= 9.47D-01 WtEn= 5.32D-02
 Coeff-Com:  0.383D-01 0.262D+00 0.699D+00
 Coeff-En:   0.000D+00 0.000D+00 0.100D+01
 Coeff:      0.362D-01 0.248D+00 0.715D+00
 Gap=     0.187 Goal=   None    Shift=    0.000
 RMSDP=3.35D-04 MaxDP=6.77D-03 DE=-1.33D-01 OVMax= 1.26D-02

 Cycle   4  Pass 1  IDiag  1:
 RMSU=  2.61D-04    CP:  9.17D-01  4.56D-01  7.69D-01
 E= -230.171569242797     Delta-E=       -0.002471623230 Rises=F Damp=F
 DIIS: error= 1.24D-03 at cycle   4 NSaved=   4.
 NSaved= 4 IEnMin= 4 EnMin= -230.171569242797     IErMin= 4 ErrMin= 1.24D-03
 ErrMax= 1.24D-03  0.00D+00 EMaxC= 1.00D-01 BMatC= 1.48D-04 BMatP= 2.72D-03
 IDIUse=3 WtCom= 9.88D-01 WtEn= 1.24D-02
 Coeff-Com: -0.314D-02 0.430D-01 0.226D+00 0.734D+00
 Coeff-En:   0.000D+00 0.000D+00 0.000D+00 0.100D+01
 Coeff:     -0.311D-02 0.425D-01 0.224D+00 0.737D+00
 Gap=     0.187 Goal=   None    Shift=    0.000
 RMSDP=5.70D-05 MaxDP=1.37D-03 DE=-2.47D-03 OVMax= 2.50D-03

 Cycle   5  Pass 1  IDiag  1:
 RMSU=  3.47D-05    CP:  9.16D-01  4.72D-01  7.85D-01  9.92D-01
 E= -230.171704683696     Delta-E=       -0.000135440899 Rises=F Damp=F
 DIIS: error= 5.20D-05 at cycle   5 NSaved=   5.
 NSaved= 5 IEnMin= 5 EnMin= -230.171704683696     IErMin= 5 ErrMin= 5.20D-05
 ErrMax= 5.20D-05  0.00D+00 EMaxC= 1.00D-01 BMatC= 5.35D-07 BMatP= 1.48D-04
 IDIUse=1 WtCom= 1.00D+00 WtEn= 0.00D+00
 Coeff-Com: -0.932D-03 0.598D-02 0.352D-01 0.144D+00 0.815D+00
 Coeff:     -0.932D-03 0.598D-02 0.352D-01 0.144D+00 0.815D+00
 Gap=     0.187 Goal=   None    Shift=    0.000
 RMSDP=5.20D-06 MaxDP=2.03D-04 DE=-1.35D-04 OVMax= 4.79D-04

 Cycle   6  Pass 1  IDiag  1:
 RMSU=  4.01D-06    CP:  9.16D-01  4.72D-01  7.87D-01  9.84D-01  9.74D-01
 E= -230.171704704668     Delta-E=       -0.000000020972 Rises=F Damp=F
 DIIS: error= 7.65D-05 at cycle   6 NSaved=   6.
 NSaved= 6 IEnMin= 6 EnMin= -230.171704704668     IErMin= 5 ErrMin= 5.20D-05
 ErrMax= 7.65D-05  0.00D+00 EMaxC= 1.00D-01 BMatC= 4.19D-07 BMatP= 5.35D-07
 IDIUse=1 WtCom= 1.00D+00 WtEn= 0.00D+00
 Coeff-Com: -0.593D-03 0.319D-02 0.186D-01 0.818D-01 0.544D+00 0.353D+00
 Coeff:     -0.593D-03 0.319D-02 0.186D-01 0.818D-01 0.544D+00 0.353D+00
 Gap=     0.187 Goal=   None    Shift=    0.000
 RMSDP=2.24D-06 MaxDP=1.03D-04 DE=-2.10D-08 OVMax= 4.18D-04

 Cycle   7  Pass 1  IDiag  1:
 RMSU=  1.79D-06    CP:  9.16D-01  4.72D-01  7.87D-01  9.85D-01  9.81D-01
                    CP:  6.74D-01
 E= -230.171705154651     Delta-E=       -0.000000449984 Rises=F Damp=F
 DIIS: error= 2.31D-05 at cycle   7 NSaved=   7.
 NSaved= 7 IEnMin= 7 EnMin= -230.171705154651     IErMin= 7 ErrMin= 2.31D-05
 ErrMax= 2.31D-05  0.00D+00 EMaxC= 1.00D-01 BMatC= 4.10D-08 BMatP= 4.19D-07
 IDIUse=1 WtCom= 1.00D+00 WtEn= 0.00D+00
 Coeff-Com: -0.874D-04 0.900D-04-0.611D-03 0.126D-02 0.357D-01 0.236D+00
 Coeff-Com:  0.728D+00
 Coeff:     -0.874D-04 0.900D-04-0.611D-03 0.126D-02 0.357D-01 0.236D+00
 Coeff:      0.728D+00
 Gap=     0.187 Goal=   None    Shift=    0.000
 RMSDP=8.77D-07 MaxDP=4.32D-05 DE=-4.50D-07 OVMax= 9.96D-05

 Cycle   8  Pass 1  IDiag  1:
 RMSU=  1.50D-07    CP:  9.16D-01  4.72D-01  7.87D-01  9.86D-01  9.89D-01
                    CP:  7.62D-01  7.84D-01
 E= -230.171705203043     Delta-E=       -0.000000048391 Rises=F Damp=F
 DIIS: error= 1.73D-06 at cycle   8 NSaved=   8.
 NSaved= 8 IEnMin= 8 EnMin= -230.171705203043     IErMin= 8 ErrMin= 1.73D-06
 ErrMax= 1.73D-06  0.00D+00 EMaxC= 1.00D-01 BMatC= 3.77D-10 BMatP= 4.10D-08
 IDIUse=1 WtCom= 1.00D+00 WtEn= 0.00D+00
 Coeff-Com: -0.536D-04 0.453D-04-0.450D-03 0.470D-03 0.199D-01 0.143D+00
 Coeff-Com:  0.443D+00 0.394D+00
 Coeff:     -0.536D-04 0.453D-04-0.450D-03 0.470D-03 0.199D-01 0.143D+00
 Coeff:      0.443D+00 0.394D+00
 Gap=     0.187 Goal=   None    Shift=    0.000
 RMSDP=7.10D-08 MaxDP=2.69D-06 DE=-4.84D-08 OVMax= 7.80D-06

 Cycle   9  Pass 1  IDiag  1:
 RMSU=  5.43D-08    CP:  9.16D-01  4.72D-01  7.87D-01  9.86D-01  9.89D-01
                    CP:  7.63D-01  7.86D-01  7.15D-01
 E= -230.171705203388     Delta-E=       -0.000000000346 Rises=F Damp=F
 DIIS: error= 2.92D-07 at cycle   9 NSaved=   9.
 NSaved= 9 IEnMin= 9 EnMin= -230.171705203388     IErMin= 9 ErrMin= 2.92D-07
 ErrMax= 2.92D-07  0.00D+00 EMaxC= 1.00D-01 BMatC= 1.49D-11 BMatP= 3.77D-10
 IDIUse=1 WtCom= 1.00D+00 WtEn= 0.00D+00
 Coeff-Com: -0.970D-05 0.353D-05-0.105D-03-0.633D-04 0.218D-02 0.191D-01
 Coeff-Com:  0.604D-01 0.168D+00 0.751D+00
 Coeff:     -0.970D-05 0.353D-05-0.105D-03-0.633D-04 0.218D-02 0.191D-01
 Coeff:      0.604D-01 0.168D+00 0.751D+00
 Gap=     0.187 Goal=   None    Shift=    0.000
 RMSDP=2.14D-08 MaxDP=6.12D-07 DE=-3.46D-10 OVMax= 1.20D-06

 Cycle  10  Pass 1  IDiag  1:
 RMSU=  9.46D-09    CP:  9.16D-01  4.72D-01  7.87D-01  9.87D-01  9.89D-01
                    CP:  7.64D-01  7.88D-01  7.48D-01  8.55D-01
 E= -230.171705203408     Delta-E=       -0.000000000019 Rises=F Damp=F
 DIIS: error= 1.47D-08 at cycle  10 NSaved=  10.
 NSaved=10 IEnMin=10 EnMin= -230.171705203408     IErMin=10 ErrMin= 1.47D-08
 ErrMax= 1.47D-08  0.00D+00 EMaxC= 1.00D-01 BMatC= 5.87D-14 BMatP= 1.49D-11
 IDIUse=1 WtCom= 1.00D+00 WtEn= 0.00D+00
 Coeff-Com: -0.109D-05 0.975D-07-0.135D-04-0.212D-04 0.135D-03 0.149D-02
 Coeff-Com:  0.477D-02 0.230D-01 0.126D+00 0.845D+00
 Coeff:     -0.109D-05 0.975D-07-0.135D-04-0.212D-04 0.135D-03 0.149D-02
 Coeff:      0.477D-02 0.230D-01 0.126D+00 0.845D+00
 Gap=     0.187 Goal=   None    Shift=    0.000
 RMSDP=2.90D-09 MaxDP=8.32D-08 DE=-1.92D-11 OVMax= 1.82D-07

 SCF Done:  E(RS-VWN5) =  -230.171705203     A.U. after   10 cycles
            NFock= 10  Conv=0.29D-08     -V/T= 2.0078
 KE= 2.283980909473D+02 PE=-9.417302407480D+02 EE= 2.801296963874D+02
 Leave Link  502 at Tue Jun 21 13:00:12 2016, MaxMem=    33554432 cpu:        96.9
 (Enter /share/sw/gaussian/D.01/g09/l601.exe)
 Copying SCF densities to generalized density rwf, IOpCl= 0 IROHF=0.

 **********************************************************************

            Population analysis using the SCF density.

 **********************************************************************

 Orbital symmetries:
       Occupied  (A) (A) (A) (A) (A) (A) (A) (A) (A) (A) (A) (A)
                 (A) (A) (A) (A) (A) (A) (A) (A) (A)
       Virtual   (A) (A) (A) (A) (A) (A) (A) (A) (A) (A) (A) (A)
                 (A) (A) (A) (A) (A) (A) (A) (A) (A) (A) (A) (A)
                 (A) (A) (A) (A) (A) (A) (A) (A) (A) (A) (A) (A)
                 (A) (A) (A) (A) (A) (A) (A) (A) (A) (A) (A) (A)
                 (A) (A) (A) (A) (A) (A) (A) (A) (A) (A) (A) (A)
                 (A) (A) (A) (A) (A) (A) (A) (A) (A) (A) (A) (A)
                 (A) (A) (A) (A) (A) (A) (A) (A) (A) (A) (A) (A)
                 (A) (A) (A) (A) (A) (A) (A) (A) (A) (A) (A) (A)
                 (A) (A) (A) (A) (A) (A) (A) (A) (A) (A) (A) (A)
                 (A) (A) (A) (A) (A) (A) (A) (A) (A) (A) (A) (A)
                 (A) (A) (A) (A) (A) (A) (A) (A) (A) (A) (A) (A)
                 (A) (A) (A) (A) (A) (A) (A) (A) (A) (A) (A) (A)
                 (A) (A) (A) (A) (A) (A) (A) (A) (A) (A) (A) (A)
                 (A) (A) (A) (A) (A) (A) (A) (A) (A) (A) (A) (A)
                 (A) (A) (A) (A) (A) (A) (A) (A) (A) (A) (A) (A)
                 (A) (A) (A) (A) (A) (A) (A) (A) (A) (A) (A) (A)
                 (A) (A) (A) (A) (A) (A) (A) (A) (A) (A) (A) (A)
                 (A) (A) (A) (A) (A) (A) (A) (A) (A) (A) (A) (A)
                 (A) (A) (A) (A) (A) (A) (A) (A) (A) (A) (A) (A)
                 (A) (A) (A) (A) (A) (A) (A) (A) (A) (A) (A) (A)
                 (A) (A) (A) (A) (A) (A) (A) (A) (A) (A) (A) (A)
                 (A) (A) (A) (A) (A) (A) (A) (A) (A) (A) (A) (A)
                 (A) (A) (A) (A) (A) (A) (A) (A) (A) (A) (A) (A)
                 (A) (A) (A) (A) (A) (A) (A) (A) (A) (A) (A) (A)
                 (A) (A) (A) (A) (A) (A) (A) (A) (A)
 The electronic state is 1-A.
 Alpha  occ. eigenvalues --   -9.78926  -9.78923  -9.78923  -9.78893  -9.78892
 Alpha  occ. eigenvalues --   -9.78877  -0.77922  -0.67513  -0.67509  -0.54381
 Alpha  occ. eigenvalues --   -0.54377  -0.47635  -0.40768  -0.40600  -0.37740
 Alpha  occ. eigenvalues --   -0.37738  -0.34162  -0.30401  -0.30395  -0.24073
 Alpha  occ. eigenvalues --   -0.24070
 Alpha virt. eigenvalues --   -0.05334  -0.05329  -0.00940   0.01329   0.01330
 Alpha virt. eigenvalues --    0.03590   0.03590   0.04978   0.04989   0.07162
 Alpha virt. eigenvalues --    0.08037   0.08046   0.08452   0.08598   0.12574
 Alpha virt. eigenvalues --    0.12591   0.12998   0.12999   0.13098   0.13107
 Alpha virt. eigenvalues --    0.14458   0.16845   0.16853   0.18291   0.18293
 Alpha virt. eigenvalues --    0.18298   0.19133   0.19134   0.20032   0.20578
 Alpha virt. eigenvalues --    0.20599   0.23672   0.26480   0.26515   0.27255
 Alpha virt. eigenvalues --    0.27260   0.28071   0.28077   0.30747   0.33410
 Alpha virt. eigenvalues --    0.36536   0.36545   0.38435   0.38590   0.38598
 Alpha virt. eigenvalues --    0.39907   0.42290   0.42294   0.44309   0.47402
 Alpha virt. eigenvalues --    0.47406   0.48298   0.48902   0.51629   0.51633
 Alpha virt. eigenvalues --    0.52252   0.52947   0.53055   0.53060   0.53905
 Alpha virt. eigenvalues --    0.53910   0.54606   0.54607   0.57979   0.57989
 Alpha virt. eigenvalues --    0.59461   0.61995   0.62006   0.67871   0.68722
 Alpha virt. eigenvalues --    0.68726   0.71430   0.74295   0.74297   0.75053
 Alpha virt. eigenvalues --    0.77008   0.77014   0.83014   0.89676   0.89683
 Alpha virt. eigenvalues --    0.92175   0.93222   0.93396   1.00771   1.00775
 Alpha virt. eigenvalues --    1.01283   1.03517   1.03519   1.07797   1.08171
 Alpha virt. eigenvalues --    1.08172   1.10335   1.10340   1.13791   1.13794
 Alpha virt. eigenvalues --    1.15397   1.15404   1.21285   1.22201   1.22640
 Alpha virt. eigenvalues --    1.22645   1.23226   1.23399   1.24068   1.25621
 Alpha virt. eigenvalues --    1.25624   1.28669   1.28673   1.28712   1.31841
 Alpha virt. eigenvalues --    1.31858   1.33583   1.33588   1.36183   1.40419
 Alpha virt. eigenvalues --    1.40424   1.40764   1.40766   1.42256   1.43411
 Alpha virt. eigenvalues --    1.46887   1.57520   1.57794   1.57801   1.73409
 Alpha virt. eigenvalues --    1.78676   1.78680   1.81803   1.82143   1.82150
 Alpha virt. eigenvalues --    1.91875   1.91886   1.92635   1.92639   2.03353
 Alpha virt. eigenvalues --    2.03355   2.08457   2.22925   2.22937   2.28761
 Alpha virt. eigenvalues --    2.32546   2.32557   2.37417   2.38468   2.38472
 Alpha virt. eigenvalues --    2.46791   2.49203   2.60090   2.61821   2.64807
 Alpha virt. eigenvalues --    2.64810   2.65253   2.67584   2.72538   2.72542
 Alpha virt. eigenvalues --    2.73362   2.73374   2.74168   2.74173   2.74692
 Alpha virt. eigenvalues --    2.77513   2.77518   2.80807   2.89668   2.89669
 Alpha virt. eigenvalues --    2.92544   2.92547   2.94638   2.94643   2.96648
 Alpha virt. eigenvalues --    2.99546   3.00495   3.01122   3.05899   3.05903
 Alpha virt. eigenvalues --    3.09933   3.09942   3.13359   3.13371   3.13607
 Alpha virt. eigenvalues --    3.13615   3.16620   3.28209   3.28216   3.28751
 Alpha virt. eigenvalues --    3.32424   3.32430   3.33056   3.39521   3.46330
 Alpha virt. eigenvalues --    3.53522   3.53528   3.58071   3.59370   3.61392
 Alpha virt. eigenvalues --    3.61396   3.61701   3.61709   3.63925   3.69505
 Alpha virt. eigenvalues --    3.72912   3.72920   3.74728   3.74734   3.75721
 Alpha virt. eigenvalues --    3.80186   3.80186   3.84968   3.97088   3.97116
 Alpha virt. eigenvalues --    4.00095   4.00098   4.09142   4.09149   4.18855
 Alpha virt. eigenvalues --    4.19858   4.22461   4.22470   4.27016   4.27192
 Alpha virt. eigenvalues --    4.29440   4.29450   4.29726   4.29760   4.31405
 Alpha virt. eigenvalues --    4.31440   4.33150   4.35028   4.35032   4.43384
 Alpha virt. eigenvalues --    4.43390   4.47090   4.49574   4.58299   4.60739
 Alpha virt. eigenvalues --    4.60745   4.64740   4.64764   4.67035   4.79492
 Alpha virt. eigenvalues --    4.82189   4.83135   4.83141   4.88125   4.88126
 Alpha virt. eigenvalues --    4.89812   4.89832   5.23553   5.23612   5.23616
 Alpha virt. eigenvalues --    5.26604   5.30476   5.71894   5.71920   6.21588
 Alpha virt. eigenvalues --    6.21621   6.28241   6.28259   6.42085   6.57781
 Alpha virt. eigenvalues --    6.67582   6.97392   7.00767   7.03507   7.03513
 Alpha virt. eigenvalues --    7.06460   7.06466   7.23212   7.23228   7.29394
 Alpha virt. eigenvalues --    7.29414   7.34898   7.34901   7.39413   7.41722
 Alpha virt. eigenvalues --    7.46682   7.51991   7.51994   7.74526   7.78532
 Alpha virt. eigenvalues --    7.82438   7.82477   7.84767   7.91489   7.91500
 Alpha virt. eigenvalues --    8.20781   8.20817   8.38230   8.38249   8.49562
 Alpha virt. eigenvalues --    9.28423  24.33302  25.18003  25.18076  25.49789
 Alpha virt. eigenvalues --   25.49871  25.85503
          Condensed to atoms (all electrons):
               1          2          3          4          5          6
     1  C    5.945651   0.003960  -0.096320   0.004762  -0.097167  -0.000647
     2  C    0.003960   5.942765   0.000850  -0.097186   0.005925  -0.096731
     3  C   -0.096320   0.000850   5.943992   0.002827  -0.096449   0.004786
     4  C    0.004762  -0.097186   0.002827   5.944455   0.001868  -0.096425
     5  C   -0.097167   0.005925  -0.096449   0.001868   5.942769   0.003363
     6  C   -0.000647  -0.096731   0.004786  -0.096425   0.003363   5.944285
     7  H    0.450539  -0.082721   0.020877  -0.017200   0.020851  -0.083296
     8  H   -0.082760   0.450208  -0.082947   0.020932  -0.017260   0.020972
     9  H    0.020968  -0.083060   0.450711  -0.083183   0.020890  -0.017245
    10  H   -0.017212   0.020893  -0.082994   0.450470  -0.082985   0.020870
    11  H    0.020935  -0.017247   0.020931  -0.082988   0.450280  -0.082779
    12  H   -0.083516   0.020883  -0.017259   0.021012  -0.082708   0.450688
               7          8          9         10         11         12
     1  C    0.450539  -0.082760   0.020968  -0.017212   0.020935  -0.083516
     2  C   -0.082721   0.450208  -0.083060   0.020893  -0.017247   0.020883
     3  C    0.020877  -0.082947   0.450711  -0.082994   0.020931  -0.017259
     4  C   -0.017200   0.020932  -0.083183   0.450470  -0.082988   0.021012
     5  C    0.020851  -0.017260   0.020890  -0.082985   0.450280  -0.082708
     6  C   -0.083296   0.020972  -0.017245   0.020870  -0.082779   0.450688
     7  H    0.628236  -0.002769  -0.000295   0.000048  -0.000295  -0.002779
     8  H   -0.002769   0.628068  -0.002783  -0.000295   0.000048  -0.000295
     9  H   -0.000295  -0.002783   0.628066  -0.002762  -0.000295   0.000048
    10  H    0.000048  -0.000295  -0.002762   0.628187  -0.002775  -0.000295
    11  H   -0.000295   0.000048  -0.000295  -0.002775   0.628042  -0.002773
    12  H   -0.002779  -0.000295   0.000048  -0.000295  -0.002773   0.628098
 Mulliken charges:
               1
     1  C   -0.069192
     2  C   -0.068537
     3  C   -0.069003
     4  C   -0.069343
     5  C   -0.069377
     6  C   -0.067840
     7  H    0.068804
     8  H    0.068881
     9  H    0.068941
    10  H    0.068852
    11  H    0.068918
    12  H    0.068898
 Sum of Mulliken charges =   0.00000
 Mulliken charges with hydrogens summed into heavy atoms:
               1
     1  C   -0.000388
     2  C    0.000343
     3  C   -0.000062
     4  C   -0.000491
     5  C   -0.000460
     6  C    0.001058
 Electronic spatial extent (au):  <R**2>=            461.1185
 Charge=              0.0000 electrons
 Dipole moment (field-independent basis, Debye):
    X=              0.0000    Y=             -0.0002    Z=              0.0008  Tot=              0.0008
 Quadrupole moment (field-independent basis, Debye-Ang):
   XX=            -32.0052   YY=            -32.0058   ZZ=            -40.3497
   XY=              0.0012   XZ=              0.0019   YZ=             -0.0001
 Traceless Quadrupole moment (field-independent basis, Debye-Ang):
   XX=              2.7817   YY=              2.7811   ZZ=             -5.5628
   XY=              0.0012   XZ=              0.0019   YZ=             -0.0001
 Octapole moment (field-independent basis, Debye-Ang**2):
  XXX=             -0.0043  YYY=             -0.0032  ZZZ=              0.0011  XYY=              0.0045
  XXY=              0.0020  XXZ=              0.0043  XZZ=             -0.0002  YZZ=             -0.0013
  YYZ=              0.0031  XYZ=              0.0019
 Hexadecapole moment (field-independent basis, Debye-Ang**3):
 XXXX=           -278.0867 YYYY=           -278.0744 ZZZZ=            -49.2481 XXXY=              0.0048
 XXXZ=              0.0109 YYYX=              0.0078 YYYZ=              0.0032 ZZZX=              0.0023
 ZZZY=             -0.0001 XXYY=            -92.6949 XXZZ=            -65.8418 YYZZ=            -65.8402
 XXYZ=             -0.0037 YYXZ=              0.0055 ZZXY=              0.0006
 N-N= 2.030307482098D+02 E-N=-9.417302393704D+02  KE= 2.283980909473D+02
 No NMR shielding tensors so no spin-rotation constants.
 Leave Link  601 at Tue Jun 21 13:00:13 2016, MaxMem=    33554432 cpu:         0.3
 (Enter /share/sw/gaussian/D.01/g09/l701.exe)
 Compute integral first derivatives.
 ... and contract with generalized density number  0.
 Leave Link  701 at Tue Jun 21 13:00:13 2016, MaxMem=    33554432 cpu:         0.3
 (Enter /share/sw/gaussian/D.01/g09/l702.exe)
 L702 exits ... SP integral derivatives will be done elsewhere.
 Leave Link  702 at Tue Jun 21 13:00:13 2016, MaxMem=    33554432 cpu:         0.0
 (Enter /share/sw/gaussian/D.01/g09/l703.exe)
 Compute integral first derivatives, UseDBF=F ICtDFT=           0.
 Integral derivatives from FoFJK, PRISM(SPDF).
 Calling FoFJK, ICntrl=      2527 FMM=F ISym2X=0 I1Cent= 0 IOpClX= 0 NMat=1 NMatS=1 NMatT=0.
 FoFJK:  IHMeth= 1 ICntrl=    2527 DoSepK=F KAlg= 0 I1Cent=   0 FoldK=F
 IRaf=         0 NMat=   1 IRICut=       1 DoRegI=T DoRafI=F ISym2E= 0.
 FoFCou: FMM=F IPFlag=           0 FMFlag=      100000 FMFlg1=         800
         NFxFlg=           0 DoJE=F BraDBF=F KetDBF=F FulRan=T
         wScrn=  0.000000 ICntrl=    2527 IOpCl=  0 I1Cent=           0 NGrid=           0
         NMat0=    1 NMatS0=      1 NMatT0=    0 NMatD0=    1 NMtDS0=    0 NMtDT0=    0
 Symmetry not used in FoFCou.
 Leave Link  703 at Tue Jun 21 13:02:05 2016, MaxMem=    33554432 cpu:       111.5
 (Enter /share/sw/gaussian/D.01/g09/l716.exe)
 Dipole        =-4.21054224D-06-6.83054371D-05 3.04000443D-04
 ***** Axes restored to original set *****
 -------------------------------------------------------------------
 Center     Atomic                   Forces (Hartrees/Bohr)
 Number     Number              X              Y              Z
 -------------------------------------------------------------------
      1        6           0.002785238    0.004654953   -0.000020294
      2        6          -0.002786868    0.004623995    0.000107612
      3        6          -0.005451866    0.000374251   -0.000056687
      4        6          -0.002444304   -0.004916916    0.000035542
      5        6           0.002511134   -0.004762436    0.000026429
      6        6           0.005416345    0.000100897   -0.000054318
      7        1           0.002045081    0.003524506    0.000003103
      8        1          -0.002030608    0.003546140   -0.000038413
      9        1          -0.004124686   -0.000012816   -0.000003549
     10        1          -0.002091727   -0.003550479   -0.000015765
     11        1           0.002097941   -0.003585259    0.000010278
     12        1           0.004074319    0.000003164    0.000006062
 -------------------------------------------------------------------
 Cartesian Forces:  Max     0.005451866 RMS     0.002779369
 Leave Link  716 at Tue Jun 21 13:02:05 2016, MaxMem=    33554432 cpu:         0.0
 (Enter /share/sw/gaussian/D.01/g09/l103.exe)

 GradGradGradGradGradGradGradGradGradGradGradGradGradGradGradGradGradGrad
 Berny optimization.
 FormGI is forming the generalized inverse of G from B-inverse, IUseBI=4.
 Internal  Forces:  Max     0.009790961 RMS     0.003459557
 Search for a local minimum.
 Step number   1 out of a maximum of   64
 All quantities printed in internal units (Hartrees-Bohrs-Radians)
 RMS Force = .34596D-02 SwitMx=.10000D-02 MixMth= 1
 Mixed Optimization -- RFO/linear search
 Second derivative matrix not updated -- first step.
 ITU=  0
     Eigenvalues ---    0.02152   0.02153   0.02154   0.02155   0.02155
     Eigenvalues ---    0.02155   0.02155   0.02156   0.02157   0.16000
     Eigenvalues ---    0.16000   0.16000   0.16000   0.16000   0.16000
     Eigenvalues ---    0.22000   0.22000   0.22000   0.33709   0.33718
     Eigenvalues ---    0.33718   0.33720   0.33725   0.33726   0.42106
     Eigenvalues ---    0.42123   0.46412   0.46453   0.46466   0.46497
 RFO step:  Lambda=-1.46865307D-03 EMin= 2.15189816D-02
 Linear search not attempted -- first point.
 Iteration  1 RMS(Cart)=  0.01282376 RMS(Int)=  0.00000265
 Iteration  2 RMS(Cart)=  0.00000192 RMS(Int)=  0.00000013
 Iteration  3 RMS(Cart)=  0.00000000 RMS(Int)=  0.00000013
 ITry= 1 IFail=0 DXMaxC= 3.25D-02 DCOld= 1.00D+10 DXMaxT= 3.00D-01 DXLimC= 3.00D+00 Rises=F
 Variable       Old X    -DE/DX   Delta X   Delta X   Delta X     New X
                                 (Linear)    (Quad)   (Total)
    R1        2.63647  -0.00953   0.00000  -0.02045  -0.02045   2.61602
    R2        2.63584  -0.00946   0.00000  -0.02028  -0.02028   2.61556
    R3        2.07796  -0.00407   0.00000  -0.01203  -0.01203   2.06593
    R4        2.63562  -0.00940   0.00000  -0.02015  -0.02015   2.61547
    R5        2.07805  -0.00409   0.00000  -0.01207  -0.01207   2.06598
    R6        2.63697  -0.00979   0.00000  -0.02105  -0.02105   2.61592
    R7        2.07809  -0.00412   0.00000  -0.01218  -0.01218   2.06591
    R8        2.63584  -0.00940   0.00000  -0.02017  -0.02017   2.61567
    R9        2.07809  -0.00412   0.00000  -0.01217  -0.01217   2.06593
   R10        2.63643  -0.00960   0.00000  -0.02061  -0.02061   2.61582
   R11        2.07825  -0.00415   0.00000  -0.01227  -0.01227   2.06598
   R12        2.07795  -0.00407   0.00000  -0.01203  -0.01203   2.06592
    A1        2.09437  -0.00002   0.00000  -0.00003  -0.00003   2.09433
    A2        2.09435   0.00001   0.00000   0.00003   0.00003   2.09438
    A3        2.09447   0.00001   0.00000   0.00001   0.00001   2.09448
    A4        2.09455   0.00001   0.00000   0.00008   0.00008   2.09463
    A5        2.09406   0.00000   0.00000  -0.00003  -0.00003   2.09403
    A6        2.09458  -0.00001   0.00000  -0.00006  -0.00006   2.09452
    A7        2.09429  -0.00001   0.00000  -0.00007  -0.00007   2.09422
    A8        2.09462  -0.00002   0.00000  -0.00011  -0.00011   2.09451
    A9        2.09427   0.00003   0.00000   0.00019   0.00019   2.09446
   A10        2.09429   0.00002   0.00000   0.00005   0.00005   2.09434
   A11        2.09407   0.00001   0.00000   0.00013   0.00013   2.09420
   A12        2.09483  -0.00004   0.00000  -0.00018  -0.00018   2.09465
   A13        2.09448   0.00004   0.00000   0.00015   0.00015   2.09462
   A14        2.09459  -0.00005   0.00000  -0.00029  -0.00029   2.09430
   A15        2.09411   0.00002   0.00000   0.00015   0.00015   2.09426
   A16        2.09440  -0.00004   0.00000  -0.00017  -0.00017   2.09423
   A17        2.09453   0.00004   0.00000   0.00018   0.00018   2.09471
   A18        2.09426   0.00001   0.00000  -0.00001  -0.00001   2.09424
    D1        0.00056  -0.00001   0.00000  -0.00060  -0.00060  -0.00004
    D2        3.14078   0.00002   0.00000   0.00080   0.00080   3.14157
    D3       -3.14112  -0.00001   0.00000  -0.00058  -0.00058   3.14149
    D4       -0.00091   0.00002   0.00000   0.00082   0.00082  -0.00009
    D5        0.00026  -0.00001   0.00000  -0.00032  -0.00032  -0.00006
    D6        3.14140   0.00001   0.00000   0.00024   0.00024  -3.14154
    D7       -3.14124  -0.00001   0.00000  -0.00035  -0.00035  -3.14159
    D8       -0.00010   0.00000   0.00000   0.00022   0.00022   0.00012
    D9       -0.00099   0.00002   0.00000   0.00108   0.00108   0.00009
   D10        3.14093   0.00002   0.00000   0.00072   0.00072  -3.14154
   D11       -3.14120  -0.00001   0.00000  -0.00032  -0.00032  -3.14152
   D12        0.00072  -0.00002   0.00000  -0.00068  -0.00068   0.00003
   D13        0.00060  -0.00001   0.00000  -0.00063  -0.00063  -0.00004
   D14       -3.14153   0.00000   0.00000  -0.00015  -0.00015   3.14151
   D15       -3.14132  -0.00001   0.00000  -0.00027  -0.00027   3.14159
   D16       -0.00026   0.00000   0.00000   0.00022   0.00022  -0.00005
   D17        0.00023  -0.00001   0.00000  -0.00029  -0.00029  -0.00006
   D18       -3.14158   0.00000   0.00000   0.00009   0.00009  -3.14149
   D19       -3.14083  -0.00002   0.00000  -0.00078  -0.00078   3.14158
   D20        0.00054  -0.00001   0.00000  -0.00040  -0.00040   0.00014
   D21       -0.00066   0.00002   0.00000   0.00077   0.00077   0.00011
   D22        3.14138   0.00000   0.00000   0.00021   0.00021   3.14159
   D23        3.14116   0.00001   0.00000   0.00039   0.00039   3.14154
   D24        0.00001   0.00000   0.00000  -0.00017  -0.00017  -0.00016
         Item               Value     Threshold  Converged?
 Maximum Force            0.009791     0.000450     NO 
 RMS     Force            0.003460     0.000300     NO 
 Maximum Displacement     0.032536     0.001800     NO 
 RMS     Displacement     0.012824     0.001200     NO 
 Predicted change in Energy=-7.368226D-04
 Lowest energy point so far.  Saving SCF results.
 GradGradGradGradGradGradGradGradGradGradGradGradGradGradGradGradGradGrad

 Leave Link  103 at Tue Jun 21 13:02:05 2016, MaxMem=    33554432 cpu:         0.0
 (Enter /share/sw/gaussian/D.01/g09/l202.exe)
                          Input orientation:                          
 ---------------------------------------------------------------------
 Center     Atomic      Atomic             Coordinates (Angstroms)
 Number     Number       Type             X           Y           Z
 ---------------------------------------------------------------------
      1          6           0       -0.040632    0.469448    0.000062
      2          6           0        1.343707    0.469561    0.000521
      3          6           0        2.035914    1.668076   -0.000082
      4          6           0        1.343741    2.866887   -0.001038
      5          6           0       -0.040411    2.866775   -0.001438
      6          6           0       -0.732705    1.668097   -0.000955
      7          1           0       -0.587159   -0.477385    0.000438
      8          1           0        1.890077   -0.477392    0.001341
      9          1           0        3.129148    1.668031    0.000231
     10          1           0        1.890528    3.813565   -0.001434
     11          1           0       -0.587032    3.813581   -0.002287
     12          1           0       -1.825944    1.668423   -0.001270
 ---------------------------------------------------------------------
                    Distance matrix (angstroms):
                    1          2          3          4          5
     1  C    0.000000
     2  C    1.384340   0.000000
     3  C    2.397656   1.384048   0.000000
     4  C    2.768430   2.397327   1.384287   0.000000
     5  C    2.397328   2.768108   2.397500   1.384152   0.000000
     6  C    1.384097   2.397494   2.768619   2.397650   1.384233
     7  H    1.093244   2.150570   3.388733   3.861675   3.388561
     8  H    2.150383   1.093270   2.150420   3.388612   3.861379
     9  H    3.388822   2.150379   1.093235   2.150566   3.388672
    10  H    3.861671   3.388419   2.150410   1.093241   2.150567
    11  H    3.388478   3.861377   3.388663   2.150376   1.093268
    12  H    2.150553   3.388799   3.861857   3.388690   2.150390
                    6          7          8          9         10
     6  C    0.000000
     7  H    2.150413   0.000000
     8  H    3.388526   2.477236   0.000000
     9  H    3.861853   4.291124   2.477527   0.000000
    10  H    3.388862   4.954916   4.290958   2.477398   0.000000
    11  H    2.150424   4.290966   4.954647   4.291082   2.477560
    12  H    1.093239   2.477717   4.291076   4.955092   4.291130
                   11         12
    11  H    0.000000
    12  H    2.477217   0.000000
 Stoichiometry    C6H6
 Framework group  C1[X(C6H6)]
 Deg. of freedom    30
 Full point group                 C1      NOp   1
 RotChk:  IX=2 Diff= 8.80D-01
 Largest Abelian subgroup         C1      NOp   1
 Largest concise Abelian subgroup C1      NOp   1
                         Standard orientation:                         
 ---------------------------------------------------------------------
 Center     Atomic      Atomic             Coordinates (Angstroms)
 Number     Number       Type             X           Y           Z
 ---------------------------------------------------------------------
      1          6           0       -0.953252   -1.003675    0.000004
      2          6           0        0.392763   -1.327155    0.000026
      3          6           0        1.345946   -0.323645   -0.000030
      4          6           0        0.953172    1.003750   -0.000001
      5          6           0       -0.392661    1.327188    0.000036
      6          6           0       -1.345967    0.323540   -0.000028
      7          1           0       -1.705961   -1.796526   -0.000052
      8          1           0        0.702646   -2.375588    0.000069
      9          1           0        2.408884   -0.579234   -0.000062
     10          1           0        1.706097    1.796391    0.000035
     11          1           0       -0.702823    2.375536   -0.000035
     12          1           0       -2.408844    0.579402    0.000002
 ---------------------------------------------------------------------
 Rotational constants (GHZ):      5.7743588      5.7728215      2.8867950
 Leave Link  202 at Tue Jun 21 13:02:05 2016, MaxMem=    33554432 cpu:         0.0
 (Enter /share/sw/gaussian/D.01/g09/l301.exe)
 Standard basis: 6-311+G(3df,2pd) (5D, 7F)
 Ernie: Thresh=  0.10000D-02 Tol=  0.10000D-05 Strict=F.
 There are   360 symmetry adapted cartesian basis functions of A   symmetry.
 There are   318 symmetry adapted basis functions of A   symmetry.
   318 basis functions,   450 primitive gaussians,   360 cartesian basis functions
    21 alpha electrons       21 beta electrons
       nuclear repulsion energy       204.5586004162 Hartrees.
 IExCor=  201 DFT=T Ex=S Corr=VWN5 ExCW=0 ScaHFX=  0.000000
 ScaDFX=  1.000000  1.000000  1.000000  1.000000 ScalE2=  1.000000  1.000000
 IRadAn=      0 IRanWt=     -1 IRanGd=            0 ICorTp=0 IEmpDi=  4
 NAtoms=   12 NActive=   12 NUniq=   12 SFac= 1.00D+00 NAtFMM=   60 NAOKFM=F Big=F
 Integral buffers will be    131072 words long.
 Raffenetti 2 integral format.
 Two-electron integral symmetry is turned on.
 Leave Link  301 at Tue Jun 21 13:02:05 2016, MaxMem=    33554432 cpu:         0.1
 (Enter /share/sw/gaussian/D.01/g09/l302.exe)
 NPDir=0 NMtPBC=     1 NCelOv=     1 NCel=       1 NClECP=     1 NCelD=      1
         NCelK=      1 NCelE2=     1 NClLst=     1 CellRange=     0.0.
 One-electron integrals computed using PRISM.
 NBasis=   318 RedAO= T EigKep=  1.65D-06  NBF=   318
 NBsUse=   318 1.00D-06 EigRej= -1.00D+00 NBFU=   318
 Precomputing XC quadrature grid using
 IXCGrd= 4 IRadAn=           0 IRanWt=          -1 IRanGd=           0 AccXCQ= 0.00D+00.
 Generated NRdTot=       0 NPtTot=           0 NUsed=           0 NTot=          32
 NSgBfM=   360   360   360   360   360 MxSgAt=    12 MxSgA2=    12.
 Leave Link  302 at Tue Jun 21 13:02:06 2016, MaxMem=    33554432 cpu:         0.4
 (Enter /share/sw/gaussian/D.01/g09/l303.exe)
 DipDrv:  MaxL=1.
 Leave Link  303 at Tue Jun 21 13:02:06 2016, MaxMem=    33554432 cpu:         0.1
 (Enter /share/sw/gaussian/D.01/g09/l401.exe)
 Initial guess from the checkpoint file:  "b3lyp-Benzene.chk"
 B after Tr=     0.000000    0.000000    0.000000
         Rot=    0.950392    0.000000    0.000000    0.311055 Ang= -36.25 deg.
 Guess basis will be translated and rotated to current coordinates.
 JPrj=2 DoOrth=T DoCkMO=T.
 Generating alternative initial guess.
 ExpMin= 4.38D-02 ExpMax= 4.56D+03 ExpMxC= 6.82D+02 IAcc=2 IRadAn=         4 AccDes= 0.00D+00
 Harris functional with IExCor=  201 and IRadAn=       4 diagonalized for initial guess.
 HarFok:  IExCor=  201 AccDes= 0.00D+00 IRadAn=         4 IDoV= 1 UseB2=F ITyADJ=14
 ICtDFT=  3500011 ScaDFX=  1.000000  1.000000  1.000000  1.000000
 FoFCou: FMM=F IPFlag=           0 FMFlag=      100000 FMFlg1=           0
         NFxFlg=           0 DoJE=T BraDBF=F KetDBF=T FulRan=T
         wScrn=  0.000000 ICntrl=     500 IOpCl=  0 I1Cent=   200000004 NGrid=           0
         NMat0=    1 NMatS0=      1 NMatT0=    0 NMatD0=    1 NMtDS0=    0 NMtDT0=    0
 Petite list used in FoFCou.
 Harris En= -230.364642442113    
 Leave Link  401 at Tue Jun 21 13:02:08 2016, MaxMem=    33554432 cpu:         2.3
 (Enter /share/sw/gaussian/D.01/g09/l502.exe)
 Closed shell SCF:
 Using DIIS extrapolation, IDIIS=  1040.
 Integral symmetry usage will be decided dynamically.
 IVT=      412102 IEndB=      412102 NGot=    33554432 MDV=    33288931
 LenX=    33288931 LenY=    33158890
 Requested convergence on RMS density matrix=1.00D-08 within 128 cycles.
 Requested convergence on MAX density matrix=1.00D-06.
 Requested convergence on             energy=1.00D-06.
 No special actions if energy rises.
 Fock matrices will be formed incrementally for  20 cycles.

 Cycle   1  Pass 1  IDiag  1:
 FoFJK:  IHMeth= 1 ICntrl=     500 DoSepK=F KAlg= 0 I1Cent=   0 FoldK=F
 IRaf= 980000000 NMat=   1 IRICut=       1 DoRegI=T DoRafI=F ISym2E= 0.
 FoFCou: FMM=F IPFlag=           0 FMFlag=      100000 FMFlg1=           0
         NFxFlg=           0 DoJE=T BraDBF=F KetDBF=F FulRan=T
         wScrn=  0.000000 ICntrl=     500 IOpCl=  0 I1Cent=           0 NGrid=           0
         NMat0=    1 NMatS0=      1 NMatT0=    0 NMatD0=    1 NMtDS0=    0 NMtDT0=    0
 Symmetry not used in FoFCou.
 E= -230.172258620989    
 DIIS: error= 2.12D-03 at cycle   1 NSaved=   1.
 NSaved= 1 IEnMin= 1 EnMin= -230.172258620989     IErMin= 1 ErrMin= 2.12D-03
 ErrMax= 2.12D-03  0.00D+00 EMaxC= 1.00D-01 BMatC= 5.69D-04 BMatP= 5.69D-04
 IDIUse=3 WtCom= 9.79D-01 WtEn= 2.12D-02
 Coeff-Com:  0.100D+01
 Coeff-En:   0.100D+01
 Coeff:      0.100D+01
 Gap=     0.458 Goal=   None    Shift=    0.000
 GapD=    0.458 DampG=2.000 DampE=1.000 DampFc=2.0000 IDamp=-1.
 RMSDP=2.19D-04 MaxDP=6.29D-03              OVMax= 4.38D-03

 Cycle   2  Pass 1  IDiag  1:
 RMSU=  2.11D-04    CP:  1.01D+00
 E= -230.172381417123     Delta-E=       -0.000122796134 Rises=F Damp=F
 DIIS: error= 9.56D-04 at cycle   2 NSaved=   2.
 NSaved= 2 IEnMin= 2 EnMin= -230.172381417123     IErMin= 2 ErrMin= 9.56D-04
 ErrMax= 9.56D-04  0.00D+00 EMaxC= 1.00D-01 BMatC= 6.44D-05 BMatP= 5.69D-04
 IDIUse=3 WtCom= 9.90D-01 WtEn= 9.56D-03
 Coeff-Com:  0.156D+00 0.844D+00
 Coeff-En:   0.000D+00 0.100D+01
 Coeff:      0.154D+00 0.846D+00
 Gap=     0.190 Goal=   None    Shift=    0.000
 RMSDP=6.06D-05 MaxDP=1.62D-03 DE=-1.23D-04 OVMax= 3.66D-03

 Cycle   3  Pass 1  IDiag  1:
 RMSU=  5.98D-05    CP:  1.01D+00  9.76D-01
 E= -230.172354767009     Delta-E=        0.000026650113 Rises=F Damp=F
 DIIS: error= 1.10D-03 at cycle   3 NSaved=   3.
 NSaved= 3 IEnMin= 2 EnMin= -230.172381417123     IErMin= 2 ErrMin= 9.56D-04
 ErrMax= 1.10D-03  0.00D+00 EMaxC= 1.00D-01 BMatC= 8.88D-05 BMatP= 6.44D-05
 IDIUse=3 WtCom= 2.32D-01 WtEn= 7.68D-01
 Coeff-Com:  0.168D-01 0.536D+00 0.447D+00
 Coeff-En:   0.000D+00 0.569D+00 0.431D+00
 Coeff:      0.389D-02 0.562D+00 0.434D+00
 Gap=     0.191 Goal=   None    Shift=    0.000
 RMSDP=3.56D-05 MaxDP=8.88D-04 DE= 2.67D-05 OVMax= 1.96D-03

 Cycle   4  Pass 1  IDiag  1:
 RMSU=  1.06D-05    CP:  1.01D+00  1.01D+00  4.61D-01
 E= -230.172447440440     Delta-E=       -0.000092673431 Rises=F Damp=F
 DIIS: error= 4.98D-05 at cycle   4 NSaved=   4.
 NSaved= 4 IEnMin= 4 EnMin= -230.172447440440     IErMin= 4 ErrMin= 4.98D-05
 ErrMax= 4.98D-05  0.00D+00 EMaxC= 1.00D-01 BMatC= 2.67D-07 BMatP= 6.44D-05
 IDIUse=1 WtCom= 1.00D+00 WtEn= 0.00D+00
 Coeff-Com:  0.131D-02 0.106D+00 0.485D-01 0.844D+00
 Coeff:      0.131D-02 0.106D+00 0.485D-01 0.844D+00
 Gap=     0.191 Goal=   None    Shift=    0.000
 RMSDP=3.00D-06 MaxDP=7.95D-05 DE=-9.27D-05 OVMax= 1.51D-04

 Cycle   5  Pass 1  IDiag  1:
 RMSU=  8.79D-07    CP:  1.01D+00  1.01D+00  4.36D-01  7.85D-01
 E= -230.172447695962     Delta-E=       -0.000000255522 Rises=F Damp=F
 DIIS: error= 1.72D-05 at cycle   5 NSaved=   5.
 NSaved= 5 IEnMin= 5 EnMin= -230.172447695962     IErMin= 5 ErrMin= 1.72D-05
 ErrMax= 1.72D-05  0.00D+00 EMaxC= 1.00D-01 BMatC= 2.33D-08 BMatP= 2.67D-07
 IDIUse=1 WtCom= 1.00D+00 WtEn= 0.00D+00
 Coeff-Com:  0.218D-03 0.397D-01 0.131D-01 0.410D+00 0.537D+00
 Coeff:      0.218D-03 0.397D-01 0.131D-01 0.410D+00 0.537D+00
 Gap=     0.191 Goal=   None    Shift=    0.000
 RMSDP=7.39D-07 MaxDP=3.01D-05 DE=-2.56D-07 OVMax= 1.23D-04

 Cycle   6  Pass 1  IDiag  1:
 RMSU=  5.12D-07    CP:  1.01D+00  1.01D+00  4.39D-01  8.00D-01  4.55D-01
 E= -230.172447703733     Delta-E=       -0.000000007771 Rises=F Damp=F
 DIIS: error= 1.64D-05 at cycle   6 NSaved=   6.
 NSaved= 6 IEnMin= 6 EnMin= -230.172447703733     IErMin= 6 ErrMin= 1.64D-05
 ErrMax= 1.64D-05  0.00D+00 EMaxC= 1.00D-01 BMatC= 1.50D-08 BMatP= 2.33D-08
 IDIUse=1 WtCom= 1.00D+00 WtEn= 0.00D+00
 Coeff-Com:  0.924D-05 0.172D-01 0.392D-02 0.206D+00 0.419D+00 0.353D+00
 Coeff:      0.924D-05 0.172D-01 0.392D-02 0.206D+00 0.419D+00 0.353D+00
 Gap=     0.191 Goal=   None    Shift=    0.000
 RMSDP=3.54D-07 MaxDP=1.50D-05 DE=-7.77D-09 OVMax= 6.28D-05

 Cycle   7  Pass 1  IDiag  1:
 RMSU=  1.05D-07    CP:  1.01D+00  1.01D+00  4.39D-01  8.06D-01  6.20D-01
                    CP:  4.19D-01
 E= -230.172447721263     Delta-E=       -0.000000017529 Rises=F Damp=F
 DIIS: error= 7.58D-07 at cycle   7 NSaved=   7.
 NSaved= 7 IEnMin= 7 EnMin= -230.172447721263     IErMin= 7 ErrMin= 7.58D-07
 ErrMax= 7.58D-07  0.00D+00 EMaxC= 1.00D-01 BMatC= 9.64D-11 BMatP= 1.50D-08
 IDIUse=1 WtCom= 1.00D+00 WtEn= 0.00D+00
 Coeff-Com: -0.402D-05 0.407D-02 0.364D-03 0.536D-01 0.128D+00 0.135D+00
 Coeff-Com:  0.679D+00
 Coeff:     -0.402D-05 0.407D-02 0.364D-03 0.536D-01 0.128D+00 0.135D+00
 Coeff:      0.679D+00
 Gap=     0.191 Goal=   None    Shift=    0.000
 RMSDP=6.01D-08 MaxDP=2.55D-06 DE=-1.75D-08 OVMax= 4.08D-06

 Cycle   8  Pass 1  IDiag  1:
 RMSU=  3.05D-08    CP:  1.01D+00  1.01D+00  4.39D-01  8.08D-01  6.23D-01
                    CP:  4.37D-01  7.55D-01
 E= -230.172447721334     Delta-E=       -0.000000000072 Rises=F Damp=F
 DIIS: error= 4.95D-07 at cycle   8 NSaved=   8.
 NSaved= 8 IEnMin= 8 EnMin= -230.172447721334     IErMin= 8 ErrMin= 4.95D-07
 ErrMax= 4.95D-07  0.00D+00 EMaxC= 1.00D-01 BMatC= 3.07D-11 BMatP= 9.64D-11
 IDIUse=1 WtCom= 1.00D+00 WtEn= 0.00D+00
 Coeff-Com: -0.294D-05 0.193D-02 0.426D-04 0.266D-01 0.667D-01 0.748D-01
 Coeff-Com:  0.458D+00 0.372D+00
 Coeff:     -0.294D-05 0.193D-02 0.426D-04 0.266D-01 0.667D-01 0.748D-01
 Coeff:      0.458D+00 0.372D+00
 Gap=     0.191 Goal=   None    Shift=    0.000
 RMSDP=1.82D-08 MaxDP=5.98D-07 DE=-7.17D-11 OVMax= 1.92D-06

 Cycle   9  Pass 1  IDiag  1:
 RMSU=  4.23D-09    CP:  1.01D+00  1.01D+00  4.38D-01  8.08D-01  6.22D-01
                    CP:  4.38D-01  7.91D-01  4.44D-01
 E= -230.172447721367     Delta-E=       -0.000000000033 Rises=F Damp=F
 DIIS: error= 5.02D-09 at cycle   9 NSaved=   9.
 NSaved= 9 IEnMin= 9 EnMin= -230.172447721367     IErMin= 9 ErrMin= 5.02D-09
 ErrMax= 5.02D-09  0.00D+00 EMaxC= 1.00D-01 BMatC= 5.44D-15 BMatP= 3.07D-11
 IDIUse=1 WtCom= 1.00D+00 WtEn= 0.00D+00
 Coeff-Com: -0.471D-06 0.301D-03 0.104D-05 0.423D-02 0.106D-01 0.120D-01
 Coeff-Com:  0.757D-01 0.652D-01 0.832D+00
 Coeff:     -0.471D-06 0.301D-03 0.104D-05 0.423D-02 0.106D-01 0.120D-01
 Coeff:      0.757D-01 0.652D-01 0.832D+00
 Gap=     0.191 Goal=   None    Shift=    0.000
 RMSDP=7.24D-10 MaxDP=3.02D-08 DE=-3.26D-11 OVMax= 3.88D-08

 SCF Done:  E(RS-VWN5) =  -230.172447721     A.U. after    9 cycles
            NFock=  9  Conv=0.72D-09     -V/T= 2.0069
 KE= 2.286063291416D+02 PE=-9.449587286103D+02 EE= 2.816213513312D+02
 Leave Link  502 at Tue Jun 21 13:03:33 2016, MaxMem=    33554432 cpu:        85.0
 (Enter /share/sw/gaussian/D.01/g09/l701.exe)
 Compute integral first derivatives.
 ... and contract with generalized density number  0.
 Leave Link  701 at Tue Jun 21 13:03:33 2016, MaxMem=    33554432 cpu:         0.3
 (Enter /share/sw/gaussian/D.01/g09/l702.exe)
 L702 exits ... SP integral derivatives will be done elsewhere.
 Leave Link  702 at Tue Jun 21 13:03:33 2016, MaxMem=    33554432 cpu:         0.0
 (Enter /share/sw/gaussian/D.01/g09/l703.exe)
 Compute integral first derivatives, UseDBF=F ICtDFT=           0.
 Integral derivatives from FoFJK, PRISM(SPDF).
 Calling FoFJK, ICntrl=      2527 FMM=F ISym2X=0 I1Cent= 0 IOpClX= 0 NMat=1 NMatS=1 NMatT=0.
 FoFJK:  IHMeth= 1 ICntrl=    2527 DoSepK=F KAlg= 0 I1Cent=   0 FoldK=F
 IRaf=         0 NMat=   1 IRICut=       1 DoRegI=T DoRafI=F ISym2E= 0.
 FoFCou: FMM=F IPFlag=           0 FMFlag=      100000 FMFlg1=         800
         NFxFlg=           0 DoJE=F BraDBF=F KetDBF=F FulRan=T
         wScrn=  0.000000 ICntrl=    2527 IOpCl=  0 I1Cent=           0 NGrid=           0
         NMat0=    1 NMatS0=      1 NMatT0=    0 NMatD0=    1 NMtDS0=    0 NMtDT0=    0
 Symmetry not used in FoFCou.
 Leave Link  703 at Tue Jun 21 13:05:26 2016, MaxMem=    33554432 cpu:       112.9
 (Enter /share/sw/gaussian/D.01/g09/l716.exe)
 Dipole        = 1.24929180D-06-1.91365625D-06-1.26919570D-05
 ***** Axes restored to original set *****
 -------------------------------------------------------------------
 Center     Atomic                   Forces (Hartrees/Bohr)
 Number     Number              X              Y              Z
 -------------------------------------------------------------------
      1        6          -0.000368203   -0.000591306   -0.000003561
      2        6           0.000154350   -0.000695725   -0.000003260
      3        6           0.000573929    0.000123235    0.000005774
      4        6           0.000529907    0.000495988    0.000002649
      5        6          -0.000311265    0.000604487   -0.000012651
      6        6          -0.000580499    0.000058619    0.000009569
      7        1          -0.000062900   -0.000120321    0.000003253
      8        1           0.000089767   -0.000110899   -0.000001592
      9        1           0.000154385   -0.000003687    0.000000926
     10        1           0.000046255    0.000132563   -0.000002549
     11        1          -0.000073669    0.000121483    0.000004872
     12        1          -0.000152057   -0.000014437   -0.000003428
 -------------------------------------------------------------------
 Cartesian Forces:  Max     0.000695725 RMS     0.000278558
 Leave Link  716 at Tue Jun 21 13:05:26 2016, MaxMem=    33554432 cpu:         0.0
 (Enter /share/sw/gaussian/D.01/g09/l103.exe)

 GradGradGradGradGradGradGradGradGradGradGradGradGradGradGradGradGradGrad
 Berny optimization.
 Using GEDIIS/GDIIS optimizer.
 FormGI is forming the generalized inverse of G from B-inverse, IUseBI=4.
 Internal  Forces:  Max     0.000914662 RMS     0.000271235
 Search for a local minimum.
 Step number   2 out of a maximum of   64
 All quantities printed in internal units (Hartrees-Bohrs-Radians)
 RMS Force = .27123D-03 SwitMx=.10000D-02 MixMth= 2
 Mixed Optimization -- En-DIIS/RFO-DIIS
 Update second derivatives using D2CorX and points    1    2
 DE= -7.43D-04 DEPred=-7.37D-04 R= 1.01D+00
 TightC=F SS=  1.41D+00  RLast= 5.83D-02 DXNew= 5.0454D-01 1.7491D-01
 Trust test= 1.01D+00 RLast= 5.83D-02 DXMaxT set to 3.00D-01
 ITU=  1  0
 Use linear search instead of GDIIS.
     Eigenvalues ---    0.02152   0.02153   0.02154   0.02155   0.02155
     Eigenvalues ---    0.02155   0.02155   0.02156   0.02157   0.15999
     Eigenvalues ---    0.16000   0.16000   0.16000   0.16000   0.16000
     Eigenvalues ---    0.21999   0.22000   0.22000   0.33697   0.33712
     Eigenvalues ---    0.33719   0.33719   0.33723   0.33729   0.42051
     Eigenvalues ---    0.42067   0.46418   0.46459   0.46464   0.50096
 RFO step:  Lambda=-8.35664133D-07 EMin= 2.15189938D-02
 Quartic linear search produced a step of -0.05558.
 Iteration  1 RMS(Cart)=  0.00068997 RMS(Int)=  0.00000006
 Iteration  2 RMS(Cart)=  0.00000006 RMS(Int)=  0.00000002
 ITry= 1 IFail=0 DXMaxC= 1.64D-03 DCOld= 1.00D+10 DXMaxT= 3.00D-01 DXLimC= 3.00D+00 Rises=F
 Variable       Old X    -DE/DX   Delta X   Delta X   Delta X     New X
                                 (Linear)    (Quad)   (Total)
    R1        2.61602   0.00073   0.00114   0.00007   0.00120   2.61723
    R2        2.61556   0.00079   0.00113   0.00020   0.00133   2.61689
    R3        2.06593   0.00014   0.00067  -0.00051   0.00016   2.06609
    R4        2.61547   0.00091   0.00112   0.00047   0.00159   2.61706
    R5        2.06598   0.00014   0.00067  -0.00050   0.00017   2.06615
    R6        2.61592   0.00069   0.00117  -0.00005   0.00112   2.61705
    R7        2.06591   0.00015   0.00068  -0.00047   0.00021   2.06612
    R8        2.61567   0.00082   0.00112   0.00028   0.00140   2.61707
    R9        2.06593   0.00014   0.00068  -0.00051   0.00016   2.06609
   R10        2.61582   0.00082   0.00115   0.00025   0.00139   2.61721
   R11        2.06598   0.00014   0.00068  -0.00051   0.00017   2.06615
   R12        2.06592   0.00015   0.00067  -0.00046   0.00020   2.06613
    A1        2.09433  -0.00005   0.00000  -0.00022  -0.00022   2.09411
    A2        2.09438   0.00000   0.00000  -0.00005  -0.00005   2.09432
    A3        2.09448   0.00005   0.00000   0.00027   0.00027   2.09475
    A4        2.09463   0.00000   0.00000   0.00002   0.00001   2.09464
    A5        2.09403   0.00004   0.00000   0.00026   0.00026   2.09429
    A6        2.09452  -0.00005   0.00000  -0.00027  -0.00027   2.09425
    A7        2.09422   0.00005   0.00000   0.00021   0.00021   2.09443
    A8        2.09451  -0.00001   0.00001  -0.00001  -0.00001   2.09450
    A9        2.09446  -0.00004  -0.00001  -0.00019  -0.00020   2.09426
   A10        2.09434  -0.00005   0.00000  -0.00022  -0.00022   2.09412
   A11        2.09420   0.00007  -0.00001   0.00041   0.00040   2.09460
   A12        2.09465  -0.00002   0.00001  -0.00019  -0.00018   2.09447
   A13        2.09462   0.00000  -0.00001   0.00002   0.00002   2.09464
   A14        2.09430   0.00002   0.00002   0.00011   0.00013   2.09443
   A15        2.09426  -0.00003  -0.00001  -0.00014  -0.00015   2.09412
   A16        2.09423   0.00005   0.00001   0.00019   0.00020   2.09443
   A17        2.09471  -0.00006  -0.00001  -0.00030  -0.00031   2.09440
   A18        2.09424   0.00001   0.00000   0.00011   0.00011   2.09435
    D1       -0.00004   0.00000   0.00003  -0.00015  -0.00012  -0.00015
    D2        3.14157   0.00000  -0.00004   0.00027   0.00023  -3.14138
    D3        3.14149   0.00000   0.00003  -0.00009  -0.00006   3.14143
    D4       -0.00009   0.00000  -0.00005   0.00034   0.00029   0.00020
    D5       -0.00006   0.00000   0.00002  -0.00004  -0.00002  -0.00009
    D6       -3.14154   0.00000  -0.00001   0.00004   0.00002  -3.14152
    D7       -3.14159   0.00000   0.00002  -0.00010  -0.00008   3.14151
    D8        0.00012   0.00000  -0.00001  -0.00002  -0.00004   0.00008
    D9        0.00009   0.00000  -0.00006   0.00025   0.00019   0.00028
   D10       -3.14154   0.00000  -0.00004   0.00019   0.00015  -3.14139
   D11       -3.14152   0.00000   0.00002  -0.00017  -0.00016   3.14151
   D12        0.00003   0.00000   0.00004  -0.00023  -0.00019  -0.00016
   D13       -0.00004   0.00000   0.00004  -0.00016  -0.00012  -0.00016
   D14        3.14151   0.00000   0.00001   0.00004   0.00004   3.14155
   D15        3.14159   0.00000   0.00002  -0.00010  -0.00008   3.14151
   D16       -0.00005   0.00000  -0.00001   0.00009   0.00008   0.00003
   D17       -0.00006   0.00000   0.00002  -0.00003  -0.00002  -0.00008
   D18       -3.14149   0.00000  -0.00001  -0.00006  -0.00007  -3.14156
   D19        3.14158   0.00000   0.00004  -0.00023  -0.00018   3.14139
   D20        0.00014   0.00000   0.00002  -0.00026  -0.00023  -0.00009
   D21        0.00011   0.00000  -0.00004   0.00013   0.00009   0.00020
   D22        3.14159   0.00000  -0.00001   0.00005   0.00004  -3.14155
   D23        3.14154   0.00000  -0.00002   0.00016   0.00014  -3.14150
   D24       -0.00016   0.00000   0.00001   0.00008   0.00009  -0.00007
         Item               Value     Threshold  Converged?
 Maximum Force            0.000915     0.000450     NO 
 RMS     Force            0.000271     0.000300     YES
 Maximum Displacement     0.001638     0.001800     YES
 RMS     Displacement     0.000690     0.001200     YES
 Predicted change in Energy=-3.900352D-06
 Lowest energy point so far.  Saving SCF results.
 GradGradGradGradGradGradGradGradGradGradGradGradGradGradGradGradGradGrad

 Leave Link  103 at Tue Jun 21 13:05:26 2016, MaxMem=    33554432 cpu:         0.0
 (Enter /share/sw/gaussian/D.01/g09/l202.exe)
                          Input orientation:                          
 ---------------------------------------------------------------------
 Center     Atomic      Atomic             Coordinates (Angstroms)
 Number     Number       Type             X           Y           Z
 ---------------------------------------------------------------------
      1          6           0       -0.041110    0.468727    0.000074
      2          6           0        1.343866    0.468859    0.000636
      3          6           0        2.036490    1.668102   -0.000067
      4          6           0        1.344272    2.867573   -0.000998
      5          6           0       -0.040619    2.867444   -0.001421
      6          6           0       -0.733286    1.668129   -0.001006
      7          1           0       -0.587617   -0.478213    0.000476
      8          1           0        1.890538   -0.478024    0.001289
      9          1           0        3.129835    1.668051    0.000185
     10          1           0        1.890917    3.814432   -0.001514
     11          1           0       -0.587421    3.814250   -0.002185
     12          1           0       -1.826633    1.668338   -0.001380
 ---------------------------------------------------------------------
                    Distance matrix (angstroms):
                    1          2          3          4          5
     1  C    0.000000
     2  C    1.384976   0.000000
     3  C    2.398942   1.384887   0.000000
     4  C    2.770153   2.398715   1.384882   0.000000
     5  C    2.398717   2.769479   2.398501   1.384891   0.000000
     6  C    1.384801   2.398502   2.769776   2.398940   1.384970
     7  H    1.093328   2.151179   3.390075   3.863481   3.390078
     8  H    2.151187   1.093362   2.151084   3.389902   3.862840
     9  H    3.390173   2.151220   1.093345   2.151067   3.389739
    10  H    3.863480   3.390004   2.151262   1.093327   2.151190
    11  H    3.389835   3.862838   3.389818   2.151194   1.093359
    12  H    2.151084   3.389811   3.863123   3.390103   2.151208
                    6          7          8          9         10
     6  C    0.000000
     7  H    2.151281   0.000000
     8  H    3.389754   2.478155   0.000000
     9  H    3.863121   4.292540   2.478204   0.000000
    10  H    3.390141   4.956808   4.292457   2.478280   0.000000
    11  H    2.151072   4.292464   4.956199   4.292339   2.478338
    12  H    1.093347   2.478477   4.292347   4.956468   4.292540
                   11         12
    11  H    0.000000
    12  H    2.478020   0.000000
 Stoichiometry    C6H6
 Framework group  C1[X(C6H6)]
 Deg. of freedom    30
 Full point group                 C1      NOp   1
 RotChk:  IX=2 Diff= 7.68D-01
 Largest Abelian subgroup         C1      NOp   1
 Largest concise Abelian subgroup C1      NOp   1
                         Standard orientation:                         
 ---------------------------------------------------------------------
 Center     Atomic      Atomic             Coordinates (Angstroms)
 Number     Number       Type             X           Y           Z
 ---------------------------------------------------------------------
      1          6           0       -1.338138   -0.357527    0.000001
      2          6           0       -0.359278   -1.337319    0.000102
      3          6           0        0.978679   -0.979849   -0.000056
      4          6           0        1.338124    0.357573    0.000019
      5          6           0        0.359325    1.337307    0.000057
      6          6           0       -0.978712    0.979816   -0.000074
      7          1           0       -2.394326   -0.640074   -0.000028
      8          1           0       -0.642873   -2.393261   -0.000039
      9          1           0        1.751313   -1.753437   -0.000168
     10          1           0        2.394352    0.639965   -0.000067
     11          1           0        0.642774    2.393286    0.000087
     12          1           0       -1.751235    1.753518   -0.000083
 ---------------------------------------------------------------------
 Rotational constants (GHZ):      5.7691698      5.7671168      2.8840716
 Leave Link  202 at Tue Jun 21 13:05:27 2016, MaxMem=    33554432 cpu:         0.0
 (Enter /share/sw/gaussian/D.01/g09/l301.exe)
 Standard basis: 6-311+G(3df,2pd) (5D, 7F)
 Ernie: Thresh=  0.10000D-02 Tol=  0.10000D-05 Strict=F.
 There are   360 symmetry adapted cartesian basis functions of A   symmetry.
 There are   318 symmetry adapted basis functions of A   symmetry.
   318 basis functions,   450 primitive gaussians,   360 cartesian basis functions
    21 alpha electrons       21 beta electrons
       nuclear repulsion energy       204.4670079477 Hartrees.
 IExCor=  201 DFT=T Ex=S Corr=VWN5 ExCW=0 ScaHFX=  0.000000
 ScaDFX=  1.000000  1.000000  1.000000  1.000000 ScalE2=  1.000000  1.000000
 IRadAn=      0 IRanWt=     -1 IRanGd=            0 ICorTp=0 IEmpDi=  4
 NAtoms=   12 NActive=   12 NUniq=   12 SFac= 1.00D+00 NAtFMM=   60 NAOKFM=F Big=F
 Integral buffers will be    131072 words long.
 Raffenetti 2 integral format.
 Two-electron integral symmetry is turned on.
 Leave Link  301 at Tue Jun 21 13:05:27 2016, MaxMem=    33554432 cpu:         0.1
 (Enter /share/sw/gaussian/D.01/g09/l302.exe)
 NPDir=0 NMtPBC=     1 NCelOv=     1 NCel=       1 NClECP=     1 NCelD=      1
         NCelK=      1 NCelE2=     1 NClLst=     1 CellRange=     0.0.
 One-electron integrals computed using PRISM.
 NBasis=   318 RedAO= T EigKep=  1.66D-06  NBF=   318
 NBsUse=   318 1.00D-06 EigRej= -1.00D+00 NBFU=   318
 Precomputing XC quadrature grid using
 IXCGrd= 4 IRadAn=           0 IRanWt=          -1 IRanGd=           0 AccXCQ= 0.00D+00.
 Generated NRdTot=       0 NPtTot=           0 NUsed=           0 NTot=          32
 NSgBfM=   360   360   360   360   360 MxSgAt=    12 MxSgA2=    12.
 Leave Link  302 at Tue Jun 21 13:05:27 2016, MaxMem=    33554432 cpu:         0.3
 (Enter /share/sw/gaussian/D.01/g09/l303.exe)
 DipDrv:  MaxL=1.
 Leave Link  303 at Tue Jun 21 13:05:27 2016, MaxMem=    33554432 cpu:         0.0
 (Enter /share/sw/gaussian/D.01/g09/l401.exe)
 Initial guess from the checkpoint file:  "b3lyp-Benzene.chk"
 B after Tr=     0.000000    0.000000    0.000000
         Rot=    0.962416    0.000000    0.000000    0.271581 Ang=  31.52 deg.
 Guess basis will be translated and rotated to current coordinates.
 JPrj=2 DoOrth=T DoCkMO=T.
 Leave Link  401 at Tue Jun 21 13:05:27 2016, MaxMem=    33554432 cpu:         0.1
 (Enter /share/sw/gaussian/D.01/g09/l502.exe)
 Closed shell SCF:
 Using DIIS extrapolation, IDIIS=  1040.
 Integral symmetry usage will be decided dynamically.
 IVT=      412102 IEndB=      412102 NGot=    33554432 MDV=    33288931
 LenX=    33288931 LenY=    33158890
 Requested convergence on RMS density matrix=1.00D-08 within 128 cycles.
 Requested convergence on MAX density matrix=1.00D-06.
 Requested convergence on             energy=1.00D-06.
 No special actions if energy rises.
 Fock matrices will be formed incrementally for  20 cycles.

 Cycle   1  Pass 1  IDiag  1:
 FoFJK:  IHMeth= 1 ICntrl=     500 DoSepK=F KAlg= 0 I1Cent=   0 FoldK=F
 IRaf= 980000000 NMat=   1 IRICut=       1 DoRegI=T DoRafI=F ISym2E= 0.
 FoFCou: FMM=F IPFlag=           0 FMFlag=      100000 FMFlg1=           0
         NFxFlg=           0 DoJE=T BraDBF=F KetDBF=F FulRan=T
         wScrn=  0.000000 ICntrl=     500 IOpCl=  0 I1Cent=           0 NGrid=           0
         NMat0=    1 NMatS0=      1 NMatT0=    0 NMatD0=    1 NMtDS0=    0 NMtDT0=    0
 Symmetry not used in FoFCou.
 E= -230.172461079480    
 DIIS: error= 1.39D-04 at cycle   1 NSaved=   1.
 NSaved= 1 IEnMin= 1 EnMin= -230.172461079480     IErMin= 1 ErrMin= 1.39D-04
 ErrMax= 1.39D-04  0.00D+00 EMaxC= 1.00D-01 BMatC= 2.46D-06 BMatP= 2.46D-06
 IDIUse=3 WtCom= 9.99D-01 WtEn= 1.39D-03
 Coeff-Com:  0.100D+01
 Coeff-En:   0.100D+01
 Coeff:      0.100D+01
 Gap=     0.459 Goal=   None    Shift=    0.000
 RMSDP=2.38D-05 MaxDP=8.57D-04              OVMax= 3.05D-04

 Cycle   2  Pass 1  IDiag  1:
 RMSU=  2.29D-05    CP:  9.99D-01
 E= -230.172461673479     Delta-E=       -0.000000593999 Rises=F Damp=F
 DIIS: error= 6.82D-05 at cycle   2 NSaved=   2.
 NSaved= 2 IEnMin= 2 EnMin= -230.172461673479     IErMin= 2 ErrMin= 6.82D-05
 ErrMax= 6.82D-05  0.00D+00 EMaxC= 1.00D-01 BMatC= 3.01D-07 BMatP= 2.46D-06
 IDIUse=1 WtCom= 1.00D+00 WtEn= 0.00D+00
 Coeff-Com:  0.167D+00 0.833D+00
 Coeff:      0.167D+00 0.833D+00
 Gap=     0.191 Goal=   None    Shift=    0.000
 RMSDP=4.08D-06 MaxDP=1.04D-04 DE=-5.94D-07 OVMax= 2.46D-04

 Cycle   3  Pass 1  IDiag  1:
 RMSU=  3.95D-06    CP:  9.99D-01  9.69D-01
 E= -230.172461569771     Delta-E=        0.000000103708 Rises=F Damp=F
 DIIS: error= 7.19D-05 at cycle   3 NSaved=   3.
 NSaved= 3 IEnMin= 2 EnMin= -230.172461673479     IErMin= 2 ErrMin= 6.82D-05
 ErrMax= 7.19D-05  0.00D+00 EMaxC= 1.00D-01 BMatC= 3.84D-07 BMatP= 3.01D-07
 IDIUse=1 WtCom= 1.00D+00 WtEn= 0.00D+00
 Coeff-Com:  0.146D-01 0.528D+00 0.458D+00
[...]
 ! A11   A(3,4,10)             120.0117         -DE/DX =    0.0                 !
 ! A12   A(5,4,10)             120.0042         -DE/DX =    0.0                 !
 ! A13   A(4,5,6)              120.014          -DE/DX =    0.0                 !
 ! A14   A(4,5,11)             120.002          -DE/DX =    0.0                 !
 ! A15   A(6,5,11)             119.984          -DE/DX =    0.0                 !
 ! A16   A(1,6,5)              120.0021         -DE/DX =   -0.0001              !
 ! A17   A(1,6,12)             120.0002         -DE/DX =    0.0                 !
 ! A18   A(5,6,12)             119.9977         -DE/DX =    0.0                 !
 ! D1    D(6,1,2,3)             -0.0088         -DE/DX =    0.0                 !
 ! D2    D(6,1,2,8)            180.0121         -DE/DX =    0.0                 !
 ! D3    D(7,1,2,3)           -180.0093         -DE/DX =    0.0                 !
 ! D4    D(7,1,2,8)              0.0116         -DE/DX =    0.0                 !
 ! D5    D(2,1,6,5)             -0.005          -DE/DX =    0.0                 !
 ! D6    D(2,1,6,12)           180.0042         -DE/DX =    0.0                 !
 ! D7    D(7,1,6,5)           -180.0045         -DE/DX =    0.0                 !
 ! D8    D(7,1,6,12)             0.0047         -DE/DX =    0.0                 !
 ! D9    D(1,2,3,4)              0.0159         -DE/DX =    0.0                 !
 ! D10   D(1,2,3,9)            180.0116         -DE/DX =    0.0                 !
 ! D11   D(8,2,3,4)            179.995          -DE/DX =    0.0                 !
 ! D12   D(8,2,3,9)             -0.0093         -DE/DX =    0.0                 !
 ! D13   D(2,3,4,5)             -0.0093         -DE/DX =    0.0                 !
 ! D14   D(2,3,4,10)          -180.0023         -DE/DX =    0.0                 !
 ! D15   D(9,3,4,5)           -180.005          -DE/DX =    0.0                 !
 ! D16   D(9,3,4,10)             0.002          -DE/DX =    0.0                 !
 ! D17   D(3,4,5,6)             -0.0045         -DE/DX =    0.0                 !
 ! D18   D(3,4,5,11)           180.0018         -DE/DX =    0.0                 !
 ! D19   D(10,4,5,6)          -180.0115         -DE/DX =    0.0                 !
 ! D20   D(10,4,5,11)           -0.0052         -DE/DX =    0.0                 !
 ! D21   D(4,5,6,1)              0.0116         -DE/DX =    0.0                 !
 ! D22   D(4,5,6,12)           180.0024         -DE/DX =    0.0                 !
 ! D23   D(11,5,6,1)          -179.9946         -DE/DX =    0.0                 !
 ! D24   D(11,5,6,12)           -0.0039         -DE/DX =    0.0                 !
 --------------------------------------------------------------------------------
 Lowest energy point so far.  Saving SCF results.
 GradGradGradGradGradGradGradGradGradGradGradGradGradGradGradGradGradGrad

 Largest change from initial coordinates is atom   11       2.772 Angstoms.
 Leave Link  103 at Tue Jun 21 13:08:27 2016, MaxMem=    33554432 cpu:         0.0
 (Enter /share/sw/gaussian/D.01/g09/l202.exe)
                          Input orientation:                          
 ---------------------------------------------------------------------
 Center     Atomic      Atomic             Coordinates (Angstroms)
 Number     Number       Type             X           Y           Z
 ---------------------------------------------------------------------
      1          6           0       -0.041110    0.468727    0.000074
      2          6           0        1.343866    0.468859    0.000636
      3          6           0        2.036490    1.668102   -0.000067
      4          6           0        1.344272    2.867573   -0.000998
      5          6           0       -0.040619    2.867444   -0.001421
      6          6           0       -0.733286    1.668129   -0.001006
      7          1           0       -0.587617   -0.478213    0.000476
      8          1           0        1.890538   -0.478024    0.001289
      9          1           0        3.129835    1.668051    0.000185
     10          1           0        1.890917    3.814432   -0.001514
     11          1           0       -0.587421    3.814250   -0.002185
     12          1           0       -1.826633    1.668338   -0.001380
 ---------------------------------------------------------------------
                    Distance matrix (angstroms):
                    1          2          3          4          5
     1  C    0.000000
     2  C    1.384976   0.000000
     3  C    2.398942   1.384887   0.000000
     4  C    2.770153   2.398715   1.384882   0.000000
     5  C    2.398717   2.769479   2.398501   1.384891   0.000000
     6  C    1.384801   2.398502   2.769776   2.398940   1.384970
     7  H    1.093328   2.151179   3.390075   3.863481   3.390078
     8  H    2.151187   1.093362   2.151084   3.389902   3.862840
     9  H    3.390173   2.151220   1.093345   2.151067   3.389739
    10  H    3.863480   3.390004   2.151262   1.093327   2.151190
    11  H    3.389835   3.862838   3.389818   2.151194   1.093359
    12  H    2.151084   3.389811   3.863123   3.390103   2.151208
                    6          7          8          9         10
     6  C    0.000000
     7  H    2.151281   0.000000
     8  H    3.389754   2.478155   0.000000
     9  H    3.863121   4.292540   2.478204   0.000000
    10  H    3.390141   4.956808   4.292457   2.478280   0.000000
    11  H    2.151072   4.292464   4.956199   4.292339   2.478338
    12  H    1.093347   2.478477   4.292347   4.956468   4.292540
                   11         12
    11  H    0.000000
    12  H    2.478020   0.000000
 Stoichiometry    C6H6
 Framework group  C1[X(C6H6)]
 Deg. of freedom    30
 Full point group                 C1      NOp   1
 RotChk:  IX=2 Diff= 2.37D-12
 Largest Abelian subgroup         C1      NOp   1
 Largest concise Abelian subgroup C1      NOp   1
                         Standard orientation:                         
 ---------------------------------------------------------------------
 Center     Atomic      Atomic             Coordinates (Angstroms)
 Number     Number       Type             X           Y           Z
 ---------------------------------------------------------------------
      1          6           0       -1.338138   -0.357527    0.000001
      2          6           0       -0.359278   -1.337319    0.000102
      3          6           0        0.978679   -0.979849   -0.000056
      4          6           0        1.338124    0.357573    0.000019
      5          6           0        0.359325    1.337307    0.000057
      6          6           0       -0.978712    0.979816   -0.000074
      7          1           0       -2.394326   -0.640074   -0.000028
      8          1           0       -0.642873   -2.393261   -0.000039
      9          1           0        1.751313   -1.753437   -0.000168
     10          1           0        2.394352    0.639965   -0.000067
     11          1           0        0.642774    2.393286    0.000087
     12          1           0       -1.751235    1.753518   -0.000083
 ---------------------------------------------------------------------
 Rotational constants (GHZ):      5.7691698      5.7671168      2.8840716
 Leave Link  202 at Tue Jun 21 13:08:27 2016, MaxMem=    33554432 cpu:         0.0
 (Enter /share/sw/gaussian/D.01/g09/l601.exe)
 Copying SCF densities to generalized density rwf, IOpCl= 0 IROHF=0.

 **********************************************************************

            Population analysis using the SCF density.

 **********************************************************************

 Orbital symmetries:
       Occupied  (A) (A) (A) (A) (A) (A) (A) (A) (A) (A) (A) (A)
                 (A) (A) (A) (A) (A) (A) (A) (A) (A)
       Virtual   (A) (A) (A) (A) (A) (A) (A) (A) (A) (A) (A) (A)
                 (A) (A) (A) (A) (A) (A) (A) (A) (A) (A) (A) (A)
                 (A) (A) (A) (A) (A) (A) (A) (A) (A) (A) (A) (A)
                 (A) (A) (A) (A) (A) (A) (A) (A) (A) (A) (A) (A)
                 (A) (A) (A) (A) (A) (A) (A) (A) (A) (A) (A) (A)
                 (A) (A) (A) (A) (A) (A) (A) (A) (A) (A) (A) (A)
                 (A) (A) (A) (A) (A) (A) (A) (A) (A) (A) (A) (A)
                 (A) (A) (A) (A) (A) (A) (A) (A) (A) (A) (A) (A)
                 (A) (A) (A) (A) (A) (A) (A) (A) (A) (A) (A) (A)
                 (A) (A) (A) (A) (A) (A) (A) (A) (A) (A) (A) (A)
                 (A) (A) (A) (A) (A) (A) (A) (A) (A) (A) (A) (A)
                 (A) (A) (A) (A) (A) (A) (A) (A) (A) (A) (A) (A)
                 (A) (A) (A) (A) (A) (A) (A) (A) (A) (A) (A) (A)
                 (A) (A) (A) (A) (A) (A) (A) (A) (A) (A) (A) (A)
                 (A) (A) (A) (A) (A) (A) (A) (A) (A) (A) (A) (A)
                 (A) (A) (A) (A) (A) (A) (A) (A) (A) (A) (A) (A)
                 (A) (A) (A) (A) (A) (A) (A) (A) (A) (A) (A) (A)
                 (A) (A) (A) (A) (A) (A) (A) (A) (A) (A) (A) (A)
                 (A) (A) (A) (A) (A) (A) (A) (A) (A) (A) (A) (A)
                 (A) (A) (A) (A) (A) (A) (A) (A) (A) (A) (A) (A)
                 (A) (A) (A) (A) (A) (A) (A) (A) (A) (A) (A) (A)
                 (A) (A) (A) (A) (A) (A) (A) (A) (A) (A) (A) (A)
                 (A) (A) (A) (A) (A) (A) (A) (A) (A) (A) (A) (A)
                 (A) (A) (A) (A) (A) (A) (A) (A) (A) (A) (A) (A)
                 (A) (A) (A) (A) (A) (A) (A) (A) (A)
 The electronic state is 1-A.
 Alpha  occ. eigenvalues --   -9.78568  -9.78566  -9.78566  -9.78531  -9.78531
 Alpha  occ. eigenvalues --   -9.78513  -0.78369  -0.67739  -0.67734  -0.54522
 Alpha  occ. eigenvalues --   -0.54521  -0.47944  -0.40982  -0.40515  -0.37846
 Alpha  occ. eigenvalues --   -0.37838  -0.34454  -0.30362  -0.30356  -0.24167
 Alpha  occ. eigenvalues --   -0.24163
 Alpha virt. eigenvalues --   -0.05116  -0.05114  -0.00906   0.01366   0.01367
 Alpha virt. eigenvalues --    0.03681   0.03682   0.04931   0.04972   0.07292
 Alpha virt. eigenvalues --    0.08043   0.08046   0.08659   0.08895   0.12656
 Alpha virt. eigenvalues --    0.12674   0.13122   0.13123   0.13154   0.13160
 Alpha virt. eigenvalues --    0.14558   0.16977   0.16985   0.18433   0.18437
 Alpha virt. eigenvalues --    0.18443   0.19272   0.19273   0.20301   0.20769
 Alpha virt. eigenvalues --    0.20785   0.23731   0.26610   0.26615   0.27631
 Alpha virt. eigenvalues --    0.27635   0.28503   0.28506   0.30688   0.33383
 Alpha virt. eigenvalues --    0.36568   0.36570   0.38618   0.38624   0.38632
 Alpha virt. eigenvalues --    0.40010   0.42593   0.42597   0.45066   0.47498
 Alpha virt. eigenvalues --    0.47501   0.48221   0.49835   0.51689   0.51695
 Alpha virt. eigenvalues --    0.52374   0.53134   0.53398   0.53401   0.54304
 Alpha virt. eigenvalues --    0.54310   0.54797   0.54798   0.58063   0.58069
 Alpha virt. eigenvalues --    0.59688   0.62556   0.62561   0.69008   0.69244
 Alpha virt. eigenvalues --    0.69252   0.72274   0.74660   0.74665   0.76025
 Alpha virt. eigenvalues --    0.77170   0.77173   0.83043   0.90077   0.90084
 Alpha virt. eigenvalues --    0.92657   0.93561   0.93667   1.00959   1.00960
 Alpha virt. eigenvalues --    1.01579   1.03879   1.03884   1.07684   1.07687
 Alpha virt. eigenvalues --    1.08217   1.10420   1.10426   1.14262   1.14272
 Alpha virt. eigenvalues --    1.15294   1.15298   1.20888   1.22356   1.22725
 Alpha virt. eigenvalues --    1.22907   1.22913   1.23427   1.24439   1.25550
 Alpha virt. eigenvalues --    1.25558   1.28531   1.29347   1.29360   1.32372
 Alpha virt. eigenvalues --    1.32386   1.33913   1.33923   1.35846   1.40731
 Alpha virt. eigenvalues --    1.40736   1.40742   1.40749   1.42319   1.44086
 Alpha virt. eigenvalues --    1.47100   1.58929   1.58930   1.58938   1.73591
 Alpha virt. eigenvalues --    1.79465   1.79484   1.81546   1.83059   1.83070
 Alpha virt. eigenvalues --    1.92717   1.92724   1.93542   1.93551   2.04669
 Alpha virt. eigenvalues --    2.04686   2.10279   2.23886   2.23896   2.30075
 Alpha virt. eigenvalues --    2.33996   2.34010   2.36572   2.40188   2.40190
 Alpha virt. eigenvalues --    2.47843   2.49925   2.60807   2.62110   2.65471
 Alpha virt. eigenvalues --    2.65472   2.67097   2.67116   2.72845   2.72856
 Alpha virt. eigenvalues --    2.73669   2.73676   2.75073   2.75111   2.75118
 Alpha virt. eigenvalues --    2.78162   2.78173   2.81523   2.90372   2.90373
 Alpha virt. eigenvalues --    2.93383   2.93384   2.95506   2.95507   2.97117
 Alpha virt. eigenvalues --    3.00526   3.01496   3.03321   3.07255   3.07256
 Alpha virt. eigenvalues --    3.09451   3.09459   3.13237   3.13243   3.14717
 Alpha virt. eigenvalues --    3.14720   3.16506   3.30443   3.30446   3.32217
 Alpha virt. eigenvalues --    3.33561   3.33574   3.34005   3.40731   3.48070
 Alpha virt. eigenvalues --    3.55702   3.55703   3.60014   3.62277   3.63249
 Alpha virt. eigenvalues --    3.63292   3.63655   3.63680   3.65754   3.72004
 Alpha virt. eigenvalues --    3.74156   3.74165   3.76697   3.77106   3.77135
 Alpha virt. eigenvalues --    3.81646   3.81649   3.84979   3.97789   3.97801
 Alpha virt. eigenvalues --    4.00310   4.00317   4.09511   4.09516   4.19681
 Alpha virt. eigenvalues --    4.21825   4.23035   4.23045   4.26526   4.27021
 Alpha virt. eigenvalues --    4.30668   4.30670   4.31460   4.31471   4.34060
 Alpha virt. eigenvalues --    4.34086   4.34426   4.36963   4.36980   4.45482
 Alpha virt. eigenvalues --    4.45486   4.48615   4.50596   4.62591   4.63490
 Alpha virt. eigenvalues --    4.63502   4.64034   4.64044   4.70282   4.83201
 Alpha virt. eigenvalues --    4.85438   4.85464   4.86219   4.90998   4.91013
 Alpha virt. eigenvalues --    4.93378   4.93389   5.24496   5.27548   5.27606
 Alpha virt. eigenvalues --    5.30804   5.32844   5.75105   5.75117   6.26372
 Alpha virt. eigenvalues --    6.26398   6.31149   6.31167   6.49264   6.61118
 Alpha virt. eigenvalues --    6.74383   6.98783   7.01115   7.03740   7.03743
 Alpha virt. eigenvalues --    7.07365   7.07372   7.21900   7.21909   7.28959
 Alpha virt. eigenvalues --    7.28972   7.35297   7.35313   7.40426   7.42732
 Alpha virt. eigenvalues --    7.47032   7.52319   7.52328   7.75309   7.82048
 Alpha virt. eigenvalues --    7.82199   7.82211   7.87616   7.92909   7.92938
 Alpha virt. eigenvalues --    8.24345   8.24378   8.41791   8.41807   8.51773
 Alpha virt. eigenvalues --    9.32089  24.33768  25.25684  25.25733  25.58033
 Alpha virt. eigenvalues --   25.58069  25.95262
          Condensed to atoms (all electrons):
               1          2          3          4          5          6
     1  C    5.992021  -0.026795  -0.088825  -0.006064  -0.089270  -0.026853
     2  C   -0.026795   5.992057  -0.026214  -0.089277  -0.004982  -0.089539
     3  C   -0.088825  -0.026214   5.990437  -0.026258  -0.089531  -0.004740
     4  C   -0.006064  -0.089277  -0.026258   5.992004  -0.027406  -0.088839
     5  C   -0.089270  -0.004982  -0.089531  -0.027406   5.992081  -0.025606
     6  C   -0.026853  -0.089539  -0.004740  -0.088839  -0.025606   5.990388
     7  H    0.454375  -0.085092   0.022236  -0.018463   0.022244  -0.085170
     8  H   -0.084894   0.454190  -0.085204   0.022245  -0.018488   0.022298
     9  H    0.022278  -0.084942   0.453784  -0.084910   0.022324  -0.018492
    10  H   -0.018464   0.022256  -0.085086   0.454373  -0.085175   0.022227
    11  H    0.022255  -0.018487   0.022286  -0.084981   0.454193  -0.085119
    12  H   -0.084994   0.022315  -0.018493   0.022290  -0.084859   0.453783
               7          8          9         10         11         12
     1  C    0.454375  -0.084894   0.022278  -0.018464   0.022255  -0.084994
     2  C   -0.085092   0.454190  -0.084942   0.022256  -0.018487   0.022315
     3  C    0.022236  -0.085204   0.453784  -0.085086   0.022286  -0.018493
     4  C   -0.018463   0.022245  -0.084910   0.454373  -0.084981   0.022290
     5  C    0.022244  -0.018488   0.022324  -0.085175   0.454193  -0.084859
     6  C   -0.085170   0.022298  -0.018492   0.022227  -0.085119   0.453783
     7  H    0.631610  -0.003079  -0.000309   0.000052  -0.000309  -0.003062
     8  H   -0.003079   0.631677  -0.003064  -0.000309   0.000052  -0.000310
     9  H   -0.000309  -0.003064   0.631886  -0.003061  -0.000310   0.000052
    10  H    0.000052  -0.000309  -0.003061   0.631611  -0.003080  -0.000309
    11  H   -0.000309   0.000052  -0.000310  -0.003080   0.631678  -0.003063
    12  H   -0.003062  -0.000310   0.000052  -0.000309  -0.003063   0.631885
 Mulliken charges:
               1
     1  C   -0.064770
     2  C   -0.065489
     3  C   -0.064393
     4  C   -0.064713
     5  C   -0.065525
     6  C   -0.064341
     7  H    0.064967
     8  H    0.064885
     9  H    0.064764
    10  H    0.064965
    11  H    0.064885
    12  H    0.064765
 Sum of Mulliken charges =   0.00000
 Mulliken charges with hydrogens summed into heavy atoms:
               1
     1  C    0.000196
     2  C   -0.000604
     3  C    0.000372
     4  C    0.000253
     5  C   -0.000640
     6  C    0.000423
 Electronic spatial extent (au):  <R**2>=            455.6555
 Charge=              0.0000 electrons
 Dipole moment (field-independent basis, Debye):
    X=              0.0000    Y=              0.0000    Z=             -0.0002  Tot=              0.0002
 Quadrupole moment (field-independent basis, Debye-Ang):
   XX=            -32.0376   YY=            -32.0417   ZZ=            -40.1505
   XY=              0.0004   XZ=             -0.0002   YZ=              0.0005
 Traceless Quadrupole moment (field-independent basis, Debye-Ang):
   XX=              2.7057   YY=              2.7016   ZZ=             -5.4072
   XY=              0.0004   XZ=             -0.0002   YZ=              0.0005
 Octapole moment (field-independent basis, Debye-Ang**2):
  XXX=              0.0013  YYY=              0.0013  ZZZ=             -0.0003  XYY=             -0.0013
  XXY=             -0.0013  XXZ=             -0.0013  XZZ=              0.0000  YZZ=              0.0000
  YYZ=             -0.0008  XYZ=              0.0004
 Hexadecapole moment (field-independent basis, Debye-Ang**3):
 XXXX=           -274.8659 YYYY=           -274.8249 ZZZZ=            -48.7589 XXXY=              0.0076
 XXXZ=             -0.0014 YYYX=             -0.0039 YYYZ=              0.0033 ZZZX=             -0.0002
 ZZZY=              0.0006 XXYY=            -91.6149 XXZZ=            -64.8079 YYZZ=            -64.7953
 XXYZ=              0.0007 YYXZ=             -0.0001 ZZXY=              0.0008
 N-N= 2.044670079477D+02 E-N=-9.447660442272D+02  KE= 2.285950322254D+02
 No NMR shielding tensors so no spin-rotation constants.
 Leave Link  601 at Tue Jun 21 13:08:27 2016, MaxMem=    33554432 cpu:         0.3
 (Enter /share/sw/gaussian/D.01/g09/l9999.exe)
 1\1\GINC-C13B-15\FOpt\RSVWN5\6-311+G(3df,2pd)\C6H6\EPLUHAR\21-Jun-2016
 \0\\#p opt 6-311+g(3df,2pd) svwn5\\Benzene\\0,1\C,-0.0411100396,0.4687
 27078,0.0000740578\C,1.3438657446,0.4688589568,0.0006360597\C,2.036490
 4995,1.6681017418,-0.0000665372\C,1.3442721072,2.8675729382,-0.0009978
 11\C,-0.0406192727,2.8674438555,-0.001420745\C,-0.7332857297,1.6681293
 448,-0.0010064959\H,-0.5876170501,-0.4782133097,0.0004756298\H,1.89053
 81481,-0.4780244716,0.0012892135\H,3.1298353575,1.668050656,0.00018538
 75\H,1.8909173616,3.814432053,-0.0015141611\H,-0.5874207009,3.81424999
 76,-0.0021853139\H,-1.8266326655,1.6683384396,-0.001380284\\Version=ES
 64L-G09RevD.01\State=1-A\HF=-230.172462\RMSD=4.893e-09\RMSF=5.651e-05\
 Dipole=-0.0000016,0.0000022,-0.0000871\Quadrupole=2.0097754,2.0103556,
 -4.020131,0.0015203,0.0016743,-0.003748\PG=C01 [X(C6H6)]\\@


 There was a great rattling of the words for the fewness of ideas.
                   -- Charles Baxter in Gryphon
 Job cpu time:       0 days  0 hours  9 minutes 53.5 seconds.
 File lengths (MBytes):  RWF=     61 Int=      0 D2E=      0 Chk=      8 Scr=      1
 Normal termination of Gaussian 09 at Tue Jun 21 13:08:27 2016.
