 Entering Gaussian System, Link 0=g09
 Initial command:
 /share/sw/gaussian/D.01/g09/l1.exe "/local/scratch/epluhar/Gau-11979.inp" -scrdir="/local/scratch/epluhar/"
 Entering Link 1 = /share/sw/gaussian/D.01/g09/l1.exe PID=     11980.
  
 Copyright (c) 1988,1990,1992,1993,1995,1998,2003,2009,2013,
            Gaussian, Inc.  All Rights Reserved.
  
 This is part of the Gaussian(R) 09 program.  It is based on
 the Gaussian(R) 03 system (copyright 2003, Gaussian, Inc.),
 the Gaussian(R) 98 system (copyright 1998, Gaussian, Inc.),
 the Gaussian(R) 94 system (copyright 1995, Gaussian, Inc.),
 the Gaussian 92(TM) system (copyright 1992, Gaussian, Inc.),
 the Gaussian 90(TM) system (copyright 1990, Gaussian, Inc.),
 the Gaussian 88(TM) system (copyright 1988, Gaussian, Inc.),
 the Gaussian 86(TM) system (copyright 1986, Carnegie Mellon
 University), and the Gaussian 82(TM) system (copyright 1983,
 Carnegie Mellon University). Gaussian is a federally registered
 trademark of Gaussian, Inc.
  
 This software contains proprietary and confidential information,
 including trade secrets, belonging to Gaussian, Inc.
  
 This software is provided under written license and may be
 used, copied, transmitted, or stored only in accord with that
 written license.
  
 The following legend is applicable only to US Government
 contracts under FAR:
  
                    RESTRICTED RIGHTS LEGEND
  
 Use, reproduction and disclosure by the US Government is
 subject to restrictions as set forth in subparagraphs (a)
 and (c) of the Commercial Computer Software - Restricted
 Rights clause in FAR 52.227-19.
  
 Gaussian, Inc.
 340 Quinnipiac St., Bldg. 40, Wallingford CT 06492
  
  
 ---------------------------------------------------------------
 Warning -- This program may not be used in any manner that
 competes with the business of Gaussian, Inc. or will provide
 assistance to any competitor of Gaussian, Inc.  The licensee
 of this program is prohibited from giving any competitor of
 Gaussian, Inc. access to this program.  By using this program,
 the user acknowledges that Gaussian, Inc. is engaged in the
 business of creating and licensing software in the field of
 computational chemistry and represents and warrants to the
 licensee that it is not a competitor of Gaussian, Inc. and that
 it will not use this program in any manner prohibited above.
 ---------------------------------------------------------------
  

 Cite this work as:
 Gaussian 09, Revision D.01,
 M. J. Frisch, G. W. Trucks, H. B. Schlegel, G. E. Scuseria, 
 M. A. Robb, J. R. Cheeseman, G. Scalmani, V. Barone, B. Mennucci, 
 G. A. Petersson, H. Nakatsuji, M. Caricato, X. Li, H. P. Hratchian, 
 A. F. Izmaylov, J. Bloino, G. Zheng, J. L. Sonnenberg, M. Hada, 
 M. Ehara, K. Toyota, R. Fukuda, J. Hasegawa, M. Ishida, T. Nakajima, 
 Y. Honda, O. Kitao, H. Nakai, T. Vreven, J. A. Montgomery, Jr., 
 J. E. Peralta, F. Ogliaro, M. Bearpark, J. J. Heyd, E. Brothers, 
 K. N. Kudin, V. N. Staroverov, T. Keith, R. Kobayashi, J. Normand, 
 K. Raghavachari, A. Rendell, J. C. Burant, S. S. Iyengar, J. Tomasi, 
 M. Cossi, N. Rega, J. M. Millam, M. Klene, J. E. Knox, J. B. Cross, 
 V. Bakken, C. Adamo, J. Jaramillo, R. Gomperts, R. E. Stratmann, 
 O. Yazyev, A. J. Austin, R. Cammi, C. Pomelli, J. W. Ochterski, 
 R. L. Martin, K. Morokuma, V. G. Zakrzewski, G. A. Voth, 
 P. Salvador, J. J. Dannenberg, S. Dapprich, A. D. Daniels, 
 O. Farkas, J. B. Foresman, J. V. Ortiz, J. Cioslowski, 
 and D. J. Fox, Gaussian, Inc., Wallingford CT, 2013.
 
 ******************************************
 Gaussian 09:  ES64L-G09RevD.01 24-Apr-2013
                 9-Jul-2016 
 ******************************************
 %oldchk=b3lyp-Benzene.chk
 %chk=E-b3lyp
 Copying data from "b3lyp-Benzene.chk" to current chk file "E-b3lyp.chk".
 -----------------------------------------------------------------
 #p td=(50-50) b3lyp/6-311+g(3df,2pd) geom=allcheck pop=orbitals=6
 -----------------------------------------------------------------
 1/29=7,38=1/1;
 2/12=2,40=1/2;
 3/5=4,6=6,7=416,11=9,14=-4,16=1,25=1,30=1,74=-5/1,2,8,3;
 4//1;
 5/5=2,38=5/2;
 8/6=1,10=2/1;
 9/42=1,48=2,70=2/14;
 6/7=2,8=2,9=2,10=2,87=6/1;
 99/5=1,9=1/99;
 Leave Link    1 at Sat Jul  9 04:55:38 2016, MaxMem=    33554432 cpu:         0.1
 (Enter /share/sw/gaussian/D.01/g09/l101.exe)
 Structure from the checkpoint file:  "E-b3lyp.chk"
 -------
 Benzene
 -------
 Charge =  0 Multiplicity = 1
 Redundant internal coordinates found in file.
 C,0,-0.044042112,0.4634507862,0.0000596586
 C,0,1.3469384049,0.4635837352,0.0005114546
 C,0,2.0424731039,1.6681017833,-0.0000397582
 C,0,1.3471950889,2.87285688,-0.0010370419
 C,0,-0.0436818668,2.8727240972,-0.001487617
 C,0,-0.7392680182,1.6681164276,-0.0009386089
 H,0,-0.5848698622,-0.4734078141,0.0004795664
 H,0,1.8877837693,-0.4732925009,0.0012667126
 H,0,3.1242467354,1.6680051255,0.0002850159
 H,0,1.8881472247,3.8096434663,-0.001473051
 H,0,-0.5846467018,3.8095309182,-0.0022579328
 H,0,-1.8210420059,1.6683543755,-0.0012793983
 Recover connectivity data from disk.
 NAtoms=     12 NQM=       12 NQMF=       0 NMMI=      0 NMMIF=      0
                NMic=       0 NMicF=      0.
                    Isotopes and Nuclear Properties:
 (Nuclear quadrupole moments (NQMom) in fm**2, nuclear magnetic moments (NMagM)
  in nuclear magnetons)

  Atom         1           2           3           4           5           6           7           8           9          10
 IAtWgt=          12          12          12          12          12          12           1           1           1           1
 AtmWgt=  12.0000000  12.0000000  12.0000000  12.0000000  12.0000000  12.0000000   1.0078250   1.0078250   1.0078250   1.0078250
 NucSpn=           0           0           0           0           0           0           1           1           1           1
 AtZEff=  -3.6000000  -3.6000000  -3.6000000  -3.6000000  -3.6000000  -3.6000000  -1.0000000  -1.0000000  -1.0000000  -1.0000000
 NQMom=    0.0000000   0.0000000   0.0000000   0.0000000   0.0000000   0.0000000   0.0000000   0.0000000   0.0000000   0.0000000
 NMagM=    0.0000000   0.0000000   0.0000000   0.0000000   0.0000000   0.0000000   2.7928460   2.7928460   2.7928460   2.7928460
 AtZNuc=   6.0000000   6.0000000   6.0000000   6.0000000   6.0000000   6.0000000   1.0000000   1.0000000   1.0000000   1.0000000

  Atom        11          12
 IAtWgt=           1           1
 AtmWgt=   1.0078250   1.0078250
 NucSpn=           1           1
 AtZEff=  -1.0000000  -1.0000000
 NQMom=    0.0000000   0.0000000
 NMagM=    2.7928460   2.7928460
 AtZNuc=   1.0000000   1.0000000
 Leave Link  101 at Sat Jul  9 04:55:38 2016, MaxMem=    33554432 cpu:         0.1
 (Enter /share/sw/gaussian/D.01/g09/l202.exe)
                          Input orientation:                          
 ---------------------------------------------------------------------
 Center     Atomic      Atomic             Coordinates (Angstroms)
 Number     Number       Type             X           Y           Z
 ---------------------------------------------------------------------
      1          6           0       -0.044042    0.463451    0.000060
      2          6           0        1.346938    0.463584    0.000511
      3          6           0        2.042473    1.668102   -0.000040
      4          6           0        1.347195    2.872857   -0.001037
      5          6           0       -0.043682    2.872724   -0.001488
      6          6           0       -0.739268    1.668116   -0.000939
      7          1           0       -0.584870   -0.473408    0.000480
      8          1           0        1.887784   -0.473293    0.001267
      9          1           0        3.124247    1.668005    0.000285
     10          1           0        1.888147    3.809643   -0.001473
     11          1           0       -0.584647    3.809531   -0.002258
     12          1           0       -1.821042    1.668354   -0.001279
 ---------------------------------------------------------------------
                    Distance matrix (angstroms):
                    1          2          3          4          5
     1  C    0.000000
     2  C    1.390981   0.000000
     3  C    2.409301   1.390911   0.000000
     4  C    2.782226   2.409274   1.390988   0.000000
     5  C    2.409274   2.781688   2.408975   1.390877   0.000000
     6  C    1.390884   2.408975   2.781741   2.409300   1.391014
     7  H    1.081757   2.147053   3.389542   3.863983   3.389615
     8  H    2.146961   1.081782   2.146975   3.389536   3.863469
     9  H    3.389544   2.146964   1.081774   2.146994   3.389266
    10  H    3.863983   3.389547   2.147096   1.081757   2.147040
    11  H    3.389471   3.863469   3.389319   2.146945   1.081781
    12  H    2.146980   3.389333   3.863515   3.389477   2.146978
                    6          7          8          9         10
     6  C    0.000000
     7  H    2.147083   0.000000
     8  H    3.389253   2.472654   0.000000
     9  H    3.863515   4.282896   2.472650   0.000000
    10  H    3.389609   4.945740   4.282937   2.472764   0.000000
    11  H    2.146990   4.282940   4.945250   4.282760   2.472794
    12  H    1.081774   2.472907   4.282762   4.945289   4.282897
                   11         12
    11  H    0.000000
    12  H    2.472511   0.000000
 Stoichiometry    C6H6
 Framework group  C1[X(C6H6)]
 Deg. of freedom    30
 Full point group                 C1      NOp   1
 RotChk:  IX=1 Diff= 1.12D-12
 Largest Abelian subgroup         C1      NOp   1
 Largest concise Abelian subgroup C1      NOp   1
                         Standard orientation:                         
 ---------------------------------------------------------------------
 Center     Atomic      Atomic             Coordinates (Angstroms)
 Number     Number       Type             X           Y           Z
 ---------------------------------------------------------------------
      1          6           0       -1.390907   -0.023916    0.000000
      2          6           0       -0.674609   -1.216285    0.000005
      3          6           0        0.716096   -1.192362    0.000003
      4          6           0        1.390906    0.023976    0.000002
      5          6           0        0.674662    1.216256   -0.000002
      6          6           0       -0.716147    1.192332   -0.000002
      7          1           0       -2.472502   -0.042651   -0.000007
      8          1           0       -1.199291   -2.162308   -0.000014
      9          1           0        1.272993   -2.119778   -0.000020
     10          1           0        2.472503    0.042567   -0.000007
     11          1           0        1.199222    2.162346    0.000003
     12          1           0       -1.272923    2.119820    0.000005
 ---------------------------------------------------------------------
 Rotational constants (GHZ):      5.7348978      5.7332111      2.8670271
 Leave Link  202 at Sat Jul  9 04:55:38 2016, MaxMem=    33554432 cpu:         0.0
 (Enter /share/sw/gaussian/D.01/g09/l301.exe)
 Standard basis: 6-311+G(3df,2pd) (5D, 7F)
 Ernie: Thresh=  0.10000D-02 Tol=  0.10000D-05 Strict=F.
 There are   360 symmetry adapted cartesian basis functions of A   symmetry.
 There are   318 symmetry adapted basis functions of A   symmetry.
   318 basis functions,   450 primitive gaussians,   360 cartesian basis functions
    21 alpha electrons       21 beta electrons
       nuclear repulsion energy       204.0389661516 Hartrees.
 IExCor=  402 DFT=T Ex+Corr=B3LYP ExCW=0 ScaHFX=  0.200000
 ScaDFX=  0.800000  0.720000  1.000000  0.810000 ScalE2=  1.000000  1.000000
 IRadAn=      0 IRanWt=     -1 IRanGd=            0 ICorTp=0 IEmpDi=  4
 NAtoms=   12 NActive=   12 NUniq=   12 SFac= 1.00D+00 NAtFMM=   60 NAOKFM=F Big=F
 Integral buffers will be    131072 words long.
 Regular integral format.
 Two-electron integral symmetry is turned on.
 Leave Link  301 at Sat Jul  9 04:55:39 2016, MaxMem=    33554432 cpu:         0.0
 (Enter /share/sw/gaussian/D.01/g09/l302.exe)
 NPDir=0 NMtPBC=     1 NCelOv=     1 NCel=       1 NClECP=     1 NCelD=      1
         NCelK=      1 NCelE2=     1 NClLst=     1 CellRange=     0.0.
 One-electron integrals computed using PRISM.
 NBasis=   318 RedAO= T EigKep=  1.85D-06  NBF=   318
 NBsUse=   318 1.00D-06 EigRej= -1.00D+00 NBFU=   318
 Precomputing XC quadrature grid using
 IXCGrd= 4 IRadAn=           0 IRanWt=          -1 IRanGd=           0 AccXCQ= 0.00D+00.
 Generated NRdTot=       0 NPtTot=           0 NUsed=           0 NTot=          32
 NSgBfM=   360   360   360   360   360 MxSgAt=    12 MxSgA2=    12.
 Leave Link  302 at Sat Jul  9 04:55:39 2016, MaxMem=    33554432 cpu:         0.4
 (Enter /share/sw/gaussian/D.01/g09/l308.exe)
 Leave Link  308 at Sat Jul  9 04:55:40 2016, MaxMem=    33554432 cpu:         0.1
 (Enter /share/sw/gaussian/D.01/g09/l303.exe)
 DipDrv:  MaxL=1.
 Leave Link  303 at Sat Jul  9 04:55:40 2016, MaxMem=    33554432 cpu:         0.1
 (Enter /share/sw/gaussian/D.01/g09/l401.exe)
 ExpMin= 4.38D-02 ExpMax= 4.56D+03 ExpMxC= 6.82D+02 IAcc=2 IRadAn=         4 AccDes= 0.00D+00
 Harris functional with IExCor=  402 and IRadAn=       4 diagonalized for initial guess.
 HarFok:  IExCor=  402 AccDes= 0.00D+00 IRadAn=         4 IDoV= 1 UseB2=F ITyADJ=14
 ICtDFT=  3500011 ScaDFX=  1.000000  1.000000  1.000000  1.000000
 FoFCou: FMM=F IPFlag=           0 FMFlag=      100000 FMFlg1=           0
         NFxFlg=           0 DoJE=T BraDBF=F KetDBF=T FulRan=T
         wScrn=  0.000000 ICntrl=     500 IOpCl=  0 I1Cent=   200000004 NGrid=           0
         NMat0=    1 NMatS0=      1 NMatT0=    0 NMatD0=    1 NMtDS0=    0 NMtDT0=    0
 Petite list used in FoFCou.
 Harris En= -232.378192135457    
 JPrj=0 DoOrth=F DoCkMO=F.
 Leave Link  401 at Sat Jul  9 04:55:44 2016, MaxMem=    33554432 cpu:         3.9
 (Enter /share/sw/gaussian/D.01/g09/l502.exe)
 Closed shell SCF:
 Using DIIS extrapolation, IDIIS=  1040.
 Integral symmetry usage will be decided dynamically.
 IVT=      412102 IEndB=      412102 NGot=    33554432 MDV=    33288931
 LenX=    33288931 LenY=    33158890
 Requested convergence on RMS density matrix=1.00D-08 within 128 cycles.
 Requested convergence on MAX density matrix=1.00D-06.
 Requested convergence on             energy=1.00D-06.
 No special actions if energy rises.
 Fock matrices will be formed incrementally for  20 cycles.

 Cycle   1  Pass 1  IDiag  1:
 FoFJK:  IHMeth= 1 ICntrl=       0 DoSepK=F KAlg= 0 I1Cent=   0 FoldK=F
 IRaf= 980000000 NMat=   1 IRICut=       1 DoRegI=T DoRafI=F ISym2E= 0.
 FoFCou: FMM=F IPFlag=           0 FMFlag=      100000 FMFlg1=           0
         NFxFlg=           0 DoJE=F BraDBF=F KetDBF=F FulRan=T
         wScrn=  0.000000 ICntrl=       0 IOpCl=  0 I1Cent=           0 NGrid=           0
         NMat0=    1 NMatS0=      1 NMatT0=    0 NMatD0=    1 NMtDS0=    0 NMtDT0=    0
 Symmetry not used in FoFCou.
 E= -232.148067853757    
 DIIS: error= 3.24D-02 at cycle   1 NSaved=   1.
 NSaved= 1 IEnMin= 1 EnMin= -232.148067853757     IErMin= 1 ErrMin= 3.24D-02
 ErrMax= 3.24D-02  0.00D+00 EMaxC= 1.00D-01 BMatC= 1.80D-01 BMatP= 1.80D-01
 IDIUse=3 WtCom= 6.76D-01 WtEn= 3.24D-01
 Coeff-Com:  0.100D+01
 Coeff-En:   0.100D+01
 Coeff:      0.100D+01
 Gap=     0.244 Goal=   None    Shift=    0.000
 GapD=    0.244 DampG=1.000 DampE=0.500 DampFc=0.5000 IDamp=-1.
 Damping current iteration by 5.00D-01
 RMSDP=3.54D-03 MaxDP=9.73D-02              OVMax= 1.99D-01

 Cycle   2  Pass 1  IDiag  1:
 RMSU=  1.66D-03    CP:  9.22D-01
 E= -232.222240728414     Delta-E=       -0.074172874657 Rises=F Damp=T
 DIIS: error= 1.03D-02 at cycle   2 NSaved=   2.
 NSaved= 2 IEnMin= 2 EnMin= -232.222240728414     IErMin= 2 ErrMin= 1.03D-02
 ErrMax= 1.03D-02  0.00D+00 EMaxC= 1.00D-01 BMatC= 1.12D-02 BMatP= 1.80D-01
 IDIUse=3 WtCom= 8.97D-01 WtEn= 1.03D-01
 Coeff-Com:  0.534D-01 0.947D+00
 Coeff-En:   0.159D+00 0.841D+00
 Coeff:      0.642D-01 0.936D+00
 Gap=     0.271 Goal=   None    Shift=    0.000
 RMSDP=9.98D-04 MaxDP=3.35D-02 DE=-7.42D-02 OVMax= 1.21D-01

 Cycle   3  Pass 1  IDiag  1:
 RMSU=  8.13D-04    CP:  8.99D-01  6.68D-01
 E= -232.325351015425     Delta-E=       -0.103110287011 Rises=F Damp=F
 DIIS: error= 7.20D-03 at cycle   3 NSaved=   3.
 NSaved= 3 IEnMin= 3 EnMin= -232.325351015425     IErMin= 3 ErrMin= 7.20D-03
 ErrMax= 7.20D-03  0.00D+00 EMaxC= 1.00D-01 BMatC= 3.89D-03 BMatP= 1.12D-02
 IDIUse=3 WtCom= 9.28D-01 WtEn= 7.20D-02
 Coeff-Com: -0.485D-01 0.342D+00 0.706D+00
 Coeff-En:   0.000D+00 0.000D+00 0.100D+01
 Coeff:     -0.450D-01 0.318D+00 0.727D+00
 Gap=     0.243 Goal=   None    Shift=    0.000
 RMSDP=2.67D-04 MaxDP=6.95D-03 DE=-1.03D-01 OVMax= 1.37D-02

 Cycle   4  Pass 1  IDiag  1:
 RMSU=  2.19D-04    CP:  8.92D-01  7.03D-01  8.43D-01
 E= -232.329051851328     Delta-E=       -0.003700835903 Rises=F Damp=F
 DIIS: error= 8.41D-04 at cycle   4 NSaved=   4.
 NSaved= 4 IEnMin= 4 EnMin= -232.329051851328     IErMin= 4 ErrMin= 8.41D-04
 ErrMax= 8.41D-04  0.00D+00 EMaxC= 1.00D-01 BMatC= 8.02D-05 BMatP= 3.89D-03
 IDIUse=3 WtCom= 9.92D-01 WtEn= 8.41D-03
 Coeff-Com: -0.153D-01 0.327D-01 0.170D+00 0.812D+00
 Coeff-En:   0.000D+00 0.000D+00 0.000D+00 0.100D+01
 Coeff:     -0.151D-01 0.324D-01 0.169D+00 0.814D+00
 Gap=     0.243 Goal=   None    Shift=    0.000
 RMSDP=3.38D-05 MaxDP=1.31D-03 DE=-3.70D-03 OVMax= 1.58D-03

 Cycle   5  Pass 1  IDiag  1:
 RMSU=  2.05D-05    CP:  8.90D-01  7.13D-01  8.63D-01  9.71D-01
 E= -232.329121513566     Delta-E=       -0.000069662237 Rises=F Damp=F
 DIIS: error= 3.42D-05 at cycle   5 NSaved=   5.
 NSaved= 5 IEnMin= 5 EnMin= -232.329121513566     IErMin= 5 ErrMin= 3.42D-05
 ErrMax= 3.42D-05  0.00D+00 EMaxC= 1.00D-01 BMatC= 1.91D-07 BMatP= 8.02D-05
 IDIUse=1 WtCom= 1.00D+00 WtEn= 0.00D+00
 Coeff-Com: -0.490D-03-0.975D-03 0.674D-02 0.699D-01 0.925D+00
 Coeff:     -0.490D-03-0.975D-03 0.674D-02 0.699D-01 0.925D+00
 Gap=     0.243 Goal=   None    Shift=    0.000
 RMSDP=3.71D-06 MaxDP=1.17D-04 DE=-6.97D-05 OVMax= 9.71D-05

 Cycle   6  Pass 1  IDiag  1:
 RMSU=  2.20D-06    CP:  8.90D-01  7.12D-01  8.66D-01  9.70D-01  1.02D+00
 E= -232.329121682916     Delta-E=       -0.000000169351 Rises=F Damp=F
 DIIS: error= 4.29D-06 at cycle   6 NSaved=   6.
 NSaved= 6 IEnMin= 6 EnMin= -232.329121682916     IErMin= 6 ErrMin= 4.29D-06
 ErrMax= 4.29D-06  0.00D+00 EMaxC= 1.00D-01 BMatC= 2.81D-09 BMatP= 1.91D-07
 IDIUse=1 WtCom= 1.00D+00 WtEn= 0.00D+00
 Coeff-Com:  0.401D-04-0.185D-03-0.637D-03 0.171D-02 0.486D-01 0.950D+00
 Coeff:      0.401D-04-0.185D-03-0.637D-03 0.171D-02 0.486D-01 0.950D+00
 Gap=     0.243 Goal=   None    Shift=    0.000
 RMSDP=4.46D-07 MaxDP=2.69D-05 DE=-1.69D-07 OVMax= 3.04D-05

 Cycle   7  Pass 1  IDiag  1:
 RMSU=  3.08D-07    CP:  8.90D-01  7.12D-01  8.66D-01  9.71D-01  1.03D+00
                    CP:  1.03D+00
 E= -232.329121682964     Delta-E=       -0.000000000048 Rises=F Damp=F
 DIIS: error= 5.83D-06 at cycle   7 NSaved=   7.
 NSaved= 7 IEnMin= 7 EnMin= -232.329121682964     IErMin= 6 ErrMin= 4.29D-06
 ErrMax= 5.83D-06  0.00D+00 EMaxC= 1.00D-01 BMatC= 2.91D-09 BMatP= 2.81D-09
 IDIUse=1 WtCom= 1.00D+00 WtEn= 0.00D+00
 Coeff-Com:  0.326D-04-0.774D-04-0.548D-03-0.753D-03 0.328D-02 0.554D+00
 Coeff-Com:  0.444D+00
 Coeff:      0.326D-04-0.774D-04-0.548D-03-0.753D-03 0.328D-02 0.554D+00
 Coeff:      0.444D+00
 Gap=     0.243 Goal=   None    Shift=    0.000
 RMSDP=1.71D-07 MaxDP=6.53D-06 DE=-4.78D-11 OVMax= 1.81D-05

 Cycle   8  Pass 1  IDiag  1:
 RMSU=  6.75D-08    CP:  8.90D-01  7.12D-01  8.66D-01  9.71D-01  1.03D+00
                    CP:  1.04D+00  4.98D-01
 E= -232.329121685653     Delta-E=       -0.000000002688 Rises=F Damp=F
 DIIS: error= 3.27D-07 at cycle   8 NSaved=   8.
 NSaved= 8 IEnMin= 8 EnMin= -232.329121685653     IErMin= 8 ErrMin= 3.27D-07
 ErrMax= 3.27D-07  0.00D+00 EMaxC= 1.00D-01 BMatC= 1.30D-11 BMatP= 2.81D-09
 IDIUse=1 WtCom= 1.00D+00 WtEn= 0.00D+00
 Coeff-Com: -0.902D-06-0.992D-06-0.416D-04-0.128D-03-0.141D-02 0.150D-01
 Coeff-Com:  0.634D-01 0.923D+00
 Coeff:     -0.902D-06-0.992D-06-0.416D-04-0.128D-03-0.141D-02 0.150D-01
 Coeff:      0.634D-01 0.923D+00
 Gap=     0.243 Goal=   None    Shift=    0.000
 RMSDP=1.61D-08 MaxDP=6.27D-07 DE=-2.69D-09 OVMax= 9.95D-07

 Cycle   9  Pass 1  IDiag  1:
 RMSU=  7.42D-09    CP:  8.90D-01  7.12D-01  8.66D-01  9.71D-01  1.03D+00
                    CP:  1.04D+00  5.25D-01  9.36D-01
 E= -232.329121685675     Delta-E=       -0.000000000023 Rises=F Damp=F
 DIIS: error= 1.86D-08 at cycle   9 NSaved=   9.
 NSaved= 9 IEnMin= 9 EnMin= -232.329121685675     IErMin= 9 ErrMin= 1.86D-08
 ErrMax= 1.86D-08  0.00D+00 EMaxC= 1.00D-01 BMatC= 3.76D-14 BMatP= 1.30D-11
 IDIUse=1 WtCom= 1.00D+00 WtEn= 0.00D+00
 Coeff-Com: -0.736D-07 0.435D-06 0.385D-06-0.136D-04-0.205D-03-0.313D-02
 Coeff-Com:  0.109D-02 0.636D-01 0.939D+00
 Coeff:     -0.736D-07 0.435D-06 0.385D-06-0.136D-04-0.205D-03-0.313D-02
 Coeff:      0.109D-02 0.636D-01 0.939D+00
 Gap=     0.243 Goal=   None    Shift=    0.000
 RMSDP=1.73D-09 MaxDP=8.87D-08 DE=-2.27D-11 OVMax= 1.97D-07

 SCF Done:  E(RB3LYP) =  -232.329121686     A.U. after    9 cycles
            NFock=  9  Conv=0.17D-08     -V/T= 2.0049
 KE= 2.312007800697D+02 PE=-9.465813874067D+02 EE= 2.790125194997D+02
 Leave Link  502 at Sat Jul  9 05:00:54 2016, MaxMem=    33554432 cpu:       308.6
 (Enter /share/sw/gaussian/D.01/g09/l801.exe)
 DoSCS=F DFT=T ScalE2(SS,OS)=  1.000000  1.000000
 ExpMin= 4.38D-02 ExpMax= 4.56D+03 ExpMxC= 6.82D+02 IAcc=3 IRadAn=         5 AccDes= 0.00D+00
 HarFok:  IExCor=  205 AccDes= 0.00D+00 IRadAn=         5 IDoV=-2 UseB2=F ITyADJ=14
 ICtDFT= 12500011 ScaDFX=  1.000000  1.000000  1.000000  1.000000
 Largest valence mixing into a core orbital is  5.51D-05
 Largest core mixing into a valence orbital is  1.21D-05
 Range of M.O.s used for correlation:     7   318
 NBasis=   318 NAE=    21 NBE=    21 NFC=     6 NFV=     0
 NROrb=    312 NOA=    15 NOB=    15 NVA=   297 NVB=   297

 **** Warning!!: The largest alpha MO coefficient is  0.21889716D+03

 Leave Link  801 at Sat Jul  9 05:00:55 2016, MaxMem=    33554432 cpu:         0.6
 (Enter /share/sw/gaussian/D.01/g09/l914.exe)
 RHF ground state
 MDV=    33554432 DFT=T DoStab=F Mixed=T DoRPA=T DoScal=F NonHer=T
 Would need an additional          3851600000 words for in-memory AO integral storage.
 Making orbital integer symmetry assigments:
 Orbital symmetries:
       Occupied  (A) (A) (A) (A) (A) (A) (A) (A) (A) (A) (A) (A)
                 (A) (A) (A) (A) (A) (A) (A) (A) (A)
       Virtual   (A) (A) (A) (A) (A) (A) (A) (A) (A) (A) (A) (A)
                 (A) (A) (A) (A) (A) (A) (A) (A) (A) (A) (A) (A)
                 (A) (A) (A) (A) (A) (A) (A) (A) (A) (A) (A) (A)
                 (A) (A) (A) (A) (A) (A) (A) (A) (A) (A) (A) (A)
                 (A) (A) (A) (A) (A) (A) (A) (A) (A) (A) (A) (A)
                 (A) (A) (A) (A) (A) (A) (A) (A) (A) (A) (A) (A)
                 (A) (A) (A) (A) (A) (A) (A) (A) (A) (A) (A) (A)
                 (A) (A) (A) (A) (A) (A) (A) (A) (A) (A) (A) (A)
                 (A) (A) (A) (A) (A) (A) (A) (A) (A) (A) (A) (A)
                 (A) (A) (A) (A) (A) (A) (A) (A) (A) (A) (A) (A)
                 (A) (A) (A) (A) (A) (A) (A) (A) (A) (A) (A) (A)
                 (A) (A) (A) (A) (A) (A) (A) (A) (A) (A) (A) (A)
                 (A) (A) (A) (A) (A) (A) (A) (A) (A) (A) (A) (A)
                 (A) (A) (A) (A) (A) (A) (A) (A) (A) (A) (A) (A)
                 (A) (A) (A) (A) (A) (A) (A) (A) (A) (A) (A) (A)
                 (A) (A) (A) (A) (A) (A) (A) (A) (A) (A) (A) (A)
                 (A) (A) (A) (A) (A) (A) (A) (A) (A) (A) (A) (A)
                 (A) (A) (A) (A) (A) (A) (A) (A) (A) (A) (A) (A)
                 (A) (A) (A) (A) (A) (A) (A) (A) (A) (A) (A) (A)
                 (A) (A) (A) (A) (A) (A) (A) (A) (A) (A) (A) (A)
                 (A) (A) (A) (A) (A) (A) (A) (A) (A) (A) (A) (A)
                 (A) (A) (A) (A) (A) (A) (A) (A) (A) (A) (A) (A)
                 (A) (A) (A) (A) (A) (A) (A) (A) (A) (A) (A) (A)
                 (A) (A) (A) (A) (A) (A) (A) (A) (A) (A) (A) (A)
                 (A) (A) (A) (A) (A) (A) (A) (A) (A)
    24 initial guesses have been made.
 Convergence on wavefunction:    0.001000000000000
 Davidson Disk Diagonalization:  ConvIn= 1.00D-03 SkipCon=T Conv= 1.00D-03.
 Max sub-space:   200 roots to seek:    24 dimension of matrix:         8910
 Iteration     1 Dimension    24 NMult     0 NNew     24
 CISAX will form    24 AO SS matrices at one time.
 NMat=    24 NSing=    12 JSym2X= 0.
 FoFJK:  IHMeth= 1 ICntrl=       0 DoSepK=F KAlg= 0 I1Cent=   0 FoldK=F
 IRaf=         0 NMat=  48 IRICut=      60 DoRegI=T DoRafI=T ISym2E= 0.
 FoFCou: FMM=F IPFlag=           0 FMFlag=      100000 FMFlg1=           0
         NFxFlg=           0 DoJE=F BraDBF=F KetDBF=F FulRan=T
         wScrn=  0.000000 ICntrl=       0 IOpCl=  0 I1Cent=           0 NGrid=           0
         NMat0=   48 NMatS0=     12 NMatT0=   12 NMatD0=   48 NMtDS0=    0 NMtDT0=    0
 Symmetry not used in FoFCou.
 New state      1 was old state      4
 New state      2 was old state      6
 New state      3 was old state      2
 New state      4 was old state      8
 New state      5 was old state      1
 New state      6 was old state     10
 Excitation Energies [eV] at current iteration:
 Root      1 :     4.329986021493617
 Root      2 :     4.815867695399701
 Root      3 :     4.816009669023152
 Root      4 :     5.124430143818516
 Root      5 :     5.494052948433803
 Root      6 :     6.327088659648116
 Root      7 :     6.327786157108162
 Root      8 :     6.354951117137142
 Root      9 :     6.355765420620026
 Root     10 :     6.826518804350554
 Root     11 :     6.851639123663578
 Root     12 :     6.890348499168103
 Root     13 :     6.908794796013481
 Root     14 :     6.908822033030855
 Root     15 :     6.914279224912721
 Root     16 :     6.914293873584794
 Root     17 :     6.973714060942164
 Root     18 :     6.973897279750803
 Root     19 :     7.530636709459460
 Root     20 :     7.549478082241357
 Root     21 :     7.557295223587368
 Root     22 :     7.565296278550744
 Root     23 :     8.302023600783020
 Root     24 :     8.302721542954881
 Vector   4 SDiff=3.29D+00 TDiff=3.64D+00 assumed to be singlet.
 Vector   6 SDiff=8.46D-02 TDiff=1.03D+01 assumed to be singlet.
 Vector  10 SDiff=3.59D+00 TDiff=3.46D+00 assumed to be triplet.
 Vector  12 SDiff=8.49D-02 TDiff=1.02D+01 assumed to be singlet.
 Iteration     2 Dimension    36 NMult    24 NNew     12
 CISAX will form    12 AO SS matrices at one time.
 NMat=    12 NSing=     5 JSym2X= 0.
 Root      1 not converged, maximum delta is    0.122404758384656
 Root      2 not converged, maximum delta is    0.046251456324099
 Root      3 not converged, maximum delta is    0.046199179083424
 New state      4 was old state      5
 Root      4 not converged, maximum delta is    0.015426036645446
 New state      5 was old state      8
 Root      5 not converged, maximum delta is    0.032561638031701
 New state      6 was old state      9
 Root      6 not converged, maximum delta is    0.027544284448612
 Excitation Energies [eV] at current iteration:
 Root      1 :     3.851046124571877   Change is   -0.478939896921739
 Root      2 :     4.725003245429513   Change is   -0.090864449970188
 Root      3 :     4.725115323577912   Change is   -0.090894345445239
 Root      4 :     5.410731927794735   Change is   -0.083321020639069
 Root      5 :     6.335455397007454   Change is   -0.019495720129688
 Root      6 :     6.338819816706214   Change is   -0.016945603913812
 Iteration     3 Dimension    48 NMult    36 NNew     12
 CISAX will form    12 AO SS matrices at one time.
 NMat=    12 NSing=     6 JSym2X= 0.
 Root      1 not converged, maximum delta is    0.008317901373589
 Root      2 not converged, maximum delta is    0.003849705334007
 Root      3 not converged, maximum delta is    0.003870396120902
 Root      4 not converged, maximum delta is    0.001249510020158
 Root      5 not converged, maximum delta is    0.005460722309893
 Root      6 not converged, maximum delta is    0.004891388175624
 Excitation Energies [eV] at current iteration:
 Root      1 :     3.842051785406715   Change is   -0.008994339165162
 Root      2 :     4.720892925463764   Change is   -0.004110319965749
 Root      3 :     4.720992399261519   Change is   -0.004122924316393
 Root      4 :     5.409700521763687   Change is   -0.001031406031047
 Root      5 :     6.335167395420135   Change is   -0.000288001587319
 Root      6 :     6.336048402991223   Change is   -0.002771413714991
 Iteration     4 Dimension    60 NMult    48 NNew     12
 CISAX will form    12 AO SS matrices at one time.
 NMat=    12 NSing=     6 JSym2X= 0.
 Root      1 not converged, maximum delta is    0.001283629918173
 Root      2 not converged, maximum delta is    0.001839049412671
 Root      3 not converged, maximum delta is    0.001840384063282
 Root      4 has converged.
 Root      5 not converged, maximum delta is    0.002173078532184
 Root      6 not converged, maximum delta is    0.003221540287062
 Excitation Energies [eV] at current iteration:
 Root      1 :     3.841766905915483   Change is   -0.000284879491233
 Root      2 :     4.720614843675007   Change is   -0.000278081788758
 Root      3 :     4.720713302840417   Change is   -0.000279096421103
 Root      4 :     5.409632705653565   Change is   -0.000067816110122
 Root      5 :     6.335130419391273   Change is   -0.000036976028862
 Root      6 :     6.335946707221992   Change is   -0.000101695769231
 Iteration     5 Dimension    70 NMult    60 NNew     10
 CISAX will form    10 AO SS matrices at one time.
 NMat=    10 NSing=     4 JSym2X= 0.
 Root      1 has converged.
 Root      2 has converged.
 Root      3 has converged.
 Root      4 has converged.
 Root      5 has converged.
 Root      6 has converged.
 Excitation Energies [eV] at current iteration:
 Root      1 :     3.841763028376360   Change is   -0.000003877539123
 Root      2 :     4.720600218903835   Change is   -0.000014624771172
 Root      3 :     4.720698622341846   Change is   -0.000014680498570
 Root      4 :     5.409632705653307   Change is   -0.000000000000258
 Root      5 :     6.335127488543582   Change is   -0.000002930847692
 Root      6 :     6.335936712033144   Change is   -0.000009995188848
 Convergence achieved on expansion vectors.
 ***********************************************************************
 Excited states from <AA,BB:AA,BB> singles matrix:
 ***********************************************************************
 
 1PDM for each excited state written to RWF  633
 Ground to excited state transition densities written to RWF  633
 Ground to excited state transition electric dipole moments (Au):
       state          X           Y           Z        Dip. S.      Osc.
         1         0.0000      0.0000      0.0000      0.0000      0.0000
         2         0.0000      0.0000      0.0000      0.0000      0.0000
         3         0.0000      0.0000      0.0000      0.0000      0.0000
         4         0.0001     -0.0009      0.0000      0.0000      0.0000
         5         0.0000      0.0000      0.0000      0.0000      0.0000
         6         0.0000      0.0000      0.0000      0.0000      0.0000
 Ground to excited state transition velocity dipole moments (Au):
       state          X           Y           Z        Dip. S.      Osc.
         1         0.0000      0.0000      0.0000      0.0000      0.0000
         2         0.0000      0.0000      0.0000      0.0000      0.0000
         3         0.0000      0.0000      0.0000      0.0000      0.0000
         4         0.0000      0.0002      0.0000      0.0000      0.0000
         5         0.0000      0.0000      0.0000      0.0000      0.0000
         6         0.0000      0.0000      0.0000      0.0000      0.0000
 Ground to excited state transition magnetic dipole moments (Au):
       state          X           Y           Z
         1         0.0000      0.0000      0.0000
         2         0.0000      0.0000      0.0000
         3         0.0000      0.0000      0.0000
         4         0.0000      0.0000      0.0000
         5        -0.5829      0.0058      0.0000
         6         0.0058      0.5830      0.0000
 Ground to excited state transition velocity quadrupole moments (Au):
       state          XX          YY          ZZ          XY          XZ          YZ
         1         0.0000      0.0000      0.0000      0.0000      0.0000      0.0000
         2         0.0000      0.0000      0.0000      0.0000      0.0000      0.0000
         3         0.0000      0.0000      0.0000      0.0000      0.0000      0.0000
         4        -0.0001     -0.0001      0.0000      0.0000      0.0000      0.0000
         5         0.0000      0.0000      0.0000      0.0000     -0.0056     -0.5568
         6         0.0000      0.0000      0.0000      0.0000     -0.5567      0.0056
 <0|del|b> * <b|rxdel|0> + <0|del|b> * <b|delr+rdel|0>
 Rotatory Strengths (R) in cgs (10**-40 erg-esu-cm/Gauss)
       state          XX          YY          ZZ    R(velocity)    E-M Angle
         1         0.0000      0.0000      0.0000      0.0000       90.00
         2         0.0000      0.0000      0.0000      0.0000       90.00
         3         0.0000      0.0000      0.0000      0.0000       90.00
         4         0.0000      0.0000      0.0000      0.0000       90.00
         5         0.0000      0.0002      0.0000      0.0001       90.00
         6        -0.0002      0.0000      0.0000     -0.0001       90.00
 1/2[<0|r|b>*<b|rxdel|0> + (<0|rxdel|b>*<b|r|0>)*]
 Rotatory Strengths (R) in cgs (10**-40 erg-esu-cm/Gauss)
       state          XX          YY          ZZ     R(length)
         1         0.0000      0.0000      0.0000      0.0000
         2         0.0000      0.0000      0.0000      0.0000
         3         0.0000      0.0000      0.0000      0.0000
         4         0.0000      0.0000      0.0000      0.0000
         5         0.0002      0.0000      0.0000      0.0001
         6         0.0000     -0.0002      0.0000     -0.0001
  1/2[<0|del|b>*<b|r|0> + (<0|r|b>*<b|del|0>)*] (Au)
       state          X           Y           Z        Dip. S.   Osc.(frdel)
         1         0.0000      0.0000      0.0000      0.0000      0.0000
         2         0.0000      0.0000      0.0000      0.0000      0.0000
         3         0.0000      0.0000      0.0000      0.0000      0.0000
         4         0.0000      0.0000      0.0000      0.0000      0.0000
         5         0.0000      0.0000      0.0000      0.0000      0.0000
         6         0.0000      0.0000      0.0000      0.0000      0.0000

 Excitation energies and oscillator strengths:
 
 Excited State   1:      Triplet-A      3.8418 eV  322.73 nm  f=0.0000  <S**2>=2.000
      20 -> 22        -0.49839
      21 -> 23         0.49863
 This state for optimization and/or second-order correction.
 Total Energy, E(TD-HF/TD-KS) =  -232.187939486    
 Copying the excited state density for this state as the 1-particle RhoCI density.
 
 Excited State   2:      Triplet-A      4.7206 eV  262.64 nm  f=0.0000  <S**2>=2.000
      20 -> 22         0.49480
      21 -> 23         0.49455
 
 Excited State   3:      Triplet-A      4.7207 eV  262.64 nm  f=0.0000  <S**2>=2.000
      20 -> 23        -0.49391
      21 -> 22         0.49544
 
 Excited State   4:      Singlet-A      5.4096 eV  229.19 nm  f=0.0000  <S**2>=0.000
      20 -> 23         0.49885
      21 -> 22         0.49929
 
 Excited State   5:      Singlet-A      6.3351 eV  195.71 nm  f=0.0000  <S**2>=0.000
      21 -> 24         0.70509
 
 Excited State   6:      Singlet-A      6.3359 eV  195.68 nm  f=0.0000  <S**2>=0.000
      20 -> 24         0.70509
 SavETr:  write IOETrn=   770 NScale= 10 NData=  16 NLR=1 NState=    6 LETran=     118.
 Leave Link  914 at Sat Jul  9 05:22:02 2016, MaxMem=    33554432 cpu:      1264.2
 (Enter /share/sw/gaussian/D.01/g09/l601.exe)
 Copying SCF densities to generalized density rwf, IOpCl= 0 IROHF=0.

 **********************************************************************

            Population analysis using the SCF density.

 **********************************************************************

 Orbital symmetries:
       Occupied  (A) (A) (A) (A) (A) (A) (A) (A) (A) (A) (A) (A)
                 (A) (A) (A) (A) (A) (A) (A) (A) (A)
       Virtual   (A) (A) (A) (A) (A) (A) (A) (A) (A) (A) (A) (A)
                 (A) (A) (A) (A) (A) (A) (A) (A) (A) (A) (A) (A)
                 (A) (A) (A) (A) (A) (A) (A) (A) (A) (A) (A) (A)
                 (A) (A) (A) (A) (A) (A) (A) (A) (A) (A) (A) (A)
                 (A) (A) (A) (A) (A) (A) (A) (A) (A) (A) (A) (A)
                 (A) (A) (A) (A) (A) (A) (A) (A) (A) (A) (A) (A)
                 (A) (A) (A) (A) (A) (A) (A) (A) (A) (A) (A) (A)
                 (A) (A) (A) (A) (A) (A) (A) (A) (A) (A) (A) (A)
                 (A) (A) (A) (A) (A) (A) (A) (A) (A) (A) (A) (A)
                 (A) (A) (A) (A) (A) (A) (A) (A) (A) (A) (A) (A)
                 (A) (A) (A) (A) (A) (A) (A) (A) (A) (A) (A) (A)
                 (A) (A) (A) (A) (A) (A) (A) (A) (A) (A) (A) (A)
                 (A) (A) (A) (A) (A) (A) (A) (A) (A) (A) (A) (A)
                 (A) (A) (A) (A) (A) (A) (A) (A) (A) (A) (A) (A)
                 (A) (A) (A) (A) (A) (A) (A) (A) (A) (A) (A) (A)
                 (A) (A) (A) (A) (A) (A) (A) (A) (A) (A) (A) (A)
                 (A) (A) (A) (A) (A) (A) (A) (A) (A) (A) (A) (A)
                 (A) (A) (A) (A) (A) (A) (A) (A) (A) (A) (A) (A)
                 (A) (A) (A) (A) (A) (A) (A) (A) (A) (A) (A) (A)
                 (A) (A) (A) (A) (A) (A) (A) (A) (A) (A) (A) (A)
                 (A) (A) (A) (A) (A) (A) (A) (A) (A) (A) (A) (A)
                 (A) (A) (A) (A) (A) (A) (A) (A) (A) (A) (A) (A)
                 (A) (A) (A) (A) (A) (A) (A) (A) (A) (A) (A) (A)
                 (A) (A) (A) (A) (A) (A) (A) (A) (A) (A) (A) (A)
                 (A) (A) (A) (A) (A) (A) (A) (A) (A)
 The electronic state is 1-A.
 Alpha  occ. eigenvalues --  -10.17695 -10.17674 -10.17674 -10.17619 -10.17618
 Alpha  occ. eigenvalues --  -10.17591  -0.86032  -0.75137  -0.75133  -0.60791
 Alpha  occ. eigenvalues --   -0.60790  -0.53002  -0.46555  -0.45294  -0.42747
 Alpha  occ. eigenvalues --   -0.42740  -0.37453  -0.34993  -0.34987  -0.26072
 Alpha  occ. eigenvalues --   -0.26069
 Alpha virt. eigenvalues --   -0.01758  -0.01756   0.00399   0.02193   0.02194
 Alpha virt. eigenvalues --    0.04405   0.04405   0.06040   0.07042   0.07694
 Alpha virt. eigenvalues --    0.08858   0.08882   0.09819   0.12495   0.13923
 Alpha virt. eigenvalues --    0.13926   0.13940   0.13967   0.13994   0.13995
 Alpha virt. eigenvalues --    0.16621   0.19098   0.19102   0.19511   0.19529
 Alpha virt. eigenvalues --    0.19890   0.19947   0.19948   0.21908   0.22302
 Alpha virt. eigenvalues --    0.22318   0.26505   0.27202   0.27850   0.30766
 Alpha virt. eigenvalues --    0.30768   0.31741   0.31742   0.32969   0.36770
 Alpha virt. eigenvalues --    0.39291   0.39303   0.42106   0.42117   0.42612
 Alpha virt. eigenvalues --    0.43342   0.45727   0.45730   0.47684   0.51368
 Alpha virt. eigenvalues --    0.51372   0.52849   0.54408   0.54688   0.54697
 Alpha virt. eigenvalues --    0.55941   0.56971   0.57426   0.57432   0.57750
 Alpha virt. eigenvalues --    0.57751   0.58312   0.58316   0.62573   0.62587
 Alpha virt. eigenvalues --    0.62754   0.66506   0.66512   0.73498   0.73500
 Alpha virt. eigenvalues --    0.73609   0.78415   0.78424   0.78638   0.80404
 Alpha virt. eigenvalues --    0.81297   0.81299   0.87727   0.93764   0.93766
 Alpha virt. eigenvalues --    0.96729   0.97608   0.97746   1.05627   1.05631
 Alpha virt. eigenvalues --    1.06094   1.08100   1.08102   1.11677   1.11932
 Alpha virt. eigenvalues --    1.11936   1.14841   1.14852   1.19015   1.19021
 Alpha virt. eigenvalues --    1.20024   1.20028   1.25155   1.26047   1.27382
 Alpha virt. eigenvalues --    1.27383   1.27979   1.28787   1.29199   1.30737
 Alpha virt. eigenvalues --    1.30740   1.32579   1.34173   1.34179   1.37873
 Alpha virt. eigenvalues --    1.37877   1.38781   1.38792   1.42503   1.46434
 Alpha virt. eigenvalues --    1.46761   1.46764   1.47339   1.47344   1.48182
 Alpha virt. eigenvalues --    1.53529   1.64493   1.64498   1.65690   1.78354
 Alpha virt. eigenvalues --    1.86341   1.86357   1.88391   1.90393   1.90401
 Alpha virt. eigenvalues --    1.99622   1.99630   2.00720   2.00732   2.11187
 Alpha virt. eigenvalues --    2.11199   2.17842   2.30835   2.30842   2.36819
 Alpha virt. eigenvalues --    2.40227   2.40238   2.42381   2.47692   2.47695
 Alpha virt. eigenvalues --    2.54914   2.58482   2.68022   2.71577   2.74918
 Alpha virt. eigenvalues --    2.74922   2.75341   2.75848   2.76995   2.77000
 Alpha virt. eigenvalues --    2.79542   2.79909   2.79914   2.83757   2.83762
 Alpha virt. eigenvalues --    2.86462   2.86471   2.89172   2.98219   2.98221
 Alpha virt. eigenvalues --    3.01414   3.01415   3.02701   3.02703   3.05768
 Alpha virt. eigenvalues --    3.07562   3.08400   3.11642   3.14885   3.14886
 Alpha virt. eigenvalues --    3.18251   3.18256   3.20105   3.20110   3.22750
 Alpha virt. eigenvalues --    3.22752   3.25407   3.38749   3.38752   3.40424
 Alpha virt. eigenvalues --    3.41466   3.41474   3.42299   3.48290   3.56002
 Alpha virt. eigenvalues --    3.63690   3.63691   3.67120   3.71308   3.71822
 Alpha virt. eigenvalues --    3.71858   3.72777   3.72800   3.73244   3.81599
 Alpha virt. eigenvalues --    3.82762   3.82768   3.85045   3.85762   3.85787
 Alpha virt. eigenvalues --    3.90559   3.90560   3.91324   4.06736   4.06737
 Alpha virt. eigenvalues --    4.06742   4.06743   4.16042   4.16046   4.25693
 Alpha virt. eigenvalues --    4.29465   4.29476   4.29837   4.31819   4.32547
 Alpha virt. eigenvalues --    4.38043   4.38049   4.40401   4.40406   4.41646
 Alpha virt. eigenvalues --    4.41673   4.45294   4.46629   4.46650   4.56722
 Alpha virt. eigenvalues --    4.56725   4.60108   4.60184   4.72499   4.72501
 Alpha virt. eigenvalues --    4.73635   4.74611   4.74622   4.81156   4.90703
 Alpha virt. eigenvalues --    4.94081   4.94102   4.94624   5.01975   5.01980
 Alpha virt. eigenvalues --    5.02431   5.02440   5.31797   5.38298   5.38347
 Alpha virt. eigenvalues --    5.41479   5.41579   5.85527   5.85535   6.35906
 Alpha virt. eigenvalues --    6.35934   6.39926   6.39934   6.57081   6.69267
 Alpha virt. eigenvalues --    6.84760   7.10200   7.12397   7.15065   7.15066
 Alpha virt. eigenvalues --    7.18732   7.18738   7.35404   7.35408   7.42209
 Alpha virt. eigenvalues --    7.42217   7.46869   7.46882   7.53589   7.53968
 Alpha virt. eigenvalues --    7.60301   7.64196   7.64203   7.86860   7.93183
 Alpha virt. eigenvalues --    7.94032   7.94043   7.98310   8.03905   8.03927
 Alpha virt. eigenvalues --    8.34836   8.34855   8.52771   8.52785   8.63365
 Alpha virt. eigenvalues --    9.42110  24.45873  25.33125  25.33149  25.65163
 Alpha virt. eigenvalues --   25.65170  26.01922
          Condensed to atoms (all electrons):
               1          2          3          4          5          6
     1  C    5.601883   0.180140  -0.113919  -0.008298  -0.113942   0.179748
     2  C    0.180140   5.599402   0.180935  -0.113941  -0.007774  -0.113235
     3  C   -0.113919   0.180935   5.598956   0.180203  -0.113231  -0.007577
     4  C   -0.008298  -0.113941   0.180203   5.601882   0.179685  -0.113923
     5  C   -0.113942  -0.007774  -0.113231   0.179685   5.599402   0.181390
     6  C    0.179748  -0.113235  -0.007577  -0.113923   0.181390   5.598946
     7  H    0.434107  -0.066338   0.019570  -0.015857   0.019550  -0.066458
     8  H   -0.066544   0.434091  -0.066290   0.019661  -0.015903   0.019604
     9  H    0.019655  -0.066288   0.433996  -0.066517   0.019617  -0.015913
    10  H   -0.015857   0.019557  -0.066395   0.434107  -0.066400   0.019564
    11  H    0.019668  -0.015903   0.019597  -0.066608   0.434092  -0.066227
    12  H   -0.066580   0.019611  -0.015913   0.019662  -0.066226   0.433997
               7          8          9         10         11         12
     1  C    0.434107  -0.066544   0.019655  -0.015857   0.019668  -0.066580
     2  C   -0.066338   0.434091  -0.066288   0.019557  -0.015903   0.019611
     3  C    0.019570  -0.066290   0.433996  -0.066395   0.019597  -0.015913
     4  C   -0.015857   0.019661  -0.066517   0.434107  -0.066608   0.019662
     5  C    0.019550  -0.015903   0.019617  -0.066400   0.434092  -0.066226
     6  C   -0.066458   0.019604  -0.015913   0.019564  -0.066227   0.433997
     7  H    0.631527  -0.002820  -0.000293   0.000043  -0.000293  -0.002812
     8  H   -0.002820   0.631474  -0.002811  -0.000293   0.000043  -0.000294
     9  H   -0.000293  -0.002811   0.631533  -0.002810  -0.000294   0.000043
    10  H    0.000043  -0.000293  -0.002810   0.631527  -0.002822  -0.000293
    11  H   -0.000293   0.000043  -0.000294  -0.002822   0.631474  -0.002809
    12  H   -0.002812  -0.000294   0.000043  -0.000293  -0.002809   0.631533
 Mulliken charges:
               1
     1  C   -0.050061
     2  C   -0.050255
     3  C   -0.049931
     4  C   -0.050056
     5  C   -0.050258
     6  C   -0.049916
     7  H    0.050075
     8  H    0.050082
     9  H    0.050082
    10  H    0.050075
    11  H    0.050082
    12  H    0.050082
 Sum of Mulliken charges =   0.00000
 Mulliken charges with hydrogens summed into heavy atoms:
               1
     1  C    0.000014
     2  C   -0.000173
     3  C    0.000151
     4  C    0.000019
     5  C   -0.000176
     6  C    0.000166
 Electronic spatial extent (au):  <R**2>=            457.5135
 Charge=              0.0000 electrons
 Dipole moment (field-independent basis, Debye):
    X=              0.0000    Y=              0.0000    Z=              0.0000  Tot=              0.0000
 Quadrupole moment (field-independent basis, Debye-Ang):
   XX=            -32.2855   YY=            -32.2894   ZZ=            -40.0437
   XY=              0.0001   XZ=              0.0000   YZ=              0.0001
 Traceless Quadrupole moment (field-independent basis, Debye-Ang):
   XX=              2.5873   YY=              2.5835   ZZ=             -5.1708
   XY=              0.0001   XZ=              0.0000   YZ=              0.0001
 Octapole moment (field-independent basis, Debye-Ang**2):
  XXX=              0.0001  YYY=              0.0016  ZZZ=             -0.0001  XYY=             -0.0001
  XXY=             -0.0016  XXZ=             -0.0001  XZZ=              0.0000  YZZ=              0.0000
  YYZ=             -0.0001  XYZ=              0.0000
 Hexadecapole moment (field-independent basis, Debye-Ang**3):
 XXXX=           -276.3335 YYYY=           -276.3074 ZZZZ=            -49.3858 XXXY=              0.0020
 XXXZ=              0.0000 YYYX=             -0.0014 YYYZ=              0.0006 ZZZX=              0.0000
 ZZZY=              0.0001 XXYY=            -92.1125 XXZZ=            -64.6222 YYZZ=            -64.6129
 XXYZ=              0.0002 YYXZ=             -0.0001 ZZXY=              0.0000
 N-N= 2.040389661516D+02 E-N=-9.465813890999D+02  KE= 2.312007800697D+02

 Atomic contributions to Alpha molecular orbitals:
 Alpha occ 16 OE=-0.427 is C2-p=0.15 C5-p=0.15 C3-p=0.14 C6-p=0.14
 Alpha occ 17 OE=-0.375 is C2-p=0.16 C5-p=0.16 C6-p=0.16 C3-p=0.16 C1-p=0.16 C4-p=0.16
 Alpha occ 18 OE=-0.350 is C5-p=0.11 C2-p=0.11 C6-p=0.11 C3-p=0.11 H7-s=0.11 H10-s=0.11
 Alpha occ 19 OE=-0.350 is C4-p=0.11 C1-p=0.11 C3-p=0.10 C6-p=0.10 C2-p=0.10 C5-p=0.10
 Alpha occ 20 OE=-0.261 is C1-p=0.31 C4-p=0.31
 Alpha occ 21 OE=-0.261 is C2-p=0.24 C5-p=0.24 C3-p=0.22 C6-p=0.22
 Alpha vir 22 OE=-0.018 is C1-p=0.28 C4-p=0.28
 Alpha vir 23 OE=-0.018 is C2-p=0.23 C5-p=0.23 C3-p=0.20 C6-p=0.20
 Alpha vir 24 OE=0.004 is C2-s=0.20 C5-s=0.20 C6-s=0.19 C3-s=0.19 C4-s=0.18 C1-s=0.18
 Alpha vir 25 OE=0.022 is C4-p=-0.96 C1-p=-0.96 C2-s=0.63 C5-s=0.63 C3-s=0.52 C6-s=0.52 C5-p=0.41 C2-p=0.41 C6-p=0.17 C3-p=0.17 H11-s=-0.17 H8-s=-0.17 H12-s=-0.14 H9-s=-0.14
 Alpha vir 26 OE=0.022 is C1-s=0.76 C4-s=0.76 C4-p=0.71 C1-p=0.71 C5-p=-0.67 C2-p=-0.66 C6-p=-0.43 C3-p=-0.43 C6-s=0.25 C3-s=0.25 H10-s=-0.20 H7-s=-0.20 C5-s=0.14 C2-s=0.14
 Alpha vir 27 OE=0.044 is C2-p=1.24 C5-p=1.24 C3-p=1.23 C6-p=1.23 C5-s=-1.12 C2-s=-1.12 C6-s=-1.11 C3-s=-1.11 C1-p=0.46 C4-p=0.46 H11-s=-0.11 H8-s=-0.11 H12-s=-0.10 H9-s=-0.10
 
 Leave Link  601 at Sat Jul  9 05:22:03 2016, MaxMem=    33554432 cpu:         0.1
 (Enter /share/sw/gaussian/D.01/g09/l9999.exe)
 1\1\GINC-C13A-16\SP\RB3LYP TD-FC\6-311+G(3df,2pd)\C6H6\EPLUHAR\09-Jul-
 2016\0\\#p td=(50-50) b3lyp/6-311+g(3df,2pd) geom=allcheck pop=orbital
 s=6\\Benzene\\0,1\C,0,-0.044042112,0.4634507862,0.0000596586\C,0,1.346
 9384049,0.4635837352,0.0005114546\C,0,2.0424731039,1.6681017833,-0.000
 0397582\C,0,1.3471950889,2.87285688,-0.0010370419\C,0,-0.0436818668,2.
 8727240972,-0.001487617\C,0,-0.7392680182,1.6681164276,-0.0009386089\H
 ,0,-0.5848698622,-0.4734078141,0.0004795664\H,0,1.8877837693,-0.473292
 5009,0.0012667126\H,0,3.1242467354,1.6680051255,0.0002850159\H,0,1.888
 1472247,3.8096434663,-0.001473051\H,0,-0.5846467018,3.8095309182,-0.00
 22579328\H,0,-1.8210420059,1.6683543755,-0.0012793983\\Version=ES64L-G
 09RevD.01\State=1-A\HF=-232.3291217\RMSD=1.727e-09\PG=C01 [X(C6H6)]\\@


 IF YOU WISH TO UNDERSTAND THE FRAGRANCE OF THE ROSE, 
 OR THE TENACITY OF THE OAK; 
 IF YOU ARE NOT SATISFIED UNTIL YOU KNOW THE SECRET PATHS 
 BY WHICH THE SUNSHINE AND THE AIR ACHIEVE THESE WONDERS; 
 IF YOU WISH TO SEE THE PATTERN WHICH UNDERLIES ONE LARGE FIELD OF 
 HUMAN EXPERIENCE AND HUMAN MEASUREMENT, THEN TAKE UP CHEMISTRY.

                                         -- C. A. COULSON, 1973.
 Job cpu time:       0 days  0 hours 26 minutes 18.7 seconds.
 File lengths (MBytes):  RWF=    128 Int=      0 D2E=      0 Chk=     34 Scr=      1
 Normal termination of Gaussian 09 at Sat Jul  9 05:22:03 2016.
