 Entering Gaussian System, Link 0=g09
 Initial command:
 /share/sw/gaussian/D.01/g09/l1.exe "/local/scratch/epluhar/Gau-10577.inp" -scrdir="/local/scratch/epluhar/"
 Entering Link 1 = /share/sw/gaussian/D.01/g09/l1.exe PID=     10578.
  
 Copyright (c) 1988,1990,1992,1993,1995,1998,2003,2009,2013,
            Gaussian, Inc.  All Rights Reserved.
  
 This is part of the Gaussian(R) 09 program.  It is based on
 the Gaussian(R) 03 system (copyright 2003, Gaussian, Inc.),
 the Gaussian(R) 98 system (copyright 1998, Gaussian, Inc.),
 the Gaussian(R) 94 system (copyright 1995, Gaussian, Inc.),
 the Gaussian 92(TM) system (copyright 1992, Gaussian, Inc.),
 the Gaussian 90(TM) system (copyright 1990, Gaussian, Inc.),
 the Gaussian 88(TM) system (copyright 1988, Gaussian, Inc.),
 the Gaussian 86(TM) system (copyright 1986, Carnegie Mellon
 University), and the Gaussian 82(TM) system (copyright 1983,
 Carnegie Mellon University). Gaussian is a federally registered
 trademark of Gaussian, Inc.
  
 This software contains proprietary and confidential information,
 including trade secrets, belonging to Gaussian, Inc.
  
 This software is provided under written license and may be
 used, copied, transmitted, or stored only in accord with that
 written license.
  
 The following legend is applicable only to US Government
 contracts under FAR:
  
                    RESTRICTED RIGHTS LEGEND
  
 Use, reproduction and disclosure by the US Government is
 subject to restrictions as set forth in subparagraphs (a)
 and (c) of the Commercial Computer Software - Restricted
 Rights clause in FAR 52.227-19.
  
 Gaussian, Inc.
 340 Quinnipiac St., Bldg. 40, Wallingford CT 06492
  
  
 ---------------------------------------------------------------
 Warning -- This program may not be used in any manner that
 competes with the business of Gaussian, Inc. or will provide
 assistance to any competitor of Gaussian, Inc.  The licensee
 of this program is prohibited from giving any competitor of
 Gaussian, Inc. access to this program.  By using this program,
 the user acknowledges that Gaussian, Inc. is engaged in the
 business of creating and licensing software in the field of
 computational chemistry and represents and warrants to the
 licensee that it is not a competitor of Gaussian, Inc. and that
 it will not use this program in any manner prohibited above.
 ---------------------------------------------------------------
  

 Cite this work as:
 Gaussian 09, Revision D.01,
 M. J. Frisch, G. W. Trucks, H. B. Schlegel, G. E. Scuseria, 
 M. A. Robb, J. R. Cheeseman, G. Scalmani, V. Barone, B. Mennucci, 
 G. A. Petersson, H. Nakatsuji, M. Caricato, X. Li, H. P. Hratchian, 
 A. F. Izmaylov, J. Bloino, G. Zheng, J. L. Sonnenberg, M. Hada, 
 M. Ehara, K. Toyota, R. Fukuda, J. Hasegawa, M. Ishida, T. Nakajima, 
 Y. Honda, O. Kitao, H. Nakai, T. Vreven, J. A. Montgomery, Jr., 
 J. E. Peralta, F. Ogliaro, M. Bearpark, J. J. Heyd, E. Brothers, 
 K. N. Kudin, V. N. Staroverov, T. Keith, R. Kobayashi, J. Normand, 
 K. Raghavachari, A. Rendell, J. C. Burant, S. S. Iyengar, J. Tomasi, 
 M. Cossi, N. Rega, J. M. Millam, M. Klene, J. E. Knox, J. B. Cross, 
 V. Bakken, C. Adamo, J. Jaramillo, R. Gomperts, R. E. Stratmann, 
 O. Yazyev, A. J. Austin, R. Cammi, C. Pomelli, J. W. Ochterski, 
 R. L. Martin, K. Morokuma, V. G. Zakrzewski, G. A. Voth, 
 P. Salvador, J. J. Dannenberg, S. Dapprich, A. D. Daniels, 
 O. Farkas, J. B. Foresman, J. V. Ortiz, J. Cioslowski, 
 and D. J. Fox, Gaussian, Inc., Wallingford CT, 2013.
 
 ******************************************
 Gaussian 09:  ES64L-G09RevD.01 24-Apr-2013
                14-Jul-2016 
 ******************************************
 %chk=Benzene.chk
 -------------------------------------------------------------------
 #opt 6-311+g(3df,2pd) svwn5 pop=orbitals=6 symmetry=(follow,pg=d6h)
 -------------------------------------------------------------------
 1/14=-1,18=20,19=15,26=3,38=1/1,3;
 2/9=110,12=2,17=6,18=5,19=2314885530821080644,40=1/2;
 3/5=4,6=6,7=416,11=2,16=1,25=1,30=1,71=1,74=201/1,2,3;
 4//1;
 5/5=2,38=5/2;
 6/7=2,8=2,9=2,10=2,28=1,87=6/1;
 7//1,2,3,16;
 1/14=-1,18=20,19=15,26=3/3(2);
 2/9=110,15=5,19=2314885530821080644/2;
 99//99;
 2/9=110,15=5,19=2314885530821080644/2;
 3/5=4,6=6,7=416,11=2,16=1,25=1,30=1,71=1,74=201/1,2,3;
 4/5=5,16=3,69=1/1;
 5/5=2,38=5/2;
 7//1,2,3,16;
 1/14=-1,18=20,19=15,26=3/3(-5);
 2/9=110,15=5,19=2314885530821080644/2;
 6/7=2,8=2,9=2,10=2,19=2,28=1,87=6/1;
 99/9=1/99;
 -------
 Benzene
 -------
 Symbolic Z-matrix:
 Charge =  0 Multiplicity = 1
 C                    -0.04601   0.46012   0. 
 C                     1.34915   0.46012   0. 
 C                     2.04669   1.66787   0. 
 C                     1.34903   2.87638  -0.0012 
 C                    -0.04579   2.8763   -0.00168 
 C                    -0.74339   1.6681   -0.00068 
 H                    -0.59577  -0.49219   0.00045 
 H                     1.89866  -0.49239   0.00132 
 H                     3.14637   1.66795   0.00063 
 H                     1.89923   3.82853  -0.00126 
 H                    -0.59592   3.82859  -0.00263 
 H                    -1.843     1.66828  -0.00086 
 

 GradGradGradGradGradGradGradGradGradGradGradGradGradGradGradGradGradGrad
 Berny optimization.
 Initialization pass.
                           ----------------------------
                           !    Initial Parameters    !
                           ! (Angstroms and Degrees)  !
 --------------------------                            --------------------------
 ! Name  Definition              Value          Derivative Info.                !
 --------------------------------------------------------------------------------
 ! R1    R(1,2)                  1.3952         estimate D2E/DX2                !
 ! R2    R(1,6)                  1.3948         estimate D2E/DX2                !
 ! R3    R(1,7)                  1.0996         estimate D2E/DX2                !
 ! R4    R(2,3)                  1.3947         estimate D2E/DX2                !
 ! R5    R(2,8)                  1.0997         estimate D2E/DX2                !
 ! R6    R(3,4)                  1.3954         estimate D2E/DX2                !
 ! R7    R(3,9)                  1.0997         estimate D2E/DX2                !
 ! R8    R(4,5)                  1.3948         estimate D2E/DX2                !
 ! R9    R(4,10)                 1.0997         estimate D2E/DX2                !
 ! R10   R(5,6)                  1.3951         estimate D2E/DX2                !
 ! R11   R(5,11)                 1.0998         estimate D2E/DX2                !
 ! R12   R(6,12)                 1.0996         estimate D2E/DX2                !
 ! A1    A(2,1,6)              119.9985         estimate D2E/DX2                !
 ! A2    A(2,1,7)              119.9972         estimate D2E/DX2                !
 ! A3    A(6,1,7)              120.0043         estimate D2E/DX2                !
 ! A4    A(1,2,3)              120.0086         estimate D2E/DX2                !
 ! A5    A(1,2,8)              119.9808         estimate D2E/DX2                !
 ! A6    A(3,2,8)              120.0106         estimate D2E/DX2                !
 ! A7    A(2,3,4)              119.9942         estimate D2E/DX2                !
 ! A8    A(2,3,9)              120.0128         estimate D2E/DX2                !
 ! A9    A(4,3,9)              119.993          estimate D2E/DX2                !
 ! A10   A(3,4,5)              119.994          estimate D2E/DX2                !
 ! A11   A(3,4,10)             119.9811         estimate D2E/DX2                !
 ! A12   A(5,4,10)             120.0249         estimate D2E/DX2                !
 ! A13   A(4,5,6)              120.0047         estimate D2E/DX2                !
 ! A14   A(4,5,11)             120.0113         estimate D2E/DX2                !
 ! A15   A(6,5,11)             119.984          estimate D2E/DX2                !
 ! A16   A(1,6,5)              120.0            estimate D2E/DX2                !
 ! A17   A(1,6,12)             120.008          estimate D2E/DX2                !
 ! A18   A(5,6,12)             119.992          estimate D2E/DX2                !
 ! D1    D(6,1,2,3)              0.0323         estimate D2E/DX2                !
 ! D2    D(6,1,2,8)            179.9532         estimate D2E/DX2                !
 ! D3    D(7,1,2,3)           -179.9729         estimate D2E/DX2                !
 ! D4    D(7,1,2,8)             -0.052          estimate D2E/DX2                !
 ! D5    D(2,1,6,5)              0.0149         estimate D2E/DX2                !
 ! D6    D(2,1,6,12)           179.9892         estimate D2E/DX2                !
 ! D7    D(7,1,6,5)           -179.9798         estimate D2E/DX2                !
 ! D8    D(7,1,6,12)            -0.0056         estimate D2E/DX2                !
 ! D9    D(1,2,3,4)             -0.0568         estimate D2E/DX2                !
 ! D10   D(1,2,3,9)            179.9619         estimate D2E/DX2                !
 ! D11   D(8,2,3,4)           -179.9777         estimate D2E/DX2                !
 ! D12   D(8,2,3,9)              0.041          estimate D2E/DX2                !
 ! D13   D(2,3,4,5)              0.0341         estimate D2E/DX2                !
 ! D14   D(2,3,4,10)          -179.9964         estimate D2E/DX2                !
 ! D15   D(9,3,4,5)           -179.9846         estimate D2E/DX2                !
 ! D16   D(9,3,4,10)            -0.0151         estimate D2E/DX2                !
 ! D17   D(3,4,5,6)              0.0131         estimate D2E/DX2                !
 ! D18   D(3,4,5,11)          -179.9995         estimate D2E/DX2                !
 ! D19   D(10,4,5,6)          -179.9563         estimate D2E/DX2                !
 ! D20   D(10,4,5,11)            0.0311         estimate D2E/DX2                !
 ! D21   D(4,5,6,1)             -0.0376         estimate D2E/DX2                !
 ! D22   D(4,5,6,12)           179.9881         estimate D2E/DX2                !
 ! D23   D(11,5,6,1)           179.975          estimate D2E/DX2                !
 ! D24   D(11,5,6,12)            0.0007         estimate D2E/DX2                !
 --------------------------------------------------------------------------------
 Trust Radius=3.00D-01 FncErr=1.00D-07 GrdErr=1.00D-06
 Number of steps in this run=     64 maximum allowed number of steps=    100.
 GradGradGradGradGradGradGradGradGradGradGradGradGradGradGradGradGradGrad

                          Input orientation:                          
 ---------------------------------------------------------------------
 Center     Atomic      Atomic             Coordinates (Angstroms)
 Number     Number       Type             X           Y           Z
 ---------------------------------------------------------------------
      1          6           0       -0.046012    0.460123    0.000000
      2          6           0        1.349148    0.460123    0.000000
      3          6           0        2.046686    1.667874    0.000000
      4          6           0        1.349032    2.876383   -0.001199
      5          6           0       -0.045793    2.876305   -0.001678
      6          6           0       -0.743394    1.668099   -0.000682
      7          1           0       -0.595771   -0.492194    0.000450
      8          1           0        1.898656   -0.492390    0.001315
      9          1           0        3.146366    1.667954    0.000634
     10          1           0        1.899232    3.828526   -0.001258
     11          1           0       -0.595915    3.828586   -0.002631
     12          1           0       -1.842998    1.668282   -0.000862
 ---------------------------------------------------------------------
                    Distance matrix (angstroms):
                    1          2          3          4          5
     1  C    0.000000
     2  C    1.395160   0.000000
     3  C    2.416205   1.394712   0.000000
     4  C    2.790065   2.416260   1.395427   0.000000
     5  C    2.416183   2.789946   2.416356   1.394825   0.000000
     6  C    1.394829   2.416183   2.790080   2.416236   1.395138
     7  H    1.099610   2.165553   3.412986   3.889675   3.413102
     8  H    2.165414   1.099655   2.165330   3.413316   3.889601
     9  H    3.413229   2.165375   1.099680   2.165806   3.413209
    10  H    3.889745   3.413024   2.165678   1.099680   2.165606
    11  H    3.413055   3.889707   3.413506   2.165528   1.099761
    12  H    2.165365   3.413128   3.889684   3.412999   2.165471
                    6          7          8          9         10
     6  C    0.000000
     7  H    2.165331   0.000000
     8  H    3.412938   2.494427   0.000000
     9  H    3.889760   4.320860   2.494768   0.000000
    10  H    3.413344   4.989355   4.320917   2.494678   0.000000
    11  H    2.165516   4.320781   4.989362   4.321228   2.495147
    12  H    1.099604   2.494641   4.320704   4.989364   4.320988
                   11         12
    11  H    0.000000
    12  H    2.494420   0.000000
 Symm:  InNGrp=D6H  InAxis=0.
 Stoichiometry    C6H6
 Framework group  C1[X(C6H6)]
 Deg. of freedom    30
 Full point group                 C1      NOp   1
 Largest Abelian subgroup         C1      NOp   1
 Largest concise Abelian subgroup C1      NOp   1
                         Standard orientation:                         
 ---------------------------------------------------------------------
 Center     Atomic      Atomic             Coordinates (Angstroms)
 Number     Number       Type             X           Y           Z
 ---------------------------------------------------------------------
      1          6           0       -0.176717   -1.383752    0.000005
      2          6           0        1.110106   -0.844719   -0.000364
      3          6           0        1.286853    0.538749    0.000194
      4          6           0        0.176454    1.383870   -0.000075
      5          6           0       -1.110031    0.844894   -0.000185
      6          6           0       -1.286660   -0.539018    0.000252
      7          1           0       -0.315850   -2.474525    0.000015
      8          1           0        1.984957   -1.510960    0.000218
      9          1           0        2.301110    0.963694    0.000537
     10          1           0        0.316060    2.474652    0.000306
     11          1           0       -1.985358    1.510684   -0.000405
     12          1           0       -2.300948   -0.963691    0.000364
 ---------------------------------------------------------------------
 Rotational constants (GHZ):      5.6865650      5.6862639      2.8432074
 Standard basis: 6-311+G(3df,2pd) (5D, 7F)
 There are   360 symmetry adapted cartesian basis functions of A   symmetry.
 There are   318 symmetry adapted basis functions of A   symmetry.
   318 basis functions,   450 primitive gaussians,   360 cartesian basis functions
    21 alpha electrons       21 beta electrons
       nuclear repulsion energy       203.0307482098 Hartrees.
 NAtoms=   12 NActive=   12 NUniq=   12 SFac= 1.00D+00 NAtFMM=   60 NAOKFM=F Big=F
 Integral buffers will be    131072 words long.
 Raffenetti 2 integral format.
 Two-electron integral symmetry is turned on.
 One-electron integrals computed using PRISM.
 NBasis=   318 RedAO= T EigKep=  1.87D-06  NBF=   318
 NBsUse=   318 1.00D-06 EigRej= -1.00D+00 NBFU=   318
 ExpMin= 4.38D-02 ExpMax= 4.56D+03 ExpMxC= 6.82D+02 IAcc=2 IRadAn=         4 AccDes= 0.00D+00
 Harris functional with IExCor=  201 and IRadAn=       4 diagonalized for initial guess.
 HarFok:  IExCor=  201 AccDes= 0.00D+00 IRadAn=         4 IDoV= 1 UseB2=F ITyADJ=14
 ICtDFT=  3500011 ScaDFX=  1.000000  1.000000  1.000000  1.000000
 FoFCou: FMM=F IPFlag=           0 FMFlag=      100000 FMFlg1=           0
         NFxFlg=           0 DoJE=T BraDBF=F KetDBF=T FulRan=T
         wScrn=  0.000000 ICntrl=     500 IOpCl=  0 I1Cent=   200000004 NGrid=           0
         NMat0=    1 NMatS0=      1 NMatT0=    0 NMatD0=    1 NMtDS0=    0 NMtDT0=    0
 Petite list used in FoFCou.
 Requested convergence on RMS density matrix=1.00D-08 within 128 cycles.
 Requested convergence on MAX density matrix=1.00D-06.
 Requested convergence on             energy=1.00D-06.
 No special actions if energy rises.
 SCF Done:  E(RS-VWN5) =  -230.171705203     A.U. after   10 cycles
            NFock= 10  Conv=0.29D-08     -V/T= 2.0078

 **********************************************************************

            Population analysis using the SCF density.

 **********************************************************************

 Orbital symmetries:
       Occupied  (A) (A) (A) (A) (A) (A) (A) (A) (A) (A) (A) (A)
                 (A) (A) (A) (A) (A) (A) (A) (A) (A)
       Virtual   (A) (A) (A) (A) (A) (A) (A) (A) (A) (A) (A) (A)
                 (A) (A) (A) (A) (A) (A) (A) (A) (A) (A) (A) (A)
                 (A) (A) (A) (A) (A) (A) (A) (A) (A) (A) (A) (A)
                 (A) (A) (A) (A) (A) (A) (A) (A) (A) (A) (A) (A)
                 (A) (A) (A) (A) (A) (A) (A) (A) (A) (A) (A) (A)
                 (A) (A) (A) (A) (A) (A) (A) (A) (A) (A) (A) (A)
                 (A) (A) (A) (A) (A) (A) (A) (A) (A) (A) (A) (A)
                 (A) (A) (A) (A) (A) (A) (A) (A) (A) (A) (A) (A)
                 (A) (A) (A) (A) (A) (A) (A) (A) (A) (A) (A) (A)
                 (A) (A) (A) (A) (A) (A) (A) (A) (A) (A) (A) (A)
                 (A) (A) (A) (A) (A) (A) (A) (A) (A) (A) (A) (A)
                 (A) (A) (A) (A) (A) (A) (A) (A) (A) (A) (A) (A)
                 (A) (A) (A) (A) (A) (A) (A) (A) (A) (A) (A) (A)
                 (A) (A) (A) (A) (A) (A) (A) (A) (A) (A) (A) (A)
                 (A) (A) (A) (A) (A) (A) (A) (A) (A) (A) (A) (A)
                 (A) (A) (A) (A) (A) (A) (A) (A) (A) (A) (A) (A)
                 (A) (A) (A) (A) (A) (A) (A) (A) (A) (A) (A) (A)
                 (A) (A) (A) (A) (A) (A) (A) (A) (A) (A) (A) (A)
                 (A) (A) (A) (A) (A) (A) (A) (A) (A) (A) (A) (A)
                 (A) (A) (A) (A) (A) (A) (A) (A) (A) (A) (A) (A)
                 (A) (A) (A) (A) (A) (A) (A) (A) (A) (A) (A) (A)
                 (A) (A) (A) (A) (A) (A) (A) (A) (A) (A) (A) (A)
                 (A) (A) (A) (A) (A) (A) (A) (A) (A) (A) (A) (A)
                 (A) (A) (A) (A) (A) (A) (A) (A) (A) (A) (A) (A)
                 (A) (A) (A) (A) (A) (A) (A) (A) (A)
 The electronic state is 1-A.
 Alpha  occ. eigenvalues --   -9.78926  -9.78923  -9.78923  -9.78893  -9.78892
 Alpha  occ. eigenvalues --   -9.78877  -0.77922  -0.67513  -0.67509  -0.54381
 Alpha  occ. eigenvalues --   -0.54377  -0.47635  -0.40768  -0.40600  -0.37740
 Alpha  occ. eigenvalues --   -0.37738  -0.34162  -0.30401  -0.30395  -0.24073
 Alpha  occ. eigenvalues --   -0.24070
 Alpha virt. eigenvalues --   -0.05334  -0.05329  -0.00940   0.01329   0.01330
 Alpha virt. eigenvalues --    0.03590   0.03590   0.04978   0.04989   0.07162
 Alpha virt. eigenvalues --    0.08037   0.08046   0.08452   0.08598   0.12574
 Alpha virt. eigenvalues --    0.12591   0.12998   0.12999   0.13098   0.13107
 Alpha virt. eigenvalues --    0.14458   0.16845   0.16853   0.18291   0.18293
 Alpha virt. eigenvalues --    0.18298   0.19133   0.19134   0.20032   0.20578
 Alpha virt. eigenvalues --    0.20599   0.23672   0.26480   0.26515   0.27255
 Alpha virt. eigenvalues --    0.27260   0.28071   0.28077   0.30747   0.33410
 Alpha virt. eigenvalues --    0.36536   0.36545   0.38435   0.38590   0.38598
 Alpha virt. eigenvalues --    0.39907   0.42290   0.42294   0.44309   0.47402
 Alpha virt. eigenvalues --    0.47406   0.48298   0.48902   0.51629   0.51633
 Alpha virt. eigenvalues --    0.52252   0.52947   0.53055   0.53060   0.53905
 Alpha virt. eigenvalues --    0.53910   0.54606   0.54607   0.57979   0.57989
 Alpha virt. eigenvalues --    0.59461   0.61995   0.62006   0.67871   0.68722
 Alpha virt. eigenvalues --    0.68726   0.71430   0.74295   0.74297   0.75053
 Alpha virt. eigenvalues --    0.77008   0.77014   0.83014   0.89676   0.89683
 Alpha virt. eigenvalues --    0.92175   0.93222   0.93396   1.00771   1.00775
 Alpha virt. eigenvalues --    1.01283   1.03517   1.03519   1.07797   1.08171
 Alpha virt. eigenvalues --    1.08172   1.10335   1.10340   1.13791   1.13794
 Alpha virt. eigenvalues --    1.15397   1.15404   1.21285   1.22201   1.22640
 Alpha virt. eigenvalues --    1.22645   1.23226   1.23399   1.24068   1.25621
 Alpha virt. eigenvalues --    1.25624   1.28669   1.28673   1.28712   1.31841
 Alpha virt. eigenvalues --    1.31858   1.33583   1.33588   1.36183   1.40419
 Alpha virt. eigenvalues --    1.40424   1.40764   1.40766   1.42256   1.43411
 Alpha virt. eigenvalues --    1.46887   1.57520   1.57794   1.57801   1.73409
 Alpha virt. eigenvalues --    1.78676   1.78680   1.81803   1.82143   1.82150
 Alpha virt. eigenvalues --    1.91875   1.91886   1.92635   1.92639   2.03353
 Alpha virt. eigenvalues --    2.03355   2.08457   2.22925   2.22937   2.28761
 Alpha virt. eigenvalues --    2.32546   2.32557   2.37417   2.38468   2.38472
 Alpha virt. eigenvalues --    2.46791   2.49203   2.60090   2.61821   2.64807
 Alpha virt. eigenvalues --    2.64810   2.65253   2.67584   2.72538   2.72542
 Alpha virt. eigenvalues --    2.73362   2.73374   2.74168   2.74173   2.74692
 Alpha virt. eigenvalues --    2.77513   2.77518   2.80807   2.89668   2.89669
 Alpha virt. eigenvalues --    2.92544   2.92547   2.94638   2.94643   2.96648
 Alpha virt. eigenvalues --    2.99546   3.00495   3.01122   3.05899   3.05903
 Alpha virt. eigenvalues --    3.09933   3.09942   3.13359   3.13371   3.13607
 Alpha virt. eigenvalues --    3.13615   3.16620   3.28209   3.28216   3.28751
 Alpha virt. eigenvalues --    3.32424   3.32430   3.33056   3.39521   3.46330
 Alpha virt. eigenvalues --    3.53522   3.53528   3.58071   3.59370   3.61392
 Alpha virt. eigenvalues --    3.61396   3.61701   3.61709   3.63925   3.69505
 Alpha virt. eigenvalues --    3.72912   3.72920   3.74728   3.74734   3.75721
 Alpha virt. eigenvalues --    3.80186   3.80186   3.84968   3.97088   3.97116
 Alpha virt. eigenvalues --    4.00095   4.00098   4.09142   4.09149   4.18855
 Alpha virt. eigenvalues --    4.19858   4.22461   4.22470   4.27016   4.27192
 Alpha virt. eigenvalues --    4.29440   4.29450   4.29726   4.29760   4.31405
 Alpha virt. eigenvalues --    4.31440   4.33150   4.35028   4.35032   4.43384
 Alpha virt. eigenvalues --    4.43390   4.47090   4.49574   4.58299   4.60739
 Alpha virt. eigenvalues --    4.60745   4.64740   4.64764   4.67035   4.79492
 Alpha virt. eigenvalues --    4.82189   4.83135   4.83141   4.88125   4.88126
 Alpha virt. eigenvalues --    4.89812   4.89832   5.23553   5.23612   5.23616
 Alpha virt. eigenvalues --    5.26604   5.30476   5.71894   5.71920   6.21588
 Alpha virt. eigenvalues --    6.21621   6.28241   6.28259   6.42085   6.57781
 Alpha virt. eigenvalues --    6.67582   6.97392   7.00767   7.03507   7.03513
 Alpha virt. eigenvalues --    7.06460   7.06466   7.23212   7.23228   7.29394
 Alpha virt. eigenvalues --    7.29414   7.34898   7.34901   7.39413   7.41722
 Alpha virt. eigenvalues --    7.46682   7.51991   7.51994   7.74526   7.78532
 Alpha virt. eigenvalues --    7.82438   7.82477   7.84767   7.91489   7.91500
 Alpha virt. eigenvalues --    8.20781   8.20817   8.38230   8.38249   8.49562
 Alpha virt. eigenvalues --    9.28423  24.33302  25.18003  25.18076  25.49789
 Alpha virt. eigenvalues --   25.49871  25.85503
          Condensed to atoms (all electrons):
               1          2          3          4          5          6
     1  C    5.945651   0.003960  -0.096320   0.004762  -0.097167  -0.000647
     2  C    0.003960   5.942765   0.000850  -0.097186   0.005925  -0.096731
     3  C   -0.096320   0.000850   5.943992   0.002827  -0.096449   0.004786
     4  C    0.004762  -0.097186   0.002827   5.944455   0.001868  -0.096425
     5  C   -0.097167   0.005925  -0.096449   0.001868   5.942769   0.003363
     6  C   -0.000647  -0.096731   0.004786  -0.096425   0.003363   5.944285
     7  H    0.450539  -0.082721   0.020877  -0.017200   0.020851  -0.083296
     8  H   -0.082760   0.450208  -0.082947   0.020932  -0.017260   0.020972
     9  H    0.020968  -0.083060   0.450711  -0.083183   0.020890  -0.017245
    10  H   -0.017212   0.020893  -0.082994   0.450470  -0.082985   0.020870
    11  H    0.020935  -0.017247   0.020931  -0.082988   0.450280  -0.082779
    12  H   -0.083516   0.020883  -0.017259   0.021012  -0.082708   0.450688
               7          8          9         10         11         12
     1  C    0.450539  -0.082760   0.020968  -0.017212   0.020935  -0.083516
     2  C   -0.082721   0.450208  -0.083060   0.020893  -0.017247   0.020883
     3  C    0.020877  -0.082947   0.450711  -0.082994   0.020931  -0.017259
     4  C   -0.017200   0.020932  -0.083183   0.450470  -0.082988   0.021012
     5  C    0.020851  -0.017260   0.020890  -0.082985   0.450280  -0.082708
     6  C   -0.083296   0.020972  -0.017245   0.020870  -0.082779   0.450688
     7  H    0.628236  -0.002769  -0.000295   0.000048  -0.000295  -0.002779
     8  H   -0.002769   0.628068  -0.002783  -0.000295   0.000048  -0.000295
     9  H   -0.000295  -0.002783   0.628066  -0.002762  -0.000295   0.000048
    10  H    0.000048  -0.000295  -0.002762   0.628187  -0.002775  -0.000295
    11  H   -0.000295   0.000048  -0.000295  -0.002775   0.628042  -0.002773
    12  H   -0.002779  -0.000295   0.000048  -0.000295  -0.002773   0.628098
 Mulliken charges:
               1
     1  C   -0.069192
     2  C   -0.068537
     3  C   -0.069003
     4  C   -0.069343
     5  C   -0.069377
     6  C   -0.067840
     7  H    0.068804
     8  H    0.068881
     9  H    0.068941
    10  H    0.068852
    11  H    0.068918
    12  H    0.068898
 Sum of Mulliken charges =   0.00000
 Mulliken charges with hydrogens summed into heavy atoms:
               1
     1  C   -0.000388
     2  C    0.000343
     3  C   -0.000062
     4  C   -0.000491
     5  C   -0.000460
     6  C    0.001058
 Electronic spatial extent (au):  <R**2>=            461.1185
 Charge=              0.0000 electrons
 Dipole moment (field-independent basis, Debye):
    X=              0.0000    Y=             -0.0002    Z=              0.0008  Tot=              0.0008
 Quadrupole moment (field-independent basis, Debye-Ang):
   XX=            -32.0052   YY=            -32.0058   ZZ=            -40.3497
   XY=              0.0012   XZ=              0.0019   YZ=             -0.0001
 Traceless Quadrupole moment (field-independent basis, Debye-Ang):
   XX=              2.7817   YY=              2.7811   ZZ=             -5.5628
   XY=              0.0012   XZ=              0.0019   YZ=             -0.0001
 Octapole moment (field-independent basis, Debye-Ang**2):
  XXX=             -0.0043  YYY=             -0.0032  ZZZ=              0.0011  XYY=              0.0045
  XXY=              0.0020  XXZ=              0.0043  XZZ=             -0.0002  YZZ=             -0.0013
  YYZ=              0.0031  XYZ=              0.0019
 Hexadecapole moment (field-independent basis, Debye-Ang**3):
 XXXX=           -278.0867 YYYY=           -278.0744 ZZZZ=            -49.2481 XXXY=              0.0048
 XXXZ=              0.0109 YYYX=              0.0078 YYYZ=              0.0032 ZZZX=              0.0023
 ZZZY=             -0.0001 XXYY=            -92.6949 XXZZ=            -65.8418 YYZZ=            -65.8402
 XXYZ=             -0.0037 YYXZ=              0.0055 ZZXY=              0.0006
 N-N= 2.030307482098D+02 E-N=-9.417302393704D+02  KE= 2.283980909473D+02

 Atomic contributions to Alpha molecular orbitals:
 Alpha occ 16 OE=-0.377 is C4-p=0.19 C1-p=0.19 H10-s=0.12 H7-s=0.12
 Alpha occ 17 OE=-0.342 is C1-p=0.16 C6-p=0.16 C2-p=0.16 C5-p=0.16 C3-p=0.16 C4-p=0.16
 Alpha occ 18 OE=-0.304 is C5-p=0.11 C2-p=0.11 C6-p=0.10 C3-p=0.10 C1-p=0.10 C4-p=0.10
 Alpha occ 19 OE=-0.304 is H8-s=0.11 H11-s=0.11 C4-p=0.11 C1-p=0.11 C3-p=0.11 C6-p=0.11
 Alpha occ 20 OE=-0.241 is C2-p=0.29 C5-p=0.29 C3-p=0.13 C6-p=0.13
 Alpha occ 21 OE=-0.241 is C1-p=0.27 C4-p=0.27 C6-p=0.18 C3-p=0.18
 Alpha vir 22 OE=-0.053 is C1-p=0.25 C4-p=0.25 C6-p=0.17 C3-p=0.17
 Alpha vir 23 OE=-0.053 is C2-p=0.28 C5-p=0.28 C3-p=0.11 C6-p=0.11
 Alpha vir 24 OE=-0.009 is C6-s=0.16 C3-s=0.16 C4-s=0.16 C2-s=0.15 C5-s=0.15 C1-s=0.15
 Alpha vir 25 OE=0.013 is C1-p=-0.63 C4-p=-0.63 C3-p=0.55 C6-p=0.55 C3-s=0.52 C6-s=0.52 C2-s=0.27 C5-s=0.27 H12-s=-0.14 H9-s=-0.14
 Alpha vir 26 OE=0.013 is C6-p=-0.65 C3-p=-0.65 C1-p=0.54 C4-p=0.54 C4-s=0.51 C1-s=0.51 C5-s=0.28 C2-s=0.28 H7-s=-0.14 H10-s=-0.14
 Alpha vir 27 OE=0.036 is C2-s=-1.24 C5-s=-1.24 C5-p=1.22 C2-p=1.22 C4-p=0.92 C1-p=0.92 C1-s=-0.74 C4-s=-0.74 C3-p=0.52 C6-p=0.52
 
 Calling FoFJK, ICntrl=      2527 FMM=F ISym2X=0 I1Cent= 0 IOpClX= 0 NMat=1 NMatS=1 NMatT=0.
 ***** Axes restored to original set *****
 -------------------------------------------------------------------
 Center     Atomic                   Forces (Hartrees/Bohr)
 Number     Number              X              Y              Z
 -------------------------------------------------------------------
      1        6           0.002785238    0.004654953   -0.000020294
      2        6          -0.002786868    0.004623995    0.000107612
      3        6          -0.005451866    0.000374251   -0.000056687
      4        6          -0.002444304   -0.004916916    0.000035542
      5        6           0.002511134   -0.004762436    0.000026429
      6        6           0.005416345    0.000100897   -0.000054318
      7        1           0.002045081    0.003524506    0.000003103
      8        1          -0.002030608    0.003546140   -0.000038413
      9        1          -0.004124686   -0.000012816   -0.000003549
     10        1          -0.002091727   -0.003550479   -0.000015765
     11        1           0.002097941   -0.003585259    0.000010278
     12        1           0.004074319    0.000003164    0.000006062
 -------------------------------------------------------------------
 Cartesian Forces:  Max     0.005451866 RMS     0.002779369

 GradGradGradGradGradGradGradGradGradGradGradGradGradGradGradGradGradGrad
 Berny optimization.
 FormGI is forming the generalized inverse of G from B-inverse, IUseBI=4.
 Internal  Forces:  Max     0.009790961 RMS     0.003459557
 Search for a local minimum.
 Step number   1 out of a maximum of   64
 All quantities printed in internal units (Hartrees-Bohrs-Radians)
 Mixed Optimization -- RFO/linear search
 Second derivative matrix not updated -- first step.
 ITU=  0
     Eigenvalues ---    0.02152   0.02153   0.02154   0.02155   0.02155
     Eigenvalues ---    0.02155   0.02155   0.02156   0.02157   0.16000
     Eigenvalues ---    0.16000   0.16000   0.16000   0.16000   0.16000
     Eigenvalues ---    0.22000   0.22000   0.22000   0.33709   0.33718
     Eigenvalues ---    0.33718   0.33720   0.33725   0.33726   0.42106
     Eigenvalues ---    0.42123   0.46412   0.46453   0.46466   0.46497
 RFO step:  Lambda=-1.46865307D-03 EMin= 2.15189816D-02
 Linear search not attempted -- first point.
 Iteration  1 RMS(Cart)=  0.01282376 RMS(Int)=  0.00000265
 Iteration  2 RMS(Cart)=  0.00000192 RMS(Int)=  0.00000013
 Iteration  3 RMS(Cart)=  0.00000000 RMS(Int)=  0.00000013
 Variable       Old X    -DE/DX   Delta X   Delta X   Delta X     New X
                                 (Linear)    (Quad)   (Total)
    R1        2.63647  -0.00953   0.00000  -0.02045  -0.02045   2.61602
    R2        2.63584  -0.00946   0.00000  -0.02028  -0.02028   2.61556
    R3        2.07796  -0.00407   0.00000  -0.01203  -0.01203   2.06593
    R4        2.63562  -0.00940   0.00000  -0.02015  -0.02015   2.61547
    R5        2.07805  -0.00409   0.00000  -0.01207  -0.01207   2.06598
    R6        2.63697  -0.00979   0.00000  -0.02105  -0.02105   2.61592
    R7        2.07809  -0.00412   0.00000  -0.01218  -0.01218   2.06591
    R8        2.63584  -0.00940   0.00000  -0.02017  -0.02017   2.61567
    R9        2.07809  -0.00412   0.00000  -0.01217  -0.01217   2.06593
   R10        2.63643  -0.00960   0.00000  -0.02061  -0.02061   2.61582
   R11        2.07825  -0.00415   0.00000  -0.01227  -0.01227   2.06598
   R12        2.07795  -0.00407   0.00000  -0.01203  -0.01203   2.06592
    A1        2.09437  -0.00002   0.00000  -0.00003  -0.00003   2.09433
    A2        2.09435   0.00001   0.00000   0.00003   0.00003   2.09438
    A3        2.09447   0.00001   0.00000   0.00001   0.00001   2.09448
    A4        2.09455   0.00001   0.00000   0.00008   0.00008   2.09463
    A5        2.09406   0.00000   0.00000  -0.00003  -0.00003   2.09403
    A6        2.09458  -0.00001   0.00000  -0.00006  -0.00006   2.09452
    A7        2.09429  -0.00001   0.00000  -0.00007  -0.00007   2.09422
    A8        2.09462  -0.00002   0.00000  -0.00011  -0.00011   2.09451
    A9        2.09427   0.00003   0.00000   0.00019   0.00019   2.09446
   A10        2.09429   0.00002   0.00000   0.00005   0.00005   2.09434
   A11        2.09407   0.00001   0.00000   0.00013   0.00013   2.09420
   A12        2.09483  -0.00004   0.00000  -0.00018  -0.00018   2.09465
   A13        2.09448   0.00004   0.00000   0.00015   0.00015   2.09462
   A14        2.09459  -0.00005   0.00000  -0.00029  -0.00029   2.09430
   A15        2.09411   0.00002   0.00000   0.00015   0.00015   2.09426
   A16        2.09440  -0.00004   0.00000  -0.00017  -0.00017   2.09423
   A17        2.09453   0.00004   0.00000   0.00018   0.00018   2.09471
   A18        2.09426   0.00001   0.00000  -0.00001  -0.00001   2.09424
    D1        0.00056  -0.00001   0.00000  -0.00060  -0.00060  -0.00004
    D2        3.14078   0.00002   0.00000   0.00080   0.00080   3.14157
    D3       -3.14112  -0.00001   0.00000  -0.00058  -0.00058   3.14149
    D4       -0.00091   0.00002   0.00000   0.00082   0.00082  -0.00009
    D5        0.00026  -0.00001   0.00000  -0.00032  -0.00032  -0.00006
    D6        3.14140   0.00001   0.00000   0.00024   0.00024  -3.14154
    D7       -3.14124  -0.00001   0.00000  -0.00035  -0.00035  -3.14159
    D8       -0.00010   0.00000   0.00000   0.00022   0.00022   0.00012
    D9       -0.00099   0.00002   0.00000   0.00108   0.00108   0.00009
   D10        3.14093   0.00002   0.00000   0.00072   0.00072  -3.14154
   D11       -3.14120  -0.00001   0.00000  -0.00032  -0.00032  -3.14152
   D12        0.00072  -0.00002   0.00000  -0.00068  -0.00068   0.00003
   D13        0.00060  -0.00001   0.00000  -0.00063  -0.00063  -0.00004
   D14       -3.14153   0.00000   0.00000  -0.00015  -0.00015   3.14151
   D15       -3.14132  -0.00001   0.00000  -0.00027  -0.00027   3.14159
   D16       -0.00026   0.00000   0.00000   0.00022   0.00022  -0.00005
   D17        0.00023  -0.00001   0.00000  -0.00029  -0.00029  -0.00006
   D18       -3.14158   0.00000   0.00000   0.00009   0.00009  -3.14149
   D19       -3.14083  -0.00002   0.00000  -0.00078  -0.00078   3.14158
   D20        0.00054  -0.00001   0.00000  -0.00040  -0.00040   0.00014
   D21       -0.00066   0.00002   0.00000   0.00077   0.00077   0.00011
   D22        3.14138   0.00000   0.00000   0.00021   0.00021   3.14159
   D23        3.14116   0.00001   0.00000   0.00039   0.00039   3.14154
   D24        0.00001   0.00000   0.00000  -0.00017  -0.00017  -0.00016
         Item               Value     Threshold  Converged?
 Maximum Force            0.009791     0.000450     NO 
 RMS     Force            0.003460     0.000300     NO 
 Maximum Displacement     0.032536     0.001800     NO 
 RMS     Displacement     0.012824     0.001200     NO 
 Predicted change in Energy=-7.368226D-04
 GradGradGradGradGradGradGradGradGradGradGradGradGradGradGradGradGradGrad

                          Input orientation:                          
 ---------------------------------------------------------------------
 Center     Atomic      Atomic             Coordinates (Angstroms)
 Number     Number       Type             X           Y           Z
 ---------------------------------------------------------------------
      1          6           0       -0.040632    0.469448    0.000062
      2          6           0        1.343707    0.469561    0.000521
      3          6           0        2.035914    1.668076   -0.000082
      4          6           0        1.343741    2.866887   -0.001038
      5          6           0       -0.040411    2.866775   -0.001438
      6          6           0       -0.732705    1.668097   -0.000955
      7          1           0       -0.587159   -0.477385    0.000438
      8          1           0        1.890077   -0.477392    0.001341
      9          1           0        3.129148    1.668031    0.000231
     10          1           0        1.890528    3.813565   -0.001434
     11          1           0       -0.587032    3.813581   -0.002287
     12          1           0       -1.825944    1.668423   -0.001270
 ---------------------------------------------------------------------
                    Distance matrix (angstroms):
                    1          2          3          4          5
     1  C    0.000000
     2  C    1.384340   0.000000
     3  C    2.397656   1.384048   0.000000
     4  C    2.768430   2.397327   1.384287   0.000000
     5  C    2.397328   2.768108   2.397500   1.384152   0.000000
     6  C    1.384097   2.397494   2.768619   2.397650   1.384233
     7  H    1.093244   2.150570   3.388733   3.861675   3.388561
     8  H    2.150383   1.093270   2.150420   3.388612   3.861379
     9  H    3.388822   2.150379   1.093235   2.150566   3.388672
    10  H    3.861671   3.388419   2.150410   1.093241   2.150567
    11  H    3.388478   3.861377   3.388663   2.150376   1.093268
    12  H    2.150553   3.388799   3.861857   3.388690   2.150390
                    6          7          8          9         10
     6  C    0.000000
     7  H    2.150413   0.000000
     8  H    3.388526   2.477236   0.000000
     9  H    3.861853   4.291124   2.477527   0.000000
    10  H    3.388862   4.954916   4.290958   2.477398   0.000000
    11  H    2.150424   4.290966   4.954647   4.291082   2.477560
    12  H    1.093239   2.477717   4.291076   4.955092   4.291130
                   11         12
    11  H    0.000000
    12  H    2.477217   0.000000
 Stoichiometry    C6H6
 Framework group  C1[X(C6H6)]
 Deg. of freedom    30
 Prev. full point group           C1      NOp   1
 Prev. largest Abelian subgroup   C1      NOp   1
       concise Abelian subgroup   C1      NOp   1
                   Standard orientation:
 ---------------------------------------------------------------------
 Center     Atomic                     Coordinates (Angstroms)
 Number     Number                        X           Y           Z
 ---------------------------------------------------------------------
      1          6                   -0.392863   -1.327294    0.001276
      2          6                    0.953099   -1.003594    0.001953
      3          6                    1.345976    0.323521    0.000626
      4          6                    0.392757    1.327325   -0.001272
      5          6                   -0.953023    1.003670   -0.001891
      6          6                   -1.345947   -0.323625   -0.000684
      7          1                   -0.702927   -2.375647    0.002223
      8          1                    1.705682   -1.796598    0.003518
      9          1                    2.408935    0.579021    0.001112
     10          1                    0.703110    2.375588   -0.002241
     11          1                   -1.705817    1.796472   -0.003484
     12          1                   -2.408976   -0.578853   -0.001172
 ---------------------------------------------------------------------
 Rotational constants (GHZ):      5.7743588      5.7728215      2.8867950
 Standard basis: 6-311+G(3df,2pd) (5D, 7F)
 There are   360 symmetry adapted cartesian basis functions of A   symmetry.
 There are   318 symmetry adapted basis functions of A   symmetry.
   318 basis functions,   450 primitive gaussians,   360 cartesian basis functions
    21 alpha electrons       21 beta electrons
       nuclear repulsion energy       204.5586004162 Hartrees.
 NAtoms=   12 NActive=   12 NUniq=   12 SFac= 1.00D+00 NAtFMM=   60 NAOKFM=F Big=F
 Integral buffers will be    131072 words long.
 Raffenetti 2 integral format.
 Two-electron integral symmetry is turned on.
 One-electron integrals computed using PRISM.
 NBasis=   318 RedAO= T EigKep=  1.65D-06  NBF=   318
 NBsUse=   318 1.00D-06 EigRej= -1.00D+00 NBFU=   318
 Initial guess from the checkpoint file:  "Benzene.chk"
 B after Tr=     0.000000    0.000000    0.000000
         Rot=    0.996772    0.000560    0.000433    0.080283 Ang=   9.21 deg.
 ExpMin= 4.38D-02 ExpMax= 4.56D+03 ExpMxC= 6.82D+02 IAcc=2 IRadAn=         4 AccDes= 0.00D+00
 Harris functional with IExCor=  201 and IRadAn=       4 diagonalized for initial guess.
 HarFok:  IExCor=  201 AccDes= 0.00D+00 IRadAn=         4 IDoV= 1 UseB2=F ITyADJ=14
 ICtDFT=  3500011 ScaDFX=  1.000000  1.000000  1.000000  1.000000
 FoFCou: FMM=F IPFlag=           0 FMFlag=      100000 FMFlg1=           0
         NFxFlg=           0 DoJE=T BraDBF=F KetDBF=T FulRan=T
         wScrn=  0.000000 ICntrl=     500 IOpCl=  0 I1Cent=   200000004 NGrid=           0
         NMat0=    1 NMatS0=      1 NMatT0=    0 NMatD0=    1 NMtDS0=    0 NMtDT0=    0
 Petite list used in FoFCou.
 Requested convergence on RMS density matrix=1.00D-08 within 128 cycles.
 Requested convergence on MAX density matrix=1.00D-06.
 Requested convergence on             energy=1.00D-06.
 No special actions if energy rises.
 SCF Done:  E(RS-VWN5) =  -230.172447625     A.U. after    9 cycles
            NFock=  9  Conv=0.73D-09     -V/T= 2.0069
 Calling FoFJK, ICntrl=      2527 FMM=F ISym2X=0 I1Cent= 0 IOpClX= 0 NMat=1 NMatS=1 NMatT=0.
 ***** Axes restored to original set *****
 -------------------------------------------------------------------
 Center     Atomic                   Forces (Hartrees/Bohr)
 Number     Number              X              Y              Z
 -------------------------------------------------------------------
      1        6          -0.000171829   -0.000572622   -0.000003955
      2        6           0.000350427   -0.000714584   -0.000003112
      3        6           0.000574236    0.000100631    0.000006137
      4        6           0.000333380    0.000477742    0.000003037
      5        6          -0.000507476    0.000622908   -0.000012782
      6        6          -0.000580517    0.000081225    0.000009203
      7        1          -0.000075168   -0.000130976    0.000003308
      8        1           0.000077478   -0.000100260   -0.000001830
      9        1           0.000154393    0.000004393    0.000000981
     10        1           0.000058474    0.000143212   -0.000002604
     11        1          -0.000061427    0.000110848    0.000005102
     12        1          -0.000151971   -0.000022519   -0.000003484
 -------------------------------------------------------------------
 Cartesian Forces:  Max     0.000714584 RMS     0.000278185

 GradGradGradGradGradGradGradGradGradGradGradGradGradGradGradGradGradGrad
 Berny optimization.
 Using GEDIIS/GDIIS optimizer.
 FormGI is forming the generalized inverse of G from B-inverse, IUseBI=4.
 Internal  Forces:  Max     0.000887651 RMS     0.000271478
 Search for a local minimum.
 Step number   2 out of a maximum of   64
 All quantities printed in internal units (Hartrees-Bohrs-Radians)
 Mixed Optimization -- En-DIIS/RFO-DIIS
 Update second derivatives using D2CorX and points    1    2
 DE= -7.42D-04 DEPred=-7.37D-04 R= 1.01D+00
 TightC=F SS=  1.41D+00  RLast= 5.83D-02 DXNew= 5.0454D-01 1.7491D-01
 Trust test= 1.01D+00 RLast= 5.83D-02 DXMaxT set to 3.00D-01
 ITU=  1  0
 Use linear search instead of GDIIS.
     Eigenvalues ---    0.02152   0.02153   0.02154   0.02155   0.02155
     Eigenvalues ---    0.02155   0.02155   0.02156   0.02157   0.16000
     Eigenvalues ---    0.16000   0.16000   0.16000   0.16000   0.16000
     Eigenvalues ---    0.21999   0.22000   0.22000   0.33687   0.33716
     Eigenvalues ---    0.33718   0.33721   0.33726   0.33734   0.42051
     Eigenvalues ---    0.42067   0.46439   0.46446   0.46467   0.50087
 RFO step:  Lambda=-8.60801478D-07 EMin= 2.15189944D-02
 Quartic linear search produced a step of -0.05563.
 Iteration  1 RMS(Cart)=  0.00069907 RMS(Int)=  0.00000008
 Iteration  2 RMS(Cart)=  0.00000010 RMS(Int)=  0.00000001
 Variable       Old X    -DE/DX   Delta X   Delta X   Delta X     New X
                                 (Linear)    (Quad)   (Total)
    R1        2.61602   0.00073   0.00114   0.00006   0.00120   2.61722
    R2        2.61556   0.00089   0.00113   0.00040   0.00153   2.61709
    R3        2.06593   0.00015   0.00067  -0.00047   0.00020   2.06613
    R4        2.61547   0.00082   0.00112   0.00026   0.00139   2.61686
    R5        2.06598   0.00013   0.00067  -0.00054   0.00013   2.06611
    R6        2.61592   0.00079   0.00117   0.00015   0.00133   2.61725
    R7        2.06591   0.00015   0.00068  -0.00047   0.00021   2.06612
    R8        2.61567   0.00082   0.00112   0.00027   0.00140   2.61706
    R9        2.06593   0.00015   0.00068  -0.00047   0.00020   2.06613
   R10        2.61582   0.00072   0.00115   0.00005   0.00119   2.61701
   R11        2.06598   0.00013   0.00068  -0.00055   0.00013   2.06611
   R12        2.06592   0.00015   0.00067  -0.00047   0.00020   2.06613
    A1        2.09433   0.00005   0.00000   0.00022   0.00022   2.09455
    A2        2.09438   0.00000   0.00000   0.00002   0.00002   2.09439
    A3        2.09448  -0.00005   0.00000  -0.00023  -0.00023   2.09424
    A4        2.09463  -0.00010   0.00000  -0.00042  -0.00043   2.09420
    A5        2.09403   0.00005   0.00000   0.00019   0.00019   2.09422
    A6        2.09452   0.00005   0.00000   0.00023   0.00024   2.09476
    A7        2.09422   0.00005   0.00000   0.00021   0.00021   2.09443
    A8        2.09451  -0.00004   0.00001  -0.00022  -0.00021   2.09429
    A9        2.09446  -0.00001  -0.00001   0.00001   0.00000   2.09446
   A10        2.09434   0.00005   0.00000   0.00022   0.00022   2.09456
   A11        2.09420  -0.00003  -0.00001  -0.00009  -0.00010   2.09409
   A12        2.09465  -0.00003   0.00001  -0.00013  -0.00012   2.09454
   A13        2.09462  -0.00010  -0.00001  -0.00042  -0.00042   2.09420
   A14        2.09430   0.00003   0.00002   0.00005   0.00006   2.09436
   A15        2.09426   0.00007  -0.00001   0.00037   0.00036   2.09462
   A16        2.09423   0.00005   0.00001   0.00019   0.00020   2.09443
   A17        2.09471  -0.00003  -0.00001  -0.00010  -0.00011   2.09460
   A18        2.09424  -0.00002   0.00000  -0.00010  -0.00010   2.09415
    D1       -0.00004   0.00000   0.00003  -0.00015  -0.00012  -0.00015
    D2        3.14157   0.00000  -0.00004   0.00028   0.00023  -3.14138
    D3        3.14149   0.00000   0.00003  -0.00008  -0.00005   3.14144
    D4       -0.00009   0.00000  -0.00005   0.00034   0.00030   0.00021
    D5       -0.00006   0.00000   0.00002  -0.00004  -0.00002  -0.00009
    D6       -3.14154   0.00000  -0.00001   0.00004   0.00003  -3.14152
    D7       -3.14159   0.00000   0.00002  -0.00011  -0.00009   3.14151
    D8        0.00012   0.00000  -0.00001  -0.00003  -0.00004   0.00008
    D9        0.00009   0.00000  -0.00006   0.00025   0.00019   0.00028
   D10       -3.14154   0.00000  -0.00004   0.00019   0.00015  -3.14139
   D11       -3.14152   0.00000   0.00002  -0.00018  -0.00016   3.14150
   D12        0.00003   0.00000   0.00004  -0.00023  -0.00019  -0.00016
   D13       -0.00004   0.00000   0.00004  -0.00016  -0.00012  -0.00016
   D14        3.14151   0.00000   0.00001   0.00004   0.00005   3.14156
   D15        3.14159   0.00000   0.00002  -0.00010  -0.00009   3.14150
   D16       -0.00005   0.00000  -0.00001   0.00010   0.00008   0.00004
   D17       -0.00006   0.00000   0.00002  -0.00003  -0.00002  -0.00008
   D18       -3.14149   0.00000  -0.00001  -0.00007  -0.00007  -3.14156
   D19        3.14158   0.00000   0.00004  -0.00023  -0.00019   3.14139
   D20        0.00014   0.00000   0.00002  -0.00026  -0.00024  -0.00010
   D21        0.00011   0.00000  -0.00004   0.00013   0.00009   0.00020
   D22        3.14159   0.00000  -0.00001   0.00005   0.00004  -3.14155
   D23        3.14154   0.00000  -0.00002   0.00017   0.00014  -3.14150
   D24       -0.00016   0.00000   0.00001   0.00008   0.00009  -0.00007
         Item               Value     Threshold  Converged?
 Maximum Force            0.000888     0.000450     NO 
 RMS     Force            0.000271     0.000300     YES
 Maximum Displacement     0.001778     0.001800     YES
 RMS     Displacement     0.000699     0.001200     YES
 Predicted change in Energy=-3.916915D-06
 GradGradGradGradGradGradGradGradGradGradGradGradGradGradGradGradGradGrad

                          Input orientation:                          
 ---------------------------------------------------------------------
 Center     Atomic      Atomic             Coordinates (Angstroms)
 Number     Number       Type             X           Y           Z
 ---------------------------------------------------------------------
      1          6           0       -0.040776    0.468870    0.000073
      2          6           0        1.344199    0.468716    0.000636
      3          6           0        2.036491    1.668030   -0.000064
      4          6           0        1.343939    2.867431   -0.000996
      5          6           0       -0.040953    2.867586   -0.001421
      6          6           0       -0.733285    1.668201   -0.001009
      7          1           0       -0.587553   -0.477941    0.000478
      8          1           0        1.890601   -0.478297    0.001288
      9          1           0        3.129835    1.668010    0.000186
     10          1           0        1.890853    3.814160   -0.001516
     11          1           0       -0.587484    3.814522   -0.002184
     12          1           0       -1.826632    1.668379   -0.001381
 ---------------------------------------------------------------------
                    Distance matrix (angstroms):
                    1          2          3          4          5
     1  C    0.000000
     2  C    1.384976   0.000000
     3  C    2.398546   1.384782   0.000000
     4  C    2.769572   2.398715   1.384988   0.000000
     5  C    2.398717   2.770059   2.398897   1.384891   0.000000
     6  C    1.384907   2.398897   2.769776   2.398543   1.384864
     7  H    1.093351   2.151239   3.389808   3.862923   3.389886
     8  H    2.151127   1.093339   2.151279   3.390094   3.863397
     9  H    3.389796   2.151000   1.093345   2.151288   3.390115
    10  H    3.862922   3.389813   2.151067   1.093349   2.151250
    11  H    3.390027   3.863395   3.390085   2.151134   1.093336
    12  H    2.151303   3.390187   3.863123   3.389726   2.150988
                    6          7          8          9         10
     6  C    0.000000
     7  H    2.151085   0.000000
     8  H    3.390021   2.478155   0.000000
     9  H    3.863121   4.292329   2.478373   0.000000
    10  H    3.389874   4.956272   4.292458   2.478113   0.000000
    11  H    2.151267   4.292463   4.956734   4.292550   2.478338
    12  H    1.093347   2.478308   4.292557   4.956468   4.292327
                   11         12
    11  H    0.000000
    12  H    2.478188   0.000000
 Stoichiometry    C6H6
 Framework group  C1[X(C6H6)]
 Deg. of freedom    30
 Prev. full point group           C1      NOp   1
 Prev. largest Abelian subgroup   C1      NOp   1
       concise Abelian subgroup   C1      NOp   1
                   Standard orientation:
 ---------------------------------------------------------------------
 Center     Atomic                     Coordinates (Angstroms)
 Number     Number                        X           Y           Z
 ---------------------------------------------------------------------
      1          6                    0.357014   -1.337974    0.001529
      2          6                    1.337480   -0.359790    0.001787
      3          6                    0.980373    0.978153    0.000102
      4          6                   -0.357060    1.337959   -0.001509
      5          6                   -1.337468    0.359837   -0.001628
      6          6                   -0.980340   -0.978186   -0.000231
      7          1                    0.638766   -2.394397    0.002711
      8          1                    2.393185   -0.644178    0.002974
      9          1                    1.754314    1.750435    0.000111
     10          1                   -0.638658    2.394422   -0.002806
     11          1                   -2.393210    0.644078   -0.002927
     12          1                   -1.754393   -1.750357   -0.000363
 ---------------------------------------------------------------------
 Rotational constants (GHZ):      5.7689902      5.7672982      2.8840721
 Standard basis: 6-311+G(3df,2pd) (5D, 7F)
 There are   360 symmetry adapted cartesian basis functions of A   symmetry.
 There are   318 symmetry adapted basis functions of A   symmetry.
   318 basis functions,   450 primitive gaussians,   360 cartesian basis functions
    21 alpha electrons       21 beta electrons
       nuclear repulsion energy       204.4670254795 Hartrees.
 NAtoms=   12 NActive=   12 NUniq=   12 SFac= 1.00D+00 NAtFMM=   60 NAOKFM=F Big=F
 Integral buffers will be    131072 words long.
 Raffenetti 2 integral format.
 Two-electron integral symmetry is turned on.
 One-electron integrals computed using PRISM.
 NBasis=   318 RedAO= T EigKep=  1.66D-06  NBF=   318
 NBsUse=   318 1.00D-06 EigRej= -1.00D+00 NBFU=   318
 Initial guess from the checkpoint file:  "Benzene.chk"
 B after Tr=     0.000000    0.000000    0.000000
         Rot=    0.962639    0.000090   -0.000156   -0.270788 Ang=  31.42 deg.
 Requested convergence on RMS density matrix=1.00D-08 within 128 cycles.
 Requested convergence on MAX density matrix=1.00D-06.
 Requested convergence on             energy=1.00D-06.
 No special actions if energy rises.
 SCF Done:  E(RS-VWN5) =  -230.172461940     A.U. after    7 cycles
            NFock=  7  Conv=0.46D-08     -V/T= 2.0069
 Calling FoFJK, ICntrl=      2527 FMM=F ISym2X=0 I1Cent= 0 IOpClX= 0 NMat=1 NMatS=1 NMatT=0.
 ***** Axes restored to original set *****
 -------------------------------------------------------------------
 Center     Atomic                   Forces (Hartrees/Bohr)
 Number     Number              X              Y              Z
 -------------------------------------------------------------------
      1        6          -0.000021977    0.000012958    0.000001304
      2        6          -0.000127702   -0.000013505   -0.000030545
      3        6           0.000152725    0.000094491    0.000013890
      4        6           0.000093649   -0.000053520   -0.000005330
      5        6           0.000057381   -0.000028011   -0.000007094
      6        6          -0.000154420   -0.000014205    0.000017748
      7        1          -0.000025109   -0.000070595   -0.000000144
      8        1           0.000051204   -0.000058242    0.000008499
      9        1           0.000059560    0.000018780    0.000001333
     10        1           0.000015691    0.000077086    0.000003537
     11        1          -0.000042721    0.000064715   -0.000000071
     12        1          -0.000058281   -0.000029954   -0.000003127
 -------------------------------------------------------------------
 Cartesian Forces:  Max     0.000154420 RMS     0.000058403

 GradGradGradGradGradGradGradGradGradGradGradGradGradGradGradGradGradGrad
 Berny optimization.
 Using GEDIIS/GDIIS optimizer.
 FormGI is forming the generalized inverse of G from B-inverse, IUseBI=4.
 Internal  Forces:  Max     0.000179347 RMS     0.000053980
 Search for a local minimum.
 Step number   3 out of a maximum of   64
 All quantities printed in internal units (Hartrees-Bohrs-Radians)
 Mixed Optimization -- En-DIIS/RFO-DIIS
 Swapping is turned off.
 Update second derivatives using D2CorX and points    1    2    3
 DE= -1.43D-05 DEPred=-3.92D-06 R= 3.65D+00
 TightC=F SS=  1.41D+00  RLast= 3.52D-03 DXNew= 5.0454D-01 1.0568D-02
 Trust test= 3.65D+00 RLast= 3.52D-03 DXMaxT set to 3.00D-01
 ITU=  1  1  0
     Eigenvalues ---    0.02152   0.02153   0.02154   0.02154   0.02155
     Eigenvalues ---    0.02155   0.02156   0.02157   0.02157   0.15948
     Eigenvalues ---    0.16000   0.16000   0.16000   0.16000   0.16052
     Eigenvalues ---    0.21831   0.22000   0.22792   0.33684   0.33712
     Eigenvalues ---    0.33717   0.33721   0.33723   0.33760   0.42052
     Eigenvalues ---    0.42072   0.44356   0.46445   0.46463   0.53958
 En-DIIS/RFO-DIIS IScMMF=        0 using points:     3    2
 RFO step:  Lambda=-2.84091010D-07.
 DidBck=F Rises=F RFO-DIIS coefs:    1.12129   -0.12129
 Iteration  1 RMS(Cart)=  0.00028114 RMS(Int)=  0.00000005
 Iteration  2 RMS(Cart)=  0.00000006 RMS(Int)=  0.00000001
 Variable       Old X    -DE/DX   Delta X   Delta X   Delta X     New X
                                 (Linear)    (Quad)   (Total)
    R1        2.61722   0.00010   0.00015   0.00011   0.00026   2.61748
    R2        2.61709   0.00005   0.00019  -0.00004   0.00014   2.61724
    R3        2.06613   0.00007   0.00002   0.00020   0.00022   2.06636
    R4        2.61686   0.00018   0.00017   0.00028   0.00045   2.61731
    R5        2.06611   0.00008   0.00002   0.00021   0.00023   2.06634
    R6        2.61725   0.00001   0.00016  -0.00012   0.00004   2.61729
    R7        2.06612   0.00006   0.00003   0.00015   0.00018   2.06630
    R8        2.61706   0.00014   0.00017   0.00020   0.00037   2.61743
    R9        2.06613   0.00007   0.00002   0.00020   0.00023   2.06636
   R10        2.61701   0.00014   0.00014   0.00020   0.00035   2.61736
   R11        2.06611   0.00008   0.00002   0.00022   0.00023   2.06634
   R12        2.06613   0.00006   0.00002   0.00015   0.00017   2.06630
    A1        2.09455   0.00000   0.00003   0.00001   0.00003   2.09458
    A2        2.09439  -0.00002   0.00000  -0.00010  -0.00010   2.09429
    A3        2.09424   0.00001  -0.00003   0.00010   0.00007   2.09431
    A4        2.09420   0.00008  -0.00005   0.00043   0.00038   2.09458
    A5        2.09422  -0.00002   0.00002  -0.00011  -0.00009   2.09414
    A6        2.09476  -0.00005   0.00003  -0.00032  -0.00029   2.09447
    A7        2.09443  -0.00008   0.00003  -0.00043  -0.00041   2.09402
    A8        2.09429   0.00006  -0.00003   0.00035   0.00033   2.09462
    A9        2.09446   0.00002   0.00000   0.00008   0.00008   2.09454
   A10        2.09456   0.00000   0.00003   0.00000   0.00003   2.09459
   A11        2.09409   0.00002  -0.00001   0.00017   0.00016   2.09425
   A12        2.09454  -0.00003  -0.00001  -0.00017  -0.00019   2.09435
   A13        2.09420   0.00008  -0.00005   0.00043   0.00038   2.09458
   A14        2.09436  -0.00003   0.00001  -0.00018  -0.00017   2.09420
   A15        2.09462  -0.00004   0.00004  -0.00025  -0.00021   2.09441
   A16        2.09443  -0.00008   0.00002  -0.00043  -0.00041   2.09402
   A17        2.09460   0.00001  -0.00001   0.00001  -0.00001   2.09460
   A18        2.09415   0.00007  -0.00001   0.00042   0.00041   2.09456
    D1       -0.00015   0.00000  -0.00001   0.00019   0.00018   0.00003
    D2       -3.14138  -0.00001   0.00003  -0.00027  -0.00025   3.14156
    D3        3.14144   0.00000  -0.00001   0.00023   0.00022  -3.14152
    D4        0.00021   0.00000   0.00004  -0.00024  -0.00020   0.00001
    D5       -0.00009   0.00000   0.00000   0.00012   0.00011   0.00003
    D6       -3.14152   0.00000   0.00000  -0.00010  -0.00009   3.14158
    D7        3.14151   0.00000  -0.00001   0.00008   0.00007   3.14158
    D8        0.00008   0.00000   0.00000  -0.00013  -0.00014  -0.00006
    D9        0.00028  -0.00001   0.00002  -0.00035  -0.00033  -0.00005
   D10       -3.14139  -0.00001   0.00002  -0.00025  -0.00023   3.14157
   D11        3.14150   0.00000  -0.00002   0.00011   0.00009  -3.14159
   D12       -0.00016   0.00000  -0.00002   0.00022   0.00019   0.00003
   D13       -0.00016   0.00000  -0.00001   0.00020   0.00019   0.00003
   D14        3.14156   0.00000   0.00001   0.00008   0.00009  -3.14154
   D15        3.14150   0.00000  -0.00001   0.00010   0.00009  -3.14159
   D16        0.00004   0.00000   0.00001  -0.00002  -0.00001   0.00003
   D17       -0.00008   0.00000   0.00000   0.00011   0.00010   0.00002
   D18       -3.14156   0.00000  -0.00001  -0.00003  -0.00004   3.14158
   D19        3.14139   0.00000  -0.00002   0.00023   0.00020   3.14159
   D20       -0.00010   0.00000  -0.00003   0.00009   0.00006  -0.00004
   D21        0.00020  -0.00001   0.00001  -0.00027  -0.00026  -0.00005
   D22       -3.14155   0.00000   0.00000  -0.00005  -0.00005   3.14158
   D23       -3.14150   0.00000   0.00002  -0.00013  -0.00011   3.14157
   D24       -0.00007   0.00000   0.00001   0.00008   0.00009   0.00003
         Item               Value     Threshold  Converged?
 Maximum Force            0.000179     0.000450     YES
 RMS     Force            0.000054     0.000300     YES
 Maximum Displacement     0.000915     0.001800     YES
 RMS     Displacement     0.000281     0.001200     YES
 Predicted change in Energy=-2.680042D-07
 Optimization completed.
    -- Stationary point found.
                           ----------------------------
                           !   Optimized Parameters   !
                           ! (Angstroms and Degrees)  !
 --------------------------                            --------------------------
 ! Name  Definition              Value          Derivative Info.                !
 --------------------------------------------------------------------------------
 ! R1    R(1,2)                  1.385          -DE/DX =    0.0001              !
 ! R2    R(1,6)                  1.3849         -DE/DX =    0.0                 !
 ! R3    R(1,7)                  1.0934         -DE/DX =    0.0001              !
 ! R4    R(2,3)                  1.3848         -DE/DX =    0.0002              !
 ! R5    R(2,8)                  1.0933         -DE/DX =    0.0001              !
 ! R6    R(3,4)                  1.385          -DE/DX =    0.0                 !
 ! R7    R(3,9)                  1.0933         -DE/DX =    0.0001              !
 ! R8    R(4,5)                  1.3849         -DE/DX =    0.0001              !
 ! R9    R(4,10)                 1.0933         -DE/DX =    0.0001              !
 ! R10   R(5,6)                  1.3849         -DE/DX =    0.0001              !
 ! R11   R(5,11)                 1.0933         -DE/DX =    0.0001              !
 ! R12   R(6,12)                 1.0933         -DE/DX =    0.0001              !
 ! A1    A(2,1,6)              120.009          -DE/DX =    0.0                 !
 ! A2    A(2,1,7)              119.9998         -DE/DX =    0.0                 !
 ! A3    A(6,1,7)              119.9912         -DE/DX =    0.0                 !
 ! A4    A(1,2,3)              119.9889         -DE/DX =    0.0001              !
 ! A5    A(1,2,8)              119.9902         -DE/DX =    0.0                 !
 ! A6    A(3,2,8)              120.0209         -DE/DX =   -0.0001              !
 ! A7    A(2,3,4)              120.002          -DE/DX =   -0.0001              !
 ! A8    A(2,3,9)              119.9942         -DE/DX =    0.0001              !
 ! A9    A(4,3,9)              120.0038         -DE/DX =    0.0                 !
 ! A10   A(3,4,5)              120.0092         -DE/DX =    0.0                 !
 ! A11   A(3,4,10)             119.9827         -DE/DX =    0.0                 !
 ! A12   A(5,4,10)             120.0081         -DE/DX =    0.0                 !
 ! A13   A(4,5,6)              119.9888         -DE/DX =    0.0001              !
 ! A14   A(4,5,11)             119.9982         -DE/DX =    0.0                 !
 ! A15   A(6,5,11)             120.013          -DE/DX =    0.0                 !
 ! A16   A(1,6,5)              120.0021         -DE/DX =   -0.0001              !
 ! A17   A(1,6,12)             120.012          -DE/DX =    0.0                 !
 ! A18   A(5,6,12)             119.9859         -DE/DX =    0.0001              !
 ! D1    D(6,1,2,3)             -0.0088         -DE/DX =    0.0                 !
 ! D2    D(6,1,2,8)            180.0122         -DE/DX =    0.0                 !
 ! D3    D(7,1,2,3)           -180.009          -DE/DX =    0.0                 !
 ! D4    D(7,1,2,8)              0.012          -DE/DX =    0.0                 !
 ! D5    D(2,1,6,5)             -0.005          -DE/DX =    0.0                 !
 ! D6    D(2,1,6,12)           180.0044         -DE/DX =    0.0                 !
 ! D7    D(7,1,6,5)            179.9952         -DE/DX =    0.0                 !
 ! D8    D(7,1,6,12)             0.0046         -DE/DX =    0.0                 !
 ! D9    D(1,2,3,4)              0.0159         -DE/DX =    0.0                 !
 ! D10   D(1,2,3,9)            180.0118         -DE/DX =    0.0                 !
 ! D11   D(8,2,3,4)           -180.0051         -DE/DX =    0.0                 !
 ! D12   D(8,2,3,9)             -0.0092         -DE/DX =    0.0                 !
 ! D13   D(2,3,4,5)             -0.0092         -DE/DX =    0.0                 !
 ! D14   D(2,3,4,10)          -180.002          -DE/DX =    0.0                 !
 ! D15   D(9,3,4,5)           -180.0051         -DE/DX =    0.0                 !
 ! D16   D(9,3,4,10)             0.0021         -DE/DX =    0.0                 !
 ! D17   D(3,4,5,6)             -0.0045         -DE/DX =    0.0                 !
 ! D18   D(3,4,5,11)           180.0016         -DE/DX =    0.0                 !
 ! D19   D(10,4,5,6)           179.9882         -DE/DX =    0.0                 !
 ! D20   D(10,4,5,11)           -0.0056         -DE/DX =    0.0                 !
 ! D21   D(4,5,6,1)              0.0117         -DE/DX =    0.0                 !
 ! D22   D(4,5,6,12)           180.0022         -DE/DX =    0.0                 !
 ! D23   D(11,5,6,1)           180.0055         -DE/DX =    0.0                 !
 ! D24   D(11,5,6,12)           -0.0039         -DE/DX =    0.0                 !
 --------------------------------------------------------------------------------
 GradGradGradGradGradGradGradGradGradGradGradGradGradGradGradGradGradGrad

                          Input orientation:                          
 ---------------------------------------------------------------------
 Center     Atomic      Atomic             Coordinates (Angstroms)
 Number     Number       Type             X           Y           Z
 ---------------------------------------------------------------------
      1          6           0       -0.040776    0.468870    0.000073
      2          6           0        1.344199    0.468716    0.000636
      3          6           0        2.036491    1.668030   -0.000064
      4          6           0        1.343939    2.867431   -0.000996
      5          6           0       -0.040953    2.867586   -0.001421
      6          6           0       -0.733285    1.668201   -0.001009
      7          1           0       -0.587553   -0.477941    0.000478
      8          1           0        1.890601   -0.478297    0.001288
      9          1           0        3.129835    1.668010    0.000186
     10          1           0        1.890853    3.814160   -0.001516
     11          1           0       -0.587484    3.814522   -0.002184
     12          1           0       -1.826632    1.668379   -0.001381
 ---------------------------------------------------------------------
                    Distance matrix (angstroms):
                    1          2          3          4          5
     1  C    0.000000
     2  C    1.384976   0.000000
     3  C    2.398546   1.384782   0.000000
     4  C    2.769572   2.398715   1.384988   0.000000
     5  C    2.398717   2.770059   2.398897   1.384891   0.000000
     6  C    1.384907   2.398897   2.769776   2.398543   1.384864
     7  H    1.093351   2.151239   3.389808   3.862923   3.389886
     8  H    2.151127   1.093339   2.151279   3.390094   3.863397
     9  H    3.389796   2.151000   1.093345   2.151288   3.390115
    10  H    3.862922   3.389813   2.151067   1.093349   2.151250
    11  H    3.390027   3.863395   3.390085   2.151134   1.093336
    12  H    2.151303   3.390187   3.863123   3.389726   2.150988
                    6          7          8          9         10
     6  C    0.000000
     7  H    2.151085   0.000000
     8  H    3.390021   2.478155   0.000000
     9  H    3.863121   4.292329   2.478373   0.000000
    10  H    3.389874   4.956272   4.292458   2.478113   0.000000
    11  H    2.151267   4.292463   4.956734   4.292550   2.478338
    12  H    1.093347   2.478308   4.292557   4.956468   4.292327
                   11         12
    11  H    0.000000
    12  H    2.478188   0.000000
 Stoichiometry    C6H6
 Framework group  C1[X(C6H6)]
 Deg. of freedom    30
 Prev. full point group           C1      NOp   1
 Prev. largest Abelian subgroup   C1      NOp   1
       concise Abelian subgroup   C1      NOp   1
                   Standard orientation:
 ---------------------------------------------------------------------
 Center     Atomic                     Coordinates (Angstroms)
 Number     Number                        X           Y           Z
 ---------------------------------------------------------------------
      1          6                    0.357014   -1.337974    0.001529
      2          6                    1.337480   -0.359790    0.001787
      3          6                    0.980373    0.978153    0.000102
      4          6                   -0.357060    1.337959   -0.001509
      5          6                   -1.337468    0.359837   -0.001628
      6          6                   -0.980340   -0.978186   -0.000231
      7          1                    0.638766   -2.394397    0.002711
      8          1                    2.393185   -0.644178    0.002974
      9          1                    1.754314    1.750435    0.000111
     10          1                   -0.638658    2.394422   -0.002806
     11          1                   -2.393210    0.644078   -0.002927
     12          1                   -1.754393   -1.750357   -0.000363
 ---------------------------------------------------------------------
 Rotational constants (GHZ):      5.7689902      5.7672982      2.8840721

 **********************************************************************

            Population analysis using the SCF density.

 **********************************************************************

 Orbital symmetries:
       Occupied  (A) (A) (A) (A) (A) (A) (A) (A) (A) (A) (A) (A)
                 (A) (A) (A) (A) (A) (A) (A) (A) (A)
       Virtual   (A) (A) (A) (A) (A) (A) (A) (A) (A) (A) (A) (A)
                 (A) (A) (A) (A) (A) (A) (A) (A) (A) (A) (A) (A)
                 (A) (A) (A) (A) (A) (A) (A) (A) (A) (A) (A) (A)
                 (A) (A) (A) (A) (A) (A) (A) (A) (A) (A) (A) (A)
                 (A) (A) (A) (A) (A) (A) (A) (A) (A) (A) (A) (A)
                 (A) (A) (A) (A) (A) (A) (A) (A) (A) (A) (A) (A)
                 (A) (A) (A) (A) (A) (A) (A) (A) (A) (A) (A) (A)
                 (A) (A) (A) (A) (A) (A) (A) (A) (A) (A) (A) (A)
                 (A) (A) (A) (A) (A) (A) (A) (A) (A) (A) (A) (A)
                 (A) (A) (A) (A) (A) (A) (A) (A) (A) (A) (A) (A)
                 (A) (A) (A) (A) (A) (A) (A) (A) (A) (A) (A) (A)
                 (A) (A) (A) (A) (A) (A) (A) (A) (A) (A) (A) (A)
                 (A) (A) (A) (A) (A) (A) (A) (A) (A) (A) (A) (A)
                 (A) (A) (A) (A) (A) (A) (A) (A) (A) (A) (A) (A)
                 (A) (A) (A) (A) (A) (A) (A) (A) (A) (A) (A) (A)
                 (A) (A) (A) (A) (A) (A) (A) (A) (A) (A) (A) (A)
                 (A) (A) (A) (A) (A) (A) (A) (A) (A) (A) (A) (A)
                 (A) (A) (A) (A) (A) (A) (A) (A) (A) (A) (A) (A)
                 (A) (A) (A) (A) (A) (A) (A) (A) (A) (A) (A) (A)
                 (A) (A) (A) (A) (A) (A) (A) (A) (A) (A) (A) (A)
                 (A) (A) (A) (A) (A) (A) (A) (A) (A) (A) (A) (A)
                 (A) (A) (A) (A) (A) (A) (A) (A) (A) (A) (A) (A)
                 (A) (A) (A) (A) (A) (A) (A) (A) (A) (A) (A) (A)
                 (A) (A) (A) (A) (A) (A) (A) (A) (A) (A) (A) (A)
                 (A) (A) (A) (A) (A) (A) (A) (A) (A)
 The electronic state is 1-A.
 Alpha  occ. eigenvalues --   -9.78568  -9.78566  -9.78566  -9.78531  -9.78531
 Alpha  occ. eigenvalues --   -9.78513  -0.78369  -0.67739  -0.67734  -0.54522
 Alpha  occ. eigenvalues --   -0.54521  -0.47944  -0.40982  -0.40515  -0.37845
 Alpha  occ. eigenvalues --   -0.37838  -0.34454  -0.30361  -0.30357  -0.24167
 Alpha  occ. eigenvalues --   -0.24163
 Alpha virt. eigenvalues --   -0.05116  -0.05114  -0.00906   0.01366   0.01367
 Alpha virt. eigenvalues --    0.03681   0.03682   0.04931   0.04972   0.07292
 Alpha virt. eigenvalues --    0.08043   0.08046   0.08659   0.08895   0.12657
 Alpha virt. eigenvalues --    0.12674   0.13122   0.13123   0.13154   0.13160
 Alpha virt. eigenvalues --    0.14558   0.16977   0.16985   0.18433   0.18437
 Alpha virt. eigenvalues --    0.18443   0.19272   0.19273   0.20301   0.20769
 Alpha virt. eigenvalues --    0.20785   0.23731   0.26610   0.26615   0.27631
 Alpha virt. eigenvalues --    0.27635   0.28503   0.28506   0.30688   0.33383
 Alpha virt. eigenvalues --    0.36568   0.36570   0.38618   0.38624   0.38632
 Alpha virt. eigenvalues --    0.40010   0.42593   0.42597   0.45066   0.47497
 Alpha virt. eigenvalues --    0.47501   0.48221   0.49835   0.51689   0.51694
 Alpha virt. eigenvalues --    0.52374   0.53134   0.53398   0.53401   0.54304
 Alpha virt. eigenvalues --    0.54310   0.54797   0.54798   0.58064   0.58068
 Alpha virt. eigenvalues --    0.59688   0.62555   0.62561   0.69008   0.69245
 Alpha virt. eigenvalues --    0.69252   0.72274   0.74660   0.74665   0.76025
 Alpha virt. eigenvalues --    0.77171   0.77173   0.83043   0.90077   0.90084
 Alpha virt. eigenvalues --    0.92657   0.93561   0.93667   1.00959   1.00961
 Alpha virt. eigenvalues --    1.01579   1.03880   1.03884   1.07684   1.07687
 Alpha virt. eigenvalues --    1.08217   1.10420   1.10426   1.14262   1.14272
 Alpha virt. eigenvalues --    1.15294   1.15298   1.20888   1.22356   1.22725
 Alpha virt. eigenvalues --    1.22907   1.22913   1.23427   1.24439   1.25551
 Alpha virt. eigenvalues --    1.25558   1.28531   1.29348   1.29359   1.32372
 Alpha virt. eigenvalues --    1.32386   1.33915   1.33922   1.35846   1.40731
 Alpha virt. eigenvalues --    1.40735   1.40743   1.40748   1.42319   1.44086
 Alpha virt. eigenvalues --    1.47100   1.58929   1.58930   1.58938   1.73592
 Alpha virt. eigenvalues --    1.79467   1.79482   1.81546   1.83059   1.83069
 Alpha virt. eigenvalues --    1.92718   1.92723   1.93543   1.93550   2.04671
 Alpha virt. eigenvalues --    2.04683   2.10279   2.23889   2.23894   2.30075
 Alpha virt. eigenvalues --    2.33997   2.34009   2.36572   2.40187   2.40190
 Alpha virt. eigenvalues --    2.47843   2.49925   2.60807   2.62110   2.65471
 Alpha virt. eigenvalues --    2.65472   2.67097   2.67116   2.72846   2.72856
 Alpha virt. eigenvalues --    2.73670   2.73676   2.75073   2.75112   2.75117
 Alpha virt. eigenvalues --    2.78163   2.78172   2.81523   2.90372   2.90373
 Alpha virt. eigenvalues --    2.93383   2.93385   2.95504   2.95508   2.97117
 Alpha virt. eigenvalues --    3.00526   3.01496   3.03321   3.07255   3.07256
 Alpha virt. eigenvalues --    3.09452   3.09457   3.13238   3.13242   3.14717
 Alpha virt. eigenvalues --    3.14720   3.16506   3.30442   3.30447   3.32217
 Alpha virt. eigenvalues --    3.33562   3.33574   3.34005   3.40731   3.48071
 Alpha virt. eigenvalues --    3.55701   3.55704   3.60014   3.62277   3.63254
 Alpha virt. eigenvalues --    3.63287   3.63657   3.63679   3.65754   3.72004
 Alpha virt. eigenvalues --    3.74157   3.74164   3.76697   3.77109   3.77133
 Alpha virt. eigenvalues --    3.81647   3.81649   3.84979   3.97787   3.97804
 Alpha virt. eigenvalues --    4.00311   4.00317   4.09512   4.09515   4.19681
 Alpha virt. eigenvalues --    4.21825   4.23038   4.23043   4.26526   4.27020
 Alpha virt. eigenvalues --    4.30668   4.30670   4.31459   4.31472   4.34067
 Alpha virt. eigenvalues --    4.34079   4.34426   4.36967   4.36977   4.45481
 Alpha virt. eigenvalues --    4.45487   4.48615   4.50596   4.62591   4.63489
 Alpha virt. eigenvalues --    4.63502   4.64034   4.64044   4.70282   4.83201
 Alpha virt. eigenvalues --    4.85440   4.85462   4.86219   4.91000   4.91011
 Alpha virt. eigenvalues --    4.93379   4.93388   5.24496   5.27555   5.27599
 Alpha virt. eigenvalues --    5.30804   5.32844   5.75106   5.75116   6.26380
 Alpha virt. eigenvalues --    6.26389   6.31148   6.31168   6.49264   6.61118
 Alpha virt. eigenvalues --    6.74384   6.98783   7.01115   7.03740   7.03744
 Alpha virt. eigenvalues --    7.07365   7.07372   7.21898   7.21911   7.28958
 Alpha virt. eigenvalues --    7.28973   7.35299   7.35311   7.40426   7.42732
 Alpha virt. eigenvalues --    7.47032   7.52320   7.52326   7.75309   7.82048
 Alpha virt. eigenvalues --    7.82200   7.82211   7.87616   7.92912   7.92936
 Alpha virt. eigenvalues --    8.24344   8.24379   8.41795   8.41803   8.51773
 Alpha virt. eigenvalues --    9.32089  24.33768  25.25679  25.25737  25.58026
 Alpha virt. eigenvalues --   25.58076  25.95262
          Condensed to atoms (all electrons):
               1          2          3          4          5          6
     1  C    5.991934  -0.026795  -0.089414  -0.005189  -0.089271  -0.026138
     2  C   -0.026795   5.992148  -0.026928  -0.089277  -0.005858  -0.088950
     3  C   -0.089414  -0.026928   5.990434  -0.025540  -0.088943  -0.004741
     4  C   -0.005189  -0.089277  -0.025540   5.991915  -0.027407  -0.089428
     5  C   -0.089271  -0.005858  -0.088943  -0.027407   5.992174  -0.026323
     6  C   -0.026138  -0.088950  -0.004741  -0.089428  -0.026323   5.990392
     7  H    0.454215  -0.084870   0.022290  -0.018481   0.022235  -0.085246
     8  H   -0.085117   0.454351  -0.085128   0.022254  -0.018470   0.022244
     9  H    0.022304  -0.085044   0.453785  -0.084808   0.022298  -0.018492
    10  H   -0.018482   0.022247  -0.085161   0.454212  -0.084952   0.022281
    11  H    0.022263  -0.018469   0.022232  -0.085203   0.454354  -0.085043
    12  H   -0.084892   0.022289  -0.018493   0.022316  -0.084960   0.453783
               7          8          9         10         11         12
     1  C    0.454215  -0.085117   0.022304  -0.018482   0.022263  -0.084892
     2  C   -0.084870   0.454351  -0.085044   0.022247  -0.018469   0.022289
     3  C    0.022290  -0.085128   0.453785  -0.085161   0.022232  -0.018493
     4  C   -0.018481   0.022254  -0.084808   0.454212  -0.085203   0.022316
     5  C    0.022235  -0.018470   0.022298  -0.084952   0.454354  -0.084960
     6  C   -0.085246   0.022244  -0.018492   0.022281  -0.085043   0.453783
     7  H    0.631665  -0.003079  -0.000310   0.000052  -0.000309  -0.003062
     8  H   -0.003079   0.631622  -0.003064  -0.000309   0.000052  -0.000309
     9  H   -0.000310  -0.003064   0.631885  -0.003061  -0.000309   0.000052
    10  H    0.000052  -0.000309  -0.003061   0.631666  -0.003080  -0.000310
    11  H   -0.000309   0.000052  -0.000309  -0.003080   0.631623  -0.003063
    12  H   -0.003062  -0.000309   0.000052  -0.000310  -0.003063   0.631885
 Mulliken charges:
               1
     1  C   -0.065416
     2  C   -0.064844
     3  C   -0.064393
     4  C   -0.065362
     5  C   -0.064876
     6  C   -0.064340
     7  H    0.064900
     8  H    0.064952
     9  H    0.064765
    10  H    0.064899
    11  H    0.064952
    12  H    0.064764
 Sum of Mulliken charges =   0.00000
 Mulliken charges with hydrogens summed into heavy atoms:
               1
     1  C   -0.000516
     2  C    0.000108
     3  C    0.000372
     4  C   -0.000463
     5  C    0.000076
     6  C    0.000424
 Electronic spatial extent (au):  <R**2>=            455.6554
 Charge=              0.0000 electrons
 Dipole moment (field-independent basis, Debye):
    X=              0.0000    Y=              0.0000    Z=             -0.0002  Tot=              0.0002
 Quadrupole moment (field-independent basis, Debye-Ang):
   XX=            -32.0379   YY=            -32.0414   ZZ=            -40.1505
   XY=             -0.0004   XZ=              0.0078   YZ=             -0.0072
 Traceless Quadrupole moment (field-independent basis, Debye-Ang):
   XX=              2.7053   YY=              2.7019   ZZ=             -5.4072
   XY=             -0.0004   XZ=              0.0078   YZ=             -0.0072
 Octapole moment (field-independent basis, Debye-Ang**2):
  XXX=             -0.0013  YYY=              0.0013  ZZZ=             -0.0003  XYY=              0.0013
  XXY=             -0.0013  XXZ=             -0.0008  XZZ=              0.0000  YZZ=              0.0000
  YYZ=             -0.0013  XYZ=             -0.0004
 Hexadecapole moment (field-independent basis, Debye-Ang**3):
 XXXX=           -274.8631 YYYY=           -274.8274 ZZZZ=            -48.7594 XXXY=             -0.0049
 XXXZ=             -0.0860 YYYX=              0.0011 YYYZ=              0.0683 ZZZX=             -0.1501
 ZZZY=              0.1263 XXYY=            -91.6148 XXZZ=            -64.8068 YYZZ=            -64.7963
 XXYZ=              0.0232 YYXZ=             -0.0282 ZZXY=             -0.0009
 N-N= 2.044670254795D+02 E-N=-9.447660816357D+02  KE= 2.285950349671D+02

 Atomic contributions to Alpha molecular orbitals:
 Alpha occ 16 OE=-0.378 is C1-p=0.18 C4-p=0.18 H7-s=0.12 H10-s=0.12
 Alpha occ 17 OE=-0.345 is C3-p=0.16 C6-p=0.16 C5-p=0.16 C2-p=0.16 C4-p=0.16 C1-p=0.16
 Alpha occ 18 OE=-0.304 is H11-s=0.11 H8-s=0.11 C3-p=0.11 C6-p=0.11 C4-p=0.11 C1-p=0.11
 Alpha occ 19 OE=-0.304 is C2-p=0.11 C5-p=0.11 C1-p=0.10 C4-p=0.10 C6-p=0.10 C3-p=0.10
 Alpha occ 20 OE=-0.242 is C2-p=0.25 C5-p=0.25 C3-p=0.21 C6-p=0.21
 Alpha occ 21 OE=-0.242 is C1-p=0.30 C4-p=0.30
 Alpha vir 22 OE=-0.051 is C4-p=0.27 C1-p=0.27 C5-p=0.14 C2-p=0.14
 Alpha vir 23 OE=-0.051 is C3-p=0.26 C6-p=0.26 C2-p=0.15 C5-p=0.15
 Alpha vir 24 OE=-0.009 is C4-s=0.16 C1-s=0.16 C2-s=0.16 C5-s=0.16 C6-s=0.16 C3-s=0.16
 Alpha vir 25 OE=0.014 is C3-p=-0.72 C6-p=-0.72 C5-s=0.49 C2-s=0.49 C2-p=0.46 C5-p=0.46 C4-s=0.35 C1-s=0.35 H8-s=-0.14 H11-s=-0.14 C1-p=0.10 C4-p=0.10
 Alpha vir 26 OE=0.014 is C3-p=0.62 C6-p=0.62 C2-p=-0.56 C5-p=-0.56 C6-s=0.56 C3-s=0.55 C1-s=0.22 C4-s=0.22 C1-p=-0.21 C4-p=-0.21 H9-s=-0.15 H12-s=-0.15
 Alpha vir 27 OE=0.037 is C3-s=-1.31 C6-s=-1.31 C3-p=1.27 C6-p=1.27 C4-p=0.90 C1-p=0.90 C4-s=-0.69 C1-s=-0.68 C5-p=0.55 C2-p=0.55
 
 1\1\GINC-C13B-06\FOpt\RSVWN5\6-311+G(3df,2pd)\C6H6\EPLUHAR\14-Jul-2016
 \0\\#opt 6-311+g(3df,2pd) svwn5 pop=orbitals=6 symmetry=(follow,pg=d6h
 )\\Benzene\\0,1\C,-0.0407764745,0.4688698158,0.0000726347\C,1.34419901
 72,0.4687163329,0.0006364731\C,2.0364907001,1.668029615,-0.0000643858\
 C,1.3439385331,2.8674306252,-0.0009963451\C,-0.0409525393,2.867586087,
 -0.001421059\C,-0.73328534,1.668201453,-0.0010085824\H,-0.5875534223,-
 0.4779409102,0.0004778689\H,1.8906011677,-0.4782967131,0.0012876775\H,
 3.1298354845,1.6680096273,0.0001858216\H,1.890853077,3.8141603727,-0.0
 01516457\H,-0.5874843661,3.8145215386,-0.0021838601\H,-1.8266320775,1.
 6683794356,-0.0013807865\\Version=ES64L-G09RevD.01\State=1-A\HF=-230.1
 724619\RMSD=4.581e-09\RMSF=5.840e-05\Dipole=-0.0000019,0.0000027,-0.00
 00872\Quadrupole=2.0097735,2.0103553,-4.0201288,-0.0012846,0.0016626,-
 0.003739\PG=C01 [X(C6H6)]\\@


 WE SHOULD BE CAREFUL TO GET OUT OF AN EXPERIENCE ONLY THE WISDOM
 THAT IS IN IT -- AND STOP THERE;
 LEST WE BE LIKE THE CAT THAT SITS DOWN ON A HOT STOVE-LID.
 SHE WILL NEVER SIT DOWN ON A HOT STOVE LID AGAIN;
 BUT ALSO SHE WILL NEVER SIT DOWN ON A COLD ONE ANY MORE.

                                                     -- MARK TWAIN
 Job cpu time:       0 days  0 hours  9 minutes 54.7 seconds.
 File lengths (MBytes):  RWF=     61 Int=      0 D2E=      0 Chk=    156 Scr=      1
 Normal termination of Gaussian 09 at Thu Jul 14 14:19:49 2016.
