 Entering Gaussian System, Link 0=g09
 Initial command:
 /share/sw/gaussian/D.01/g09/l1.exe "/local/scratch/epluhar/Gau-22845.inp" -scrdir="/local/scratch/epluhar/"
 Entering Link 1 = /share/sw/gaussian/D.01/g09/l1.exe PID=     22846.
  
 Copyright (c) 1988,1990,1992,1993,1995,1998,2003,2009,2013,
            Gaussian, Inc.  All Rights Reserved.
  
 This is part of the Gaussian(R) 09 program.  It is based on
 the Gaussian(R) 03 system (copyright 2003, Gaussian, Inc.),
 the Gaussian(R) 98 system (copyright 1998, Gaussian, Inc.),
 the Gaussian(R) 94 system (copyright 1995, Gaussian, Inc.),
 the Gaussian 92(TM) system (copyright 1992, Gaussian, Inc.),
 the Gaussian 90(TM) system (copyright 1990, Gaussian, Inc.),
 the Gaussian 88(TM) system (copyright 1988, Gaussian, Inc.),
 the Gaussian 86(TM) system (copyright 1986, Carnegie Mellon
 University), and the Gaussian 82(TM) system (copyright 1983,
 Carnegie Mellon University). Gaussian is a federally registered
 trademark of Gaussian, Inc.
  
 This software contains proprietary and confidential information,
 including trade secrets, belonging to Gaussian, Inc.
  
 This software is provided under written license and may be
 used, copied, transmitted, or stored only in accord with that
 written license.
  
 The following legend is applicable only to US Government
 contracts under FAR:
  
                    RESTRICTED RIGHTS LEGEND
  
 Use, reproduction and disclosure by the US Government is
 subject to restrictions as set forth in subparagraphs (a)
 and (c) of the Commercial Computer Software - Restricted
 Rights clause in FAR 52.227-19.
  
 Gaussian, Inc.
 340 Quinnipiac St., Bldg. 40, Wallingford CT 06492
  
  
 ---------------------------------------------------------------
 Warning -- This program may not be used in any manner that
 competes with the business of Gaussian, Inc. or will provide
 assistance to any competitor of Gaussian, Inc.  The licensee
 of this program is prohibited from giving any competitor of
 Gaussian, Inc. access to this program.  By using this program,
 the user acknowledges that Gaussian, Inc. is engaged in the
 business of creating and licensing software in the field of
 computational chemistry and represents and warrants to the
 licensee that it is not a competitor of Gaussian, Inc. and that
 it will not use this program in any manner prohibited above.
 ---------------------------------------------------------------
  

 Cite this work as:
 Gaussian 09, Revision D.01,
 M. J. Frisch, G. W. Trucks, H. B. Schlegel, G. E. Scuseria, 
 M. A. Robb, J. R. Cheeseman, G. Scalmani, V. Barone, B. Mennucci, 
 G. A. Petersson, H. Nakatsuji, M. Caricato, X. Li, H. P. Hratchian, 
 A. F. Izmaylov, J. Bloino, G. Zheng, J. L. Sonnenberg, M. Hada, 
 M. Ehara, K. Toyota, R. Fukuda, J. Hasegawa, M. Ishida, T. Nakajima, 
 Y. Honda, O. Kitao, H. Nakai, T. Vreven, J. A. Montgomery, Jr., 
 J. E. Peralta, F. Ogliaro, M. Bearpark, J. J. Heyd, E. Brothers, 
 K. N. Kudin, V. N. Staroverov, T. Keith, R. Kobayashi, J. Normand, 
 K. Raghavachari, A. Rendell, J. C. Burant, S. S. Iyengar, J. Tomasi, 
 M. Cossi, N. Rega, J. M. Millam, M. Klene, J. E. Knox, J. B. Cross, 
 V. Bakken, C. Adamo, J. Jaramillo, R. Gomperts, R. E. Stratmann, 
 O. Yazyev, A. J. Austin, R. Cammi, C. Pomelli, J. W. Ochterski, 
 R. L. Martin, K. Morokuma, V. G. Zakrzewski, G. A. Voth, 
 P. Salvador, J. J. Dannenberg, S. Dapprich, A. D. Daniels, 
 O. Farkas, J. B. Foresman, J. V. Ortiz, J. Cioslowski, 
 and D. J. Fox, Gaussian, Inc., Wallingford CT, 2013.
 
 ******************************************
 Gaussian 09:  ES64L-G09RevD.01 24-Apr-2013
                26-Jun-2016 
 ******************************************
 %chk=Benzene.chk
 ------------------------------------------
 #opt 6-311+g(3df,2pd) pop=orbitals=6 svwn5
 ------------------------------------------
 1/14=-1,18=20,19=15,26=3,38=1/1,3;
 2/9=110,12=2,17=6,18=5,40=1/2;
 3/5=4,6=6,7=416,11=2,16=1,25=1,30=1,71=1,74=201/1,2,3;
 4//1;
 5/5=2,38=5/2;
 6/7=2,8=2,9=2,10=2,28=1,87=6/1;
 7//1,2,3,16;
 1/14=-1,18=20,19=15,26=3/3(2);
 2/9=110/2;
 99//99;
 2/9=110/2;
 3/5=4,6=6,7=416,11=2,16=1,25=1,30=1,71=1,74=201/1,2,3;
 4/5=5,16=3,69=1/1;
 5/5=2,38=5/2;
 7//1,2,3,16;
 1/14=-1,18=20,19=15,26=3/3(-5);
 2/9=110/2;
 6/7=2,8=2,9=2,10=2,19=2,28=1,87=6/1;
 99/9=1/99;
 -------
 Benzene
 -------
 Symbolic Z-matrix:
 Charge =  0 Multiplicity = 3
 C                    -0.04601   0.46012   0. 
 C                     1.34915   0.46012   0. 
 C                     2.04669   1.66787   0. 
 C                     1.34903   2.87638  -0.0012 
 C                    -0.04579   2.8763   -0.00168 
 C                    -0.74339   1.6681   -0.00068 
 H                    -0.59577  -0.49219   0.00045 
 H                     1.89866  -0.49239   0.00132 
 H                     3.14637   1.66795   0.00063 
 H                     1.89923   3.82853  -0.00126 
 H                    -0.59592   3.82859  -0.00263 
 H                    -1.843     1.66828  -0.00086 
 

 GradGradGradGradGradGradGradGradGradGradGradGradGradGradGradGradGradGrad
 Berny optimization.
 Initialization pass.
                           ----------------------------
                           !    Initial Parameters    !
                           ! (Angstroms and Degrees)  !
 --------------------------                            --------------------------
 ! Name  Definition              Value          Derivative Info.                !
 --------------------------------------------------------------------------------
 ! R1    R(1,2)                  1.3952         estimate D2E/DX2                !
 ! R2    R(1,6)                  1.3948         estimate D2E/DX2                !
 ! R3    R(1,7)                  1.0996         estimate D2E/DX2                !
 ! R4    R(2,3)                  1.3947         estimate D2E/DX2                !
 ! R5    R(2,8)                  1.0997         estimate D2E/DX2                !
 ! R6    R(3,4)                  1.3954         estimate D2E/DX2                !
 ! R7    R(3,9)                  1.0997         estimate D2E/DX2                !
 ! R8    R(4,5)                  1.3948         estimate D2E/DX2                !
 ! R9    R(4,10)                 1.0997         estimate D2E/DX2                !
 ! R10   R(5,6)                  1.3951         estimate D2E/DX2                !
 ! R11   R(5,11)                 1.0998         estimate D2E/DX2                !
 ! R12   R(6,12)                 1.0996         estimate D2E/DX2                !
 ! A1    A(2,1,6)              119.9985         estimate D2E/DX2                !
 ! A2    A(2,1,7)              119.9972         estimate D2E/DX2                !
 ! A3    A(6,1,7)              120.0043         estimate D2E/DX2                !
 ! A4    A(1,2,3)              120.0086         estimate D2E/DX2                !
 ! A5    A(1,2,8)              119.9808         estimate D2E/DX2                !
 ! A6    A(3,2,8)              120.0106         estimate D2E/DX2                !
 ! A7    A(2,3,4)              119.9942         estimate D2E/DX2                !
 ! A8    A(2,3,9)              120.0128         estimate D2E/DX2                !
 ! A9    A(4,3,9)              119.993          estimate D2E/DX2                !
 ! A10   A(3,4,5)              119.994          estimate D2E/DX2                !
 ! A11   A(3,4,10)             119.9811         estimate D2E/DX2                !
 ! A12   A(5,4,10)             120.0249         estimate D2E/DX2                !
 ! A13   A(4,5,6)              120.0047         estimate D2E/DX2                !
 ! A14   A(4,5,11)             120.0113         estimate D2E/DX2                !
 ! A15   A(6,5,11)             119.984          estimate D2E/DX2                !
 ! A16   A(1,6,5)              120.0            estimate D2E/DX2                !
 ! A17   A(1,6,12)             120.008          estimate D2E/DX2                !
 ! A18   A(5,6,12)             119.992          estimate D2E/DX2                !
 ! D1    D(6,1,2,3)              0.0323         estimate D2E/DX2                !
 ! D2    D(6,1,2,8)            179.9532         estimate D2E/DX2                !
 ! D3    D(7,1,2,3)           -179.9729         estimate D2E/DX2                !
 ! D4    D(7,1,2,8)             -0.052          estimate D2E/DX2                !
 ! D5    D(2,1,6,5)              0.0149         estimate D2E/DX2                !
 ! D6    D(2,1,6,12)           179.9892         estimate D2E/DX2                !
 ! D7    D(7,1,6,5)           -179.9798         estimate D2E/DX2                !
 ! D8    D(7,1,6,12)            -0.0056         estimate D2E/DX2                !
 ! D9    D(1,2,3,4)             -0.0568         estimate D2E/DX2                !
 ! D10   D(1,2,3,9)            179.9619         estimate D2E/DX2                !
 ! D11   D(8,2,3,4)           -179.9777         estimate D2E/DX2                !
 ! D12   D(8,2,3,9)              0.041          estimate D2E/DX2                !
 ! D13   D(2,3,4,5)              0.0341         estimate D2E/DX2                !
 ! D14   D(2,3,4,10)          -179.9964         estimate D2E/DX2                !
 ! D15   D(9,3,4,5)           -179.9846         estimate D2E/DX2                !
 ! D16   D(9,3,4,10)            -0.0151         estimate D2E/DX2                !
 ! D17   D(3,4,5,6)              0.0131         estimate D2E/DX2                !
 ! D18   D(3,4,5,11)          -179.9995         estimate D2E/DX2                !
 ! D19   D(10,4,5,6)          -179.9563         estimate D2E/DX2                !
 ! D20   D(10,4,5,11)            0.0311         estimate D2E/DX2                !
 ! D21   D(4,5,6,1)             -0.0376         estimate D2E/DX2                !
 ! D22   D(4,5,6,12)           179.9881         estimate D2E/DX2                !
 ! D23   D(11,5,6,1)           179.975          estimate D2E/DX2                !
 ! D24   D(11,5,6,12)            0.0007         estimate D2E/DX2                !
 --------------------------------------------------------------------------------
 Trust Radius=3.00D-01 FncErr=1.00D-07 GrdErr=1.00D-06
 Number of steps in this run=     64 maximum allowed number of steps=    100.
 GradGradGradGradGradGradGradGradGradGradGradGradGradGradGradGradGradGrad

                          Input orientation:                          
 ---------------------------------------------------------------------
 Center     Atomic      Atomic             Coordinates (Angstroms)
 Number     Number       Type             X           Y           Z
 ---------------------------------------------------------------------
      1          6           0       -0.046012    0.460123    0.000000
      2          6           0        1.349148    0.460123    0.000000
      3          6           0        2.046686    1.667874    0.000000
      4          6           0        1.349032    2.876383   -0.001199
      5          6           0       -0.045793    2.876305   -0.001678
      6          6           0       -0.743394    1.668099   -0.000682
      7          1           0       -0.595771   -0.492194    0.000450
      8          1           0        1.898656   -0.492390    0.001315
      9          1           0        3.146366    1.667954    0.000634
     10          1           0        1.899232    3.828526   -0.001258
     11          1           0       -0.595915    3.828586   -0.002631
     12          1           0       -1.842998    1.668282   -0.000862
 ---------------------------------------------------------------------
                    Distance matrix (angstroms):
                    1          2          3          4          5
     1  C    0.000000
     2  C    1.395160   0.000000
     3  C    2.416205   1.394712   0.000000
     4  C    2.790065   2.416260   1.395427   0.000000
     5  C    2.416183   2.789946   2.416356   1.394825   0.000000
     6  C    1.394829   2.416183   2.790080   2.416236   1.395138
     7  H    1.099610   2.165553   3.412986   3.889675   3.413102
     8  H    2.165414   1.099655   2.165330   3.413316   3.889601
     9  H    3.413229   2.165375   1.099680   2.165806   3.413209
    10  H    3.889745   3.413024   2.165678   1.099680   2.165606
    11  H    3.413055   3.889707   3.413506   2.165528   1.099761
    12  H    2.165365   3.413128   3.889684   3.412999   2.165471
                    6          7          8          9         10
     6  C    0.000000
     7  H    2.165331   0.000000
     8  H    3.412938   2.494427   0.000000
     9  H    3.889760   4.320860   2.494768   0.000000
    10  H    3.413344   4.989355   4.320917   2.494678   0.000000
    11  H    2.165516   4.320781   4.989362   4.321228   2.495147
    12  H    1.099604   2.494641   4.320704   4.989364   4.320988
                   11         12
    11  H    0.000000
    12  H    2.494420   0.000000
 Stoichiometry    C6H6(3)
 Framework group  C1[X(C6H6)]
 Deg. of freedom    30
 Full point group                 C1      NOp   1
 Largest Abelian subgroup         C1      NOp   1
 Largest concise Abelian subgroup C1      NOp   1
                         Standard orientation:                         
 ---------------------------------------------------------------------
 Center     Atomic      Atomic             Coordinates (Angstroms)
 Number     Number       Type             X           Y           Z
 ---------------------------------------------------------------------
      1          6           0       -0.176717   -1.383752    0.000005
      2          6           0        1.110106   -0.844719   -0.000364
      3          6           0        1.286853    0.538749    0.000194
      4          6           0        0.176454    1.383870   -0.000075
      5          6           0       -1.110031    0.844894   -0.000185
      6          6           0       -1.286660   -0.539018    0.000252
      7          1           0       -0.315850   -2.474525    0.000015
      8          1           0        1.984957   -1.510960    0.000218
      9          1           0        2.301110    0.963694    0.000537
     10          1           0        0.316060    2.474652    0.000306
     11          1           0       -1.985358    1.510684   -0.000405
     12          1           0       -2.300948   -0.963691    0.000364
 ---------------------------------------------------------------------
 Rotational constants (GHZ):      5.6865650      5.6862639      2.8432074
 Standard basis: 6-311+G(3df,2pd) (5D, 7F)
 There are   360 symmetry adapted cartesian basis functions of A   symmetry.
 There are   318 symmetry adapted basis functions of A   symmetry.
   318 basis functions,   450 primitive gaussians,   360 cartesian basis functions
    22 alpha electrons       20 beta electrons
       nuclear repulsion energy       203.0307482098 Hartrees.
 NAtoms=   12 NActive=   12 NUniq=   12 SFac= 1.00D+00 NAtFMM=   60 NAOKFM=F Big=F
 Integral buffers will be    131072 words long.
 Raffenetti 2 integral format.
 Two-electron integral symmetry is turned on.
 One-electron integrals computed using PRISM.
 NBasis=   318 RedAO= T EigKep=  1.87D-06  NBF=   318
 NBsUse=   318 1.00D-06 EigRej= -1.00D+00 NBFU=   318
 ExpMin= 4.38D-02 ExpMax= 4.56D+03 ExpMxC= 6.82D+02 IAcc=2 IRadAn=         4 AccDes= 0.00D+00
 Harris functional with IExCor=  201 and IRadAn=       4 diagonalized for initial guess.
 HarFok:  IExCor=  201 AccDes= 0.00D+00 IRadAn=         4 IDoV= 1 UseB2=F ITyADJ=14
 ICtDFT=  3500011 ScaDFX=  1.000000  1.000000  1.000000  1.000000
 FoFCou: FMM=F IPFlag=           0 FMFlag=      100000 FMFlg1=           0
         NFxFlg=           0 DoJE=T BraDBF=F KetDBF=T FulRan=T
         wScrn=  0.000000 ICntrl=     500 IOpCl=  0 I1Cent=   200000004 NGrid=           0
         NMat0=    1 NMatS0=      1 NMatT0=    0 NMatD0=    1 NMtDS0=    0 NMtDT0=    0
 Petite list used in FoFCou.
 Initial guess <Sx>= 0.0000 <Sy>= 0.0000 <Sz>= 1.0000 <S**2>= 2.0000 S= 1.0000
 Requested convergence on RMS density matrix=1.00D-08 within 128 cycles.
 Requested convergence on MAX density matrix=1.00D-06.
 Requested convergence on             energy=1.00D-06.
 No special actions if energy rises.
 EnCoef did     3 forward-backward iterations
 Restarting incremental Fock formation.
 SCF Done:  E(US-VWN5) =  -230.002888916     A.U. after   22 cycles
            NFock= 22  Conv=0.86D-08     -V/T= 2.0058
 <Sx>= 0.0000 <Sy>= 0.0000 <Sz>= 1.0000 <S**2>= 2.0118 S= 1.0039
 <L.S>= 0.000000000000E+00
 Annihilation of the first spin contaminant:
 S**2 before annihilation     2.0118,   after     2.0001

 **********************************************************************

            Population analysis using the SCF density.

 **********************************************************************

 Orbital symmetries:
 Alpha Orbitals:
       Occupied  (A) (A) (A) (A) (A) (A) (A) (A) (A) (A) (A) (A)
                 (A) (A) (A) (A) (A) (A) (A) (A) (A) (A)
       Virtual   (A) (A) (A) (A) (A) (A) (A) (A) (A) (A) (A) (A)
                 (A) (A) (A) (A) (A) (A) (A) (A) (A) (A) (A) (A)
                 (A) (A) (A) (A) (A) (A) (A) (A) (A) (A) (A) (A)
                 (A) (A) (A) (A) (A) (A) (A) (A) (A) (A) (A) (A)
                 (A) (A) (A) (A) (A) (A) (A) (A) (A) (A) (A) (A)
                 (A) (A) (A) (A) (A) (A) (A) (A) (A) (A) (A) (A)
                 (A) (A) (A) (A) (A) (A) (A) (A) (A) (A) (A) (A)
                 (A) (A) (A) (A) (A) (A) (A) (A) (A) (A) (A) (A)
                 (A) (A) (A) (A) (A) (A) (A) (A) (A) (A) (A) (A)
                 (A) (A) (A) (A) (A) (A) (A) (A) (A) (A) (A) (A)
                 (A) (A) (A) (A) (A) (A) (A) (A) (A) (A) (A) (A)
                 (A) (A) (A) (A) (A) (A) (A) (A) (A) (A) (A) (A)
                 (A) (A) (A) (A) (A) (A) (A) (A) (A) (A) (A) (A)
                 (A) (A) (A) (A) (A) (A) (A) (A) (A) (A) (A) (A)
                 (A) (A) (A) (A) (A) (A) (A) (A) (A) (A) (A) (A)
                 (A) (A) (A) (A) (A) (A) (A) (A) (A) (A) (A) (A)
                 (A) (A) (A) (A) (A) (A) (A) (A) (A) (A) (A) (A)
                 (A) (A) (A) (A) (A) (A) (A) (A) (A) (A) (A) (A)
                 (A) (A) (A) (A) (A) (A) (A) (A) (A) (A) (A) (A)
                 (A) (A) (A) (A) (A) (A) (A) (A) (A) (A) (A) (A)
                 (A) (A) (A) (A) (A) (A) (A) (A) (A) (A) (A) (A)
                 (A) (A) (A) (A) (A) (A) (A) (A) (A) (A) (A) (A)
                 (A) (A) (A) (A) (A) (A) (A) (A) (A) (A) (A) (A)
                 (A) (A) (A) (A) (A) (A) (A) (A) (A) (A) (A) (A)
                 (A) (A) (A) (A) (A) (A) (A) (A)
 Beta  Orbitals:
       Occupied  (A) (A) (A) (A) (A) (A) (A) (A) (A) (A) (A) (A)
                 (A) (A) (A) (A) (A) (A) (A) (A)
       Virtual   (A) (A) (A) (A) (A) (A) (A) (A) (A) (A) (A) (A)
                 (A) (A) (A) (A) (A) (A) (A) (A) (A) (A) (A) (A)
                 (A) (A) (A) (A) (A) (A) (A) (A) (A) (A) (A) (A)
                 (A) (A) (A) (A) (A) (A) (A) (A) (A) (A) (A) (A)
                 (A) (A) (A) (A) (A) (A) (A) (A) (A) (A) (A) (A)
                 (A) (A) (A) (A) (A) (A) (A) (A) (A) (A) (A) (A)
                 (A) (A) (A) (A) (A) (A) (A) (A) (A) (A) (A) (A)
                 (A) (A) (A) (A) (A) (A) (A) (A) (A) (A) (A) (A)
                 (A) (A) (A) (A) (A) (A) (A) (A) (A) (A) (A) (A)
                 (A) (A) (A) (A) (A) (A) (A) (A) (A) (A) (A) (A)
                 (A) (A) (A) (A) (A) (A) (A) (A) (A) (A) (A) (A)
                 (A) (A) (A) (A) (A) (A) (A) (A) (A) (A) (A) (A)
                 (A) (A) (A) (A) (A) (A) (A) (A) (A) (A) (A) (A)
                 (A) (A) (A) (A) (A) (A) (A) (A) (A) (A) (A) (A)
                 (A) (A) (A) (A) (A) (A) (A) (A) (A) (A) (A) (A)
                 (A) (A) (A) (A) (A) (A) (A) (A) (A) (A) (A) (A)
                 (A) (A) (A) (A) (A) (A) (A) (A) (A) (A) (A) (A)
                 (A) (A) (A) (A) (A) (A) (A) (A) (A) (A) (A) (A)
                 (A) (A) (A) (A) (A) (A) (A) (A) (A) (A) (A) (A)
                 (A) (A) (A) (A) (A) (A) (A) (A) (A) (A) (A) (A)
                 (A) (A) (A) (A) (A) (A) (A) (A) (A) (A) (A) (A)
                 (A) (A) (A) (A) (A) (A) (A) (A) (A) (A) (A) (A)
                 (A) (A) (A) (A) (A) (A) (A) (A) (A) (A) (A) (A)
                 (A) (A) (A) (A) (A) (A) (A) (A) (A) (A) (A) (A)
                 (A) (A) (A) (A) (A) (A) (A) (A) (A) (A)
 The electronic state is 3-A.
 Alpha  occ. eigenvalues --   -9.79496  -9.79487  -9.79466  -9.79464  -9.79073
 Alpha  occ. eigenvalues --   -9.79068  -0.79306  -0.69429  -0.67964  -0.55452
 Alpha  occ. eigenvalues --   -0.55104  -0.48271  -0.41731  -0.41081  -0.38771
 Alpha  occ. eigenvalues --   -0.38066  -0.36003  -0.31138  -0.30921  -0.26808
 Alpha  occ. eigenvalues --   -0.24920  -0.07624
 Alpha virt. eigenvalues --   -0.06285  -0.01292   0.00954   0.01162   0.03263
 Alpha virt. eigenvalues --    0.03451   0.04375   0.04402   0.06975   0.06978
 Alpha virt. eigenvalues --    0.07360   0.07604   0.08375   0.11942   0.12153
 Alpha virt. eigenvalues --    0.12243   0.12740   0.12772   0.12828   0.14035
 Alpha virt. eigenvalues --    0.16392   0.16618   0.17662   0.17801   0.18119
 Alpha virt. eigenvalues --    0.18892   0.18965   0.19719   0.19778   0.20327
 Alpha virt. eigenvalues --    0.22718   0.25979   0.26400   0.26571   0.26721
 Alpha virt. eigenvalues --    0.27507   0.27604   0.30119   0.33082   0.35468
 Alpha virt. eigenvalues --    0.35988   0.37401   0.37541   0.38143   0.39289
 Alpha virt. eigenvalues --    0.41362   0.41801   0.43444   0.46157   0.46469
 Alpha virt. eigenvalues --    0.47475   0.48384   0.51110   0.51387   0.51642
 Alpha virt. eigenvalues --    0.52078   0.52103   0.52395   0.53226   0.53441
 Alpha virt. eigenvalues --    0.53866   0.54274   0.56294   0.57273   0.58909
 Alpha virt. eigenvalues --    0.61350   0.61631   0.66851   0.68137   0.68345
 Alpha virt. eigenvalues --    0.70665   0.73597   0.73730   0.74595   0.75633
 Alpha virt. eigenvalues --    0.76344   0.82080   0.88960   0.89158   0.91703
 Alpha virt. eigenvalues --    0.92457   0.92710   0.99845   1.00202   1.00684
 Alpha virt. eigenvalues --    1.02690   1.03060   1.07188   1.07429   1.07741
 Alpha virt. eigenvalues --    1.09622   1.09885   1.12941   1.13466   1.14657
 Alpha virt. eigenvalues --    1.14868   1.20931   1.21813   1.21816   1.21981
 Alpha virt. eigenvalues --    1.22251   1.22597   1.23360   1.24589   1.25101
 Alpha virt. eigenvalues --    1.27750   1.28079   1.28200   1.31327   1.31582
 Alpha virt. eigenvalues --    1.32864   1.33255   1.34757   1.38652   1.38738
 Alpha virt. eigenvalues --    1.39429   1.40042   1.41418   1.43191   1.45566
 Alpha virt. eigenvalues --    1.56853   1.57102   1.57175   1.73051   1.76690
 Alpha virt. eigenvalues --    1.78038   1.80614   1.80884   1.81047   1.90292
 Alpha virt. eigenvalues --    1.90654   1.91493   1.92201   2.02388   2.02499
 Alpha virt. eigenvalues --    2.07233   2.21602   2.22222   2.27445   2.31705
 Alpha virt. eigenvalues --    2.31899   2.36448   2.37722   2.37881   2.45730
 Alpha virt. eigenvalues --    2.47647   2.59029   2.60662   2.62784   2.63991
 Alpha virt. eigenvalues --    2.64779   2.66219   2.71603   2.72114   2.72417
 Alpha virt. eigenvalues --    2.72575   2.72732   2.73156   2.74172   2.75853
 Alpha virt. eigenvalues --    2.76882   2.79018   2.87673   2.88905   2.91397
 Alpha virt. eigenvalues --    2.91988   2.93132   2.93555   2.95319   2.98582
 Alpha virt. eigenvalues --    2.99927   3.00536   3.05297   3.05363   3.08962
 Alpha virt. eigenvalues --    3.09583   3.12272   3.12733   3.12792   3.13049
 Alpha virt. eigenvalues --    3.16057   3.27177   3.27560   3.27838   3.30909
 Alpha virt. eigenvalues --    3.31618   3.32597   3.39072   3.45761   3.52519
 Alpha virt. eigenvalues --    3.52597   3.57544   3.58313   3.60536   3.60775
 Alpha virt. eigenvalues --    3.60835   3.61197   3.62412   3.68777   3.71718
 Alpha virt. eigenvalues --    3.72273   3.73693   3.73784   3.74858   3.79255
 Alpha virt. eigenvalues --    3.79773   3.84876   3.96389   3.96455   3.99883
 Alpha virt. eigenvalues --    4.00052   4.08564   4.08935   4.18293   4.19592
 Alpha virt. eigenvalues --    4.22321   4.22364   4.27010   4.27149   4.28077
 Alpha virt. eigenvalues --    4.28755   4.28912   4.29282   4.29702   4.30631
 Alpha virt. eigenvalues --    4.32473   4.34644   4.34822   4.42729   4.42915
 Alpha virt. eigenvalues --    4.46496   4.49248   4.57789   4.59786   4.60173
 Alpha virt. eigenvalues --    4.64280   4.64505   4.66633   4.78233   4.80723
 Alpha virt. eigenvalues --    4.82748   4.82779   4.87010   4.87657   4.89203
 Alpha virt. eigenvalues --    4.89269   5.22892   5.23111   5.23196   5.25603
 Alpha virt. eigenvalues --    5.29961   5.71238   5.71325   6.20983   6.21203
 Alpha virt. eigenvalues --    6.27568   6.27968   6.41280   6.57229   6.66951
 Alpha virt. eigenvalues --    6.95676   6.98997   7.01142   7.02596   7.04662
 Alpha virt. eigenvalues --    7.05014   7.20777   7.22261   7.26926   7.28402
 Alpha virt. eigenvalues --    7.33028   7.33519   7.37945   7.40083   7.44992
 Alpha virt. eigenvalues --    7.49596   7.51090   7.72853   7.77551   7.81428
 Alpha virt. eigenvalues --    7.81896   7.83892   7.90369   7.90637   8.19610
 Alpha virt. eigenvalues --    8.19942   8.37319   8.37428   8.48662   9.27384
 Alpha virt. eigenvalues --   24.32716  25.17250  25.17575  25.48897  25.49507
 Alpha virt. eigenvalues --   25.84874
  Beta  occ. eigenvalues --   -9.79242  -9.79236  -9.78638  -9.78628  -9.78606
  Beta  occ. eigenvalues --   -9.78604  -0.77872  -0.67277  -0.67202  -0.54536
  Beta  occ. eigenvalues --   -0.53579  -0.47591  -0.40649  -0.40229  -0.37757
  Beta  occ. eigenvalues --   -0.37710  -0.33375  -0.30384  -0.30202  -0.23627
  Beta virt. eigenvalues --   -0.22608  -0.04978  -0.03624  -0.00954   0.01284
  Beta virt. eigenvalues --    0.01304   0.03592   0.03593   0.04982   0.05019
  Beta virt. eigenvalues --    0.07160   0.07892   0.08116   0.08563   0.09466
  Beta virt. eigenvalues --    0.12513   0.12747   0.12914   0.12984   0.13034
  Beta virt. eigenvalues --    0.13116   0.14321   0.16819   0.16822   0.18356
  Beta virt. eigenvalues --    0.18378   0.18388   0.19056   0.19144   0.20166
  Beta virt. eigenvalues --    0.20515   0.20686   0.23650   0.26319   0.26436
  Beta virt. eigenvalues --    0.27130   0.27437   0.28098   0.28232   0.30807
  Beta virt. eigenvalues --    0.33410   0.36602   0.36909   0.38709   0.38875
  Beta virt. eigenvalues --    0.39036   0.39779   0.42477   0.42587   0.44634
  Beta virt. eigenvalues --    0.47490   0.48077   0.48807   0.49113   0.51733
  Beta virt. eigenvalues --    0.51798   0.52451   0.53395   0.53462   0.53594
  Beta virt. eigenvalues --    0.53808   0.54029   0.54868   0.54936   0.58092
  Beta virt. eigenvalues --    0.58822   0.59690   0.62102   0.62151   0.68043
  Beta virt. eigenvalues --    0.68764   0.68929   0.71112   0.74614   0.74687
  Beta virt. eigenvalues --    0.75211   0.77249   0.77733   0.83470   0.89908
  Beta virt. eigenvalues --    0.89984   0.92348   0.93472   0.93886   1.00909
  Beta virt. eigenvalues --    1.01081   1.01581   1.03786   1.03877   1.07879
  Beta virt. eigenvalues --    1.08244   1.08417   1.10508   1.10661   1.13862
  Beta virt. eigenvalues --    1.14070   1.15384   1.15633   1.21306   1.22209
  Beta virt. eigenvalues --    1.22845   1.22969   1.23493   1.23908   1.24311
  Beta virt. eigenvalues --    1.25710   1.25906   1.28584   1.28615   1.28994
  Beta virt. eigenvalues --    1.31817   1.32096   1.33736   1.33955   1.36467
  Beta virt. eigenvalues --    1.40866   1.40988   1.40999   1.41429   1.42710
  Beta virt. eigenvalues --    1.43449   1.47443   1.57478   1.57901   1.58031
  Beta virt. eigenvalues --    1.73546   1.78913   1.79481   1.81894   1.82285
  Beta virt. eigenvalues --    1.83081   1.92170   1.92636   1.92654   1.93028
  Beta virt. eigenvalues --    2.03371   2.03634   2.09088   2.23063   2.23732
  Beta virt. eigenvalues --    2.29622   2.32441   2.32915   2.37805   2.38566
  Beta virt. eigenvalues --    2.38657   2.47389   2.50005   2.60368   2.62272
  Beta virt. eigenvalues --    2.65081   2.65346   2.66223   2.68087   2.72630
  Beta virt. eigenvalues --    2.73016   2.73631   2.73674   2.74565   2.74884
  Beta virt. eigenvalues --    2.74991   2.77699   2.78204   2.81621   2.90117
  Beta virt. eigenvalues --    2.90996   2.92714   2.93118   2.94892   2.95502
  Beta virt. eigenvalues --    2.97929   2.99927   3.00583   3.01050   3.05989
  Beta virt. eigenvalues --    3.06197   3.09912   3.10201   3.13528   3.13606
  Beta virt. eigenvalues --    3.13649   3.14105   3.16511   3.28383   3.28484
  Beta virt. eigenvalues --    3.28894   3.32784   3.33186   3.33230   3.39776
  Beta virt. eigenvalues --    3.46614   3.53988   3.54152   3.58133   3.59693
  Beta virt. eigenvalues --    3.61257   3.61404   3.61671   3.61862   3.64860
  Beta virt. eigenvalues --    3.69498   3.73128   3.73415   3.74963   3.75066
  Beta virt. eigenvalues --    3.76222   3.80189   3.80696   3.85014   3.97167
  Beta virt. eigenvalues --    3.97403   4.00142   4.00183   4.09292   4.09418
  Beta virt. eigenvalues --    4.18874   4.20023   4.22399   4.22532   4.26962
  Beta virt. eigenvalues --    4.27166   4.29468   4.29592   4.29862   4.30443
  Beta virt. eigenvalues --    4.31953   4.32261   4.33407   4.35083   4.35092
  Beta virt. eigenvalues --    4.43388   4.43587   4.47410   4.49697   4.58373
  Beta virt. eigenvalues --    4.60903   4.61419   4.64756   4.64759   4.66968
  Beta virt. eigenvalues --    4.80200   4.82771   4.83082   4.83304   4.88185
  Beta virt. eigenvalues --    4.88794   4.89965   4.90053   5.23465   5.23522
  Beta virt. eigenvalues --    5.23746   5.27045   5.30443   5.71608   5.71920
  Beta virt. eigenvalues --    6.21594   6.21900   6.28274   6.28454   6.42077
  Beta virt. eigenvalues --    6.57925   6.67659   6.98359   7.01652   7.03846
  Beta virt. eigenvalues --    7.05090   7.07303   7.07609   7.23607   7.25020
  Beta virt. eigenvalues --    7.29692   7.31290   7.35695   7.36067   7.40514
  Beta virt. eigenvalues --    7.42693   7.47961   7.52432   7.53559   7.75558
  Beta virt. eigenvalues --    7.78829   7.82453   7.82698   7.84831   7.91642
  Beta virt. eigenvalues --    7.91983   8.21050   8.21138   8.38268   8.38426
  Beta virt. eigenvalues --    8.49730   9.28537  24.33508  25.17897  25.18547
  Beta virt. eigenvalues --   25.49804  25.50192  25.85676
          Condensed to atoms (all electrons):
               1          2          3          4          5          6
     1  C    6.321846  -0.025726  -0.183219   0.078437  -0.085615  -0.322107
     2  C   -0.025726   5.927517  -0.027374  -0.085601   0.009193  -0.084622
     3  C   -0.183219  -0.027374   6.318003  -0.318331  -0.084306   0.078063
     4  C    0.078437  -0.085601  -0.318331   6.320541  -0.028072  -0.183334
     5  C   -0.085615   0.009193  -0.084306  -0.028072   5.927469  -0.024558
     6  C   -0.322107  -0.084622   0.078063  -0.183334  -0.024558   6.318390
     7  H    0.466806  -0.086417   0.020817  -0.017715   0.021724  -0.092439
     8  H   -0.082011   0.445981  -0.082192   0.021754  -0.017041   0.021811
     9  H    0.020884  -0.086644   0.466808  -0.092267   0.021750  -0.017747
    10  H   -0.017725   0.021762  -0.092113   0.466717  -0.086686   0.020808
    11  H    0.021756  -0.017029   0.021772  -0.082239   0.446052  -0.082024
    12  H   -0.092626   0.021745  -0.017762   0.020931  -0.086281   0.466801
               7          8          9         10         11         12
     1  C    0.466806  -0.082011   0.020884  -0.017725   0.021756  -0.092626
     2  C   -0.086417   0.445981  -0.086644   0.021762  -0.017029   0.021745
     3  C    0.020817  -0.082192   0.466808  -0.092113   0.021772  -0.017762
     4  C   -0.017715   0.021754  -0.092267   0.466717  -0.082239   0.020931
     5  C    0.021724  -0.017041   0.021750  -0.086686   0.446052  -0.086281
     6  C   -0.092439   0.021811  -0.017747   0.020808  -0.082024   0.466801
     7  H    0.622188  -0.002726  -0.000277   0.000049  -0.000291  -0.002619
     8  H   -0.002726   0.626074  -0.002741  -0.000291   0.000047  -0.000291
     9  H   -0.000277  -0.002741   0.622047  -0.002602  -0.000291   0.000049
    10  H    0.000049  -0.000291  -0.002602   0.622157  -0.002732  -0.000277
    11  H   -0.000291   0.000047  -0.000291  -0.002732   0.626047  -0.002731
    12  H   -0.002619  -0.000291   0.000049  -0.000277  -0.002731   0.622063
          Atomic-Atomic Spin Densities.
               1          2          3          4          5          6
     1  C    0.747232   0.047950  -0.142767   0.051587   0.026471  -0.146610
     2  C    0.047950  -0.283813   0.048830   0.026576  -0.024180   0.027380
     3  C   -0.142767   0.048830   0.742090  -0.146460   0.027497   0.051197
     4  C    0.051587   0.026576  -0.146460   0.746906   0.047771  -0.142754
     5  C    0.026471  -0.024180   0.027497   0.047771  -0.283797   0.048977
     6  C   -0.146610   0.027380   0.051197  -0.142754   0.048977   0.742486
     7  H    0.009028   0.003824  -0.001890   0.001532  -0.002026   0.004420
     8  H   -0.002046   0.001941  -0.002077   0.000331   0.001193   0.000337
     9  H   -0.001888   0.003756   0.008984   0.004446  -0.002013   0.001530
    10  H    0.001533  -0.002024   0.004456   0.009024   0.003788  -0.001898
    11  H    0.000330   0.001193   0.000337  -0.002030   0.001940  -0.002091
    12  H    0.004412  -0.002020   0.001533  -0.001886   0.003783   0.009001
               7          8          9         10         11         12
     1  C    0.009028  -0.002046  -0.001888   0.001533   0.000330   0.004412
     2  C    0.003824   0.001941   0.003756  -0.002024   0.001193  -0.002020
     3  C   -0.001890  -0.002077   0.008984   0.004456   0.000337   0.001533
     4  C    0.001532   0.000331   0.004446   0.009024  -0.002030  -0.001886
     5  C   -0.002026   0.001193  -0.002013   0.003788   0.001940   0.003783
     6  C    0.004420   0.000337   0.001530  -0.001898  -0.002091   0.009001
     7  H   -0.032555   0.000123   0.000021  -0.000003   0.000007   0.000108
     8  H    0.000123  -0.001597   0.000123   0.000007   0.000000   0.000007
     9  H    0.000021   0.000123  -0.032404   0.000108   0.000007  -0.000003
    10  H   -0.000003   0.000007   0.000108  -0.032544   0.000123   0.000021
    11  H    0.000007   0.000000   0.000007   0.000123  -0.001596   0.000122
    12  H    0.000108   0.000007  -0.000003   0.000021   0.000122  -0.032412
 Mulliken charges and spin densities:
               1          2
     1  C   -0.100700   0.595233
     2  C   -0.012785  -0.150585
     3  C   -0.100167   0.591728
     4  C   -0.100822   0.595042
     5  C   -0.013629  -0.150596
     6  C   -0.099043   0.591975
     7  H    0.070898  -0.017410
     8  H    0.071626  -0.001657
     9  H    0.071030  -0.017333
    10  H    0.070932  -0.017408
    11  H    0.071663  -0.001657
    12  H    0.070998  -0.017333
 Sum of Mulliken charges =   0.00000   2.00000
 Mulliken charges and spin densities with hydrogens summed into heavy atoms:
               1          2
     1  C   -0.029803   0.577823
     2  C    0.058841  -0.152243
     3  C   -0.029137   0.574395
     4  C   -0.029890   0.577635
     5  C    0.058033  -0.152253
     6  C   -0.028045   0.574642
 Electronic spatial extent (au):  <R**2>=            462.5690
 Charge=              0.0000 electrons
 Dipole moment (field-independent basis, Debye):
    X=              0.0002    Y=              0.0001    Z=              0.0008  Tot=              0.0009
 Quadrupole moment (field-independent basis, Debye-Ang):
   XX=            -33.0416   YY=            -32.7152   ZZ=            -40.5550
   XY=              0.5796   XZ=              0.0017   YZ=              0.0001
 Traceless Quadrupole moment (field-independent basis, Debye-Ang):
   XX=              2.3957   YY=              2.7221   ZZ=             -5.1178
   XY=              0.5796   XZ=              0.0017   YZ=              0.0001
 Octapole moment (field-independent basis, Debye-Ang**2):
  XXX=             -0.0009  YYY=             -0.0008  ZZZ=              0.0014  XYY=              0.0027
  XXY=              0.0018  XXZ=              0.0026  XZZ=              0.0009  YZZ=              0.0002
  YYZ=              0.0058  XYZ=              0.0013
 Hexadecapole moment (field-independent basis, Debye-Ang**3):
 XXXX=           -287.1702 YYYY=           -286.7185 ZZZZ=            -51.2759 XXXY=             -1.1007
 XXXZ=              0.0099 YYYX=              1.8709 YYYZ=              0.0041 ZZZX=              0.0019
 ZZZY=              0.0004 XXYY=            -92.3089 XXZZ=            -68.5689 YYZZ=            -68.0060
 XXYZ=             -0.0040 YYXZ=              0.0050 ZZXY=              0.9869
 N-N= 2.030307482098D+02 E-N=-9.416675554725D+02  KE= 2.286707442374D+02

 Atomic contributions to Alpha molecular orbitals:
 Alpha occ 17 OE=-0.360 is C1-p=0.17 C6-p=0.17 C4-p=0.17 C3-p=0.17 C2-p=0.14 C5-p=0.14
 Alpha occ 18 OE=-0.311 is H11-s=0.12 H8-s=0.12 C5-p=0.10 C2-p=0.10 C4-p=0.10 C3-p=0.10 C1-p=0.10 C6-p=0.10
 Alpha occ 19 OE=-0.309 is C5-p=0.11 C2-p=0.11 C6-p=0.11 C1-p=0.11 C3-p=0.11 C4-p=0.11
 Alpha occ 20 OE=-0.268 is C4-p=0.23 C1-p=0.23 C3-p=0.23 C6-p=0.23
 Alpha occ 21 OE=-0.249 is C5-p=0.28 C2-p=0.28
 Alpha occ 22 OE=-0.076 is C1-p=0.22 C4-p=0.22 C6-p=0.22 C3-p=0.22
 Alpha vir 23 OE=-0.063 is C5-p=0.31 C2-p=0.31
 Alpha vir 24 OE=-0.013 is C2-s=0.18 C5-s=0.18 C6-s=0.16 C3-s=0.16 C4-s=0.15 C1-s=0.15
 Alpha vir 25 OE=0.010 is C2-p=-0.81 C5-p=-0.81 C6-s=0.49 C3-s=0.49 C1-s=0.48 C4-s=0.48 C3-p=0.26 C6-p=0.26 C4-p=0.26 C1-p=0.26 H9-s=-0.12 H12-s=-0.12 H10-s=-0.12 H7-s=-0.12
 Alpha vir 26 OE=0.012 is C5-p=0.62 C2-p=0.62 C2-s=0.52 C5-s=0.52 C6-p=-0.37 C3-p=-0.37 C1-p=-0.36 C4-p=-0.36 H8-s=-0.16 H11-s=-0.16 C4-s=0.15 C1-s=0.15 C3-s=0.15 C6-s=0.15
 Alpha vir 27 OE=0.033 is C4-p=1.10 C1-p=1.10 C3-p=1.10 C6-p=1.10 C4-s=-0.96 C1-s=-0.96 C3-s=-0.96 C6-s=-0.96 C5-p=0.36 C2-p=0.36
 Alpha vir 28 OE=0.035 is C5-s=-1.74 C2-s=-1.74 C5-p=1.19 C2-p=1.19 C6-p=0.72 C3-p=0.72 C4-p=0.72 C1-p=0.72 C6-s=-0.14 C3-s=-0.14 C1-s=-0.13 C4-s=-0.13 H8-s=-0.11 H11-s=-0.11

 Atomic contributions to Beta  molecular orbitals:
 Beta  occ 15 OE=-0.378 is C5-p=0.18 C2-p=0.18 H11-s=0.11 H8-s=0.11
 Beta  occ 16 OE=-0.377 is C1-p=0.14 C4-p=0.14 C6-p=0.14 C3-p=0.14
 Beta  occ 17 OE=-0.334 is C2-p=0.18 C5-p=0.18 C6-p=0.15 C3-p=0.15 C1-p=0.15 C4-p=0.15
 Beta  occ 18 OE=-0.304 is H11-s=0.11 H8-s=0.11 C4-p=0.11 C3-p=0.11 C1-p=0.11 C6-p=0.11 C5-p=0.10 C2-p=0.10
 Beta  occ 19 OE=-0.302 is C5-p=0.11 C2-p=0.11 C6-p=0.10 C1-p=0.10 C3-p=0.10 C4-p=0.10
 Beta  occ 20 OE=-0.236 is C5-p=0.32 C2-p=0.32
 Beta  vir 21 OE=-0.226 is C1-p=0.23 C4-p=0.23 C6-p=0.23 C3-p=0.23
 Beta  vir 22 OE=-0.050 is C5-p=0.27 C2-p=0.27
 Beta  vir 23 OE=-0.036 is C1-p=0.21 C4-p=0.21 C6-p=0.21 C3-p=0.21
 Beta  vir 24 OE=-0.010 is C2-s=0.17 C5-s=0.17 C6-s=0.15 C3-s=0.15 C4-s=0.15 C1-s=0.15
 Beta  vir 25 OE=0.013 is C2-p=-0.79 C5-p=-0.79 C6-s=0.47 C3-s=0.47 C1-s=0.44 C4-s=0.44 C3-p=0.32 C6-p=0.31 C4-p=0.25 C1-p=0.25 H9-s=-0.12 H12-s=-0.12 H10-s=-0.12 H7-s=-0.11
 Beta  vir 26 OE=0.013 is C5-p=0.64 C2-p=0.64 C2-s=0.52 C5-s=0.52 C6-p=-0.42 C3-p=-0.42 C1-p=-0.35 C4-p=-0.35 C4-s=0.17 C1-s=0.17 H8-s=-0.16 H11-s=-0.16 C3-s=0.14 C6-s=0.14
 
                          Isotropic Fermi Contact Couplings
        Atom                 a.u.       MegaHertz       Gauss      10(-4) cm-1
     1  C(13)             -0.01507      -8.46847      -3.02176      -2.82478
     2  C(13)             -0.02459     -13.82025      -4.93141      -4.60994
     3  C(13)             -0.01509      -8.48424      -3.02739      -2.83004
     4  C(13)             -0.01504      -8.45572      -3.01721      -2.82053
     5  C(13)             -0.02459     -13.82119      -4.93175      -4.61025
     6  C(13)             -0.01511      -8.49504      -3.03124      -2.83364
     7  H(1)              -0.00676     -15.10312      -5.38917      -5.03786
     8  H(1)              -0.00005      -0.11502      -0.04104      -0.03837
     9  H(1)              -0.00673     -15.03356      -5.36435      -5.01465
    10  H(1)              -0.00676     -15.09926      -5.38779      -5.03657
    11  H(1)              -0.00005      -0.11492      -0.04101      -0.03833
    12  H(1)              -0.00673     -15.03733      -5.36569      -5.01591
 --------------------------------------------------------
       Center         ----  Spin Dipole Couplings  ----
                      3XX-RR        3YY-RR        3ZZ-RR
 --------------------------------------------------------
     1   Atom       -0.348635     -0.341186      0.689820
     2   Atom        0.043806      0.051341     -0.095148
     3   Atom       -0.335479     -0.350638      0.686116
     4   Atom       -0.348539     -0.341041      0.689580
     5   Atom        0.043836      0.051321     -0.095157
     6   Atom       -0.335610     -0.350758      0.686368
     7   Atom       -0.046372      0.049938     -0.003565
     8   Atom        0.006668      0.004947     -0.011616
     9   Atom        0.039865     -0.036260     -0.003605
    10   Atom       -0.046340      0.049910     -0.003570
    11   Atom        0.006651      0.004963     -0.011614
    12   Atom        0.039897     -0.036296     -0.003601
 --------------------------------------------------------
                        XY            XZ            YZ
 --------------------------------------------------------
     1   Atom       -0.008561      0.000482      0.000072
     2   Atom        0.013724      0.000001      0.000003
     3   Atom       -0.005473     -0.000425     -0.000406
     4   Atom       -0.008530     -0.000237     -0.000240
     5   Atom        0.013724      0.000027     -0.000035
     6   Atom       -0.005512      0.000189      0.000321
     7   Atom        0.006042      0.000017      0.000002
     8   Atom       -0.002990     -0.000006      0.000007
     9   Atom        0.029758      0.000025     -0.000004
    10   Atom        0.006078     -0.000008      0.000014
    11   Atom       -0.002995      0.000003     -0.000006
    12   Atom        0.029755     -0.000007      0.000007
 --------------------------------------------------------


 ---------------------------------------------------------------------------------
              Anisotropic Spin Dipole Couplings in Principal Axis System
 ---------------------------------------------------------------------------------

       Atom             a.u.   MegaHertz   Gauss  10(-4) cm-1        Axes

              Baa    -0.3542   -47.537   -16.962   -15.856  0.8363  0.5482 -0.0004
     1 C(13)  Bbb    -0.3356   -45.031   -16.068   -15.021 -0.5482  0.8363  0.0002
              Bcc     0.6898    92.567    33.030    30.877  0.0005  0.0001  1.0000
 
              Baa    -0.0951   -12.768    -4.556    -4.259  0.0000  0.0000  1.0000
     2 C(13)  Bbb     0.0333     4.474     1.597     1.492  0.7952 -0.6063  0.0000
              Bcc     0.0618     8.294     2.959     2.766  0.6063  0.7952  0.0000
 
              Baa    -0.3524   -47.290   -16.874   -15.774  0.3076  0.9515  0.0005
     3 C(13)  Bbb    -0.3337   -44.781   -15.979   -14.937  0.9515 -0.3076  0.0003
              Bcc     0.6861    92.070    32.853    30.711 -0.0004 -0.0004  1.0000
 
              Baa    -0.3541   -47.518   -16.956   -15.850  0.8374  0.5466  0.0003
     4 C(13)  Bbb    -0.3355   -45.017   -16.063   -15.016 -0.5466  0.8374  0.0001
              Bcc     0.6896    92.535    33.019    30.866 -0.0002 -0.0002  1.0000
 
              Baa    -0.0952   -12.769    -4.556    -4.259 -0.0002  0.0003  1.0000
     5 C(13)  Bbb     0.0334     4.476     1.597     1.493  0.7947 -0.6070  0.0003
              Bcc     0.0618     8.293     2.959     2.766  0.6070  0.7947 -0.0001
 
              Baa    -0.3526   -47.309   -16.881   -15.781  0.3094  0.9509 -0.0004
     6 C(13)  Bbb    -0.3338   -44.795   -15.984   -14.942  0.9509 -0.3094 -0.0001
              Bcc     0.6864    92.104    32.865    30.723  0.0002  0.0003  1.0000
 
              Baa    -0.0467   -24.943    -8.900    -8.320  0.9981 -0.0624 -0.0004
     7 H(1)   Bbb    -0.0036    -1.902    -0.679    -0.635  0.0004 -0.0001  1.0000
              Bcc     0.0503    26.846     9.579     8.955  0.0624  0.9981  0.0001
 
              Baa    -0.0116    -6.198    -2.212    -2.067  0.0003 -0.0004  1.0000
     8 H(1)   Bbb     0.0027     1.439     0.513     0.480  0.6014  0.7989  0.0001
              Bcc     0.0089     4.759     1.698     1.587  0.7989 -0.6014 -0.0004
 
              Baa    -0.0465   -24.817    -8.855    -8.278 -0.3257  0.9455  0.0003
     9 H(1)   Bbb    -0.0036    -1.923    -0.686    -0.642 -0.0003 -0.0004  1.0000
              Bcc     0.0501    26.740     9.541     8.919  0.9455  0.3257  0.0004
 
              Baa    -0.0467   -24.929    -8.895    -8.315  0.9980 -0.0628  0.0002
    10 H(1)   Bbb    -0.0036    -1.905    -0.680    -0.635 -0.0002 -0.0002  1.0000
              Bcc     0.0503    26.834     9.575     8.951  0.0628  0.9980  0.0002
 
              Baa    -0.0116    -6.197    -2.211    -2.067 -0.0001  0.0004  1.0000
    11 H(1)   Bbb     0.0027     1.438     0.513     0.480  0.6036  0.7973 -0.0002
              Bcc     0.0089     4.758     1.698     1.587  0.7973 -0.6036  0.0003
 
              Baa    -0.0465   -24.831    -8.860    -8.283 -0.3255  0.9455 -0.0002
    12 H(1)   Bbb    -0.0036    -1.921    -0.686    -0.641  0.0000  0.0002  1.0000
              Bcc     0.0501    26.752     9.546     8.924  0.9455  0.3255 -0.0001
 

 ---------------------------------------------------------------------------------

 Calling FoFJK, ICntrl=      2527 FMM=F ISym2X=0 I1Cent= 0 IOpClX= 0 NMat=1 NMatS=1 NMatT=0.
 ***** Axes restored to original set *****
 -------------------------------------------------------------------
 Center     Atomic                   Forces (Hartrees/Bohr)
 Number     Number              X              Y              Z
 -------------------------------------------------------------------
      1        6           0.047557504   -0.070297717    0.000020545
      2        6          -0.002030739    0.004009938    0.000096073
      3        6           0.036806872   -0.076115984    0.000036312
      4        6          -0.047075990    0.069923401   -0.000063857
      5        6           0.001644875   -0.004212232    0.000029794
      6        6          -0.036873449    0.076766322   -0.000073417
      7        1           0.003701044    0.003321141   -0.000001032
      8        1          -0.002247036    0.003932429   -0.000038610
      9        1          -0.004776767   -0.001555035    0.000002083
     10        1          -0.003744477   -0.003346815   -0.000016704
     11        1           0.002310447   -0.003973873    0.000010303
     12        1           0.004727717    0.001548424   -0.000001490
 -------------------------------------------------------------------
 Cartesian Forces:  Max     0.076766322 RMS     0.028329547

 GradGradGradGradGradGradGradGradGradGradGradGradGradGradGradGradGradGrad
 Berny optimization.
 FormGI is forming the generalized inverse of G from B-inverse, IUseBI=4.
 Internal  Forces:  Max     0.079173337 RMS     0.015623584
 Search for a local minimum.
 Step number   1 out of a maximum of   64
 All quantities printed in internal units (Hartrees-Bohrs-Radians)
 Mixed Optimization -- RFO/linear search
 Second derivative matrix not updated -- first step.
 ITU=  0
     Eigenvalues ---    0.02152   0.02153   0.02154   0.02155   0.02155
     Eigenvalues ---    0.02155   0.02155   0.02156   0.02157   0.16000
     Eigenvalues ---    0.16000   0.16000   0.16000   0.16000   0.16000
     Eigenvalues ---    0.22000   0.22000   0.22000   0.33709   0.33718
     Eigenvalues ---    0.33718   0.33720   0.33725   0.33726   0.42106
     Eigenvalues ---    0.42123   0.46412   0.46453   0.46466   0.46497
 RFO step:  Lambda=-2.69991272D-02 EMin= 2.15189816D-02
 Linear search not attempted -- first point.
 Iteration  1 RMS(Cart)=  0.03949084 RMS(Int)=  0.00003007
 Iteration  2 RMS(Cart)=  0.00003428 RMS(Int)=  0.00000036
 Iteration  3 RMS(Cart)=  0.00000000 RMS(Int)=  0.00000036
 Variable       Old X    -DE/DX   Delta X   Delta X   Delta X     New X
                                 (Linear)    (Quad)   (Total)
    R1        2.63647  -0.01164   0.00000  -0.02367  -0.02367   2.61280
    R2        2.63584   0.07917   0.00000   0.16099   0.16099   2.79683
    R3        2.07796  -0.00473   0.00000  -0.01298  -0.01298   2.06499
    R4        2.63562  -0.01192   0.00000  -0.02423  -0.02423   2.61139
    R5        2.07805  -0.00453   0.00000  -0.01244  -0.01244   2.06561
    R6        2.63697   0.07872   0.00000   0.16035   0.16035   2.79732
    R7        2.07809  -0.00478   0.00000  -0.01312  -0.01312   2.06498
    R8        2.63584  -0.01143   0.00000  -0.02325  -0.02325   2.61258
    R9        2.07809  -0.00477   0.00000  -0.01310  -0.01310   2.06499
   R10        2.63643  -0.01220   0.00000  -0.02481  -0.02481   2.61161
   R11        2.07825  -0.00460   0.00000  -0.01263  -0.01263   2.06562
   R12        2.07795  -0.00473   0.00000  -0.01298  -0.01298   2.06497
    A1        2.09437   0.00056   0.00000   0.00236   0.00236   2.09673
    A2        2.09435  -0.00188   0.00000  -0.00971  -0.00971   2.08464
    A3        2.09447   0.00131   0.00000   0.00734   0.00734   2.10181
    A4        2.09455  -0.00116   0.00000  -0.00466  -0.00466   2.08988
    A5        2.09406   0.00059   0.00000   0.00238   0.00238   2.09644
    A6        2.09458   0.00057   0.00000   0.00228   0.00228   2.09686
    A7        2.09429   0.00058   0.00000   0.00227   0.00227   2.09657
    A8        2.09462  -0.00192   0.00000  -0.00983  -0.00983   2.08479
    A9        2.09427   0.00134   0.00000   0.00756   0.00756   2.10183
   A10        2.09429   0.00061   0.00000   0.00239   0.00239   2.09668
   A11        2.09407   0.00131   0.00000   0.00746   0.00746   2.10152
   A12        2.09483  -0.00192   0.00000  -0.00985  -0.00985   2.08498
   A13        2.09448  -0.00113   0.00000  -0.00460  -0.00460   2.08987
   A14        2.09459   0.00054   0.00000   0.00217   0.00217   2.09677
   A15        2.09411   0.00059   0.00000   0.00243   0.00243   2.09654
   A16        2.09440   0.00054   0.00000   0.00224   0.00224   2.09663
   A17        2.09453   0.00135   0.00000   0.00755   0.00755   2.10208
   A18        2.09426  -0.00189   0.00000  -0.00978  -0.00978   2.08447
    D1        0.00056  -0.00001   0.00000  -0.00030  -0.00030   0.00027
    D2        3.14078   0.00002   0.00000   0.00031   0.00031   3.14108
    D3       -3.14112  -0.00001   0.00000  -0.00028  -0.00028  -3.14140
    D4       -0.00091   0.00002   0.00000   0.00033   0.00033  -0.00058
    D5        0.00026   0.00000   0.00000  -0.00001  -0.00001   0.00025
    D6        3.14140   0.00001   0.00000   0.00008   0.00008   3.14148
    D7       -3.14124   0.00000   0.00000  -0.00003  -0.00003  -3.14127
    D8       -0.00010   0.00000   0.00000   0.00006   0.00006  -0.00004
    D9       -0.00099   0.00002   0.00000   0.00035   0.00035  -0.00064
   D10        3.14093   0.00002   0.00000   0.00028   0.00028   3.14120
   D11       -3.14120  -0.00001   0.00000  -0.00025  -0.00025  -3.14146
   D12        0.00072  -0.00001   0.00000  -0.00033  -0.00033   0.00039
   D13        0.00060   0.00000   0.00000  -0.00007  -0.00007   0.00052
   D14       -3.14153   0.00000   0.00000   0.00003   0.00003  -3.14150
   D15       -3.14132   0.00000   0.00000   0.00000   0.00000  -3.14132
   D16       -0.00026   0.00001   0.00000   0.00010   0.00010  -0.00016
   D17        0.00023  -0.00001   0.00000  -0.00023  -0.00023   0.00000
   D18       -3.14158   0.00000   0.00000  -0.00003  -0.00003   3.14157
   D19       -3.14083  -0.00001   0.00000  -0.00033  -0.00033  -3.14116
   D20        0.00054   0.00000   0.00000  -0.00013  -0.00013   0.00041
   D21       -0.00066   0.00002   0.00000   0.00028   0.00028  -0.00037
   D22        3.14138   0.00001   0.00000   0.00019   0.00019   3.14158
   D23        3.14116   0.00001   0.00000   0.00008   0.00008   3.14124
   D24        0.00001   0.00000   0.00000  -0.00001  -0.00001   0.00000
         Item               Value     Threshold  Converged?
 Maximum Force            0.079173     0.000450     NO 
 RMS     Force            0.015624     0.000300     NO 
 Maximum Displacement     0.097358     0.001800     NO 
 RMS     Displacement     0.039464     0.001200     NO 
 Predicted change in Energy=-1.425042D-02
 GradGradGradGradGradGradGradGradGradGradGradGradGradGradGradGradGradGrad

                          Input orientation:                          
 ---------------------------------------------------------------------
 Center     Atomic      Atomic             Coordinates (Angstroms)
 Number     Number       Type             X           Y           Z
 ---------------------------------------------------------------------
      1          6           0       -0.013827    0.429698    0.000040
      2          6           0        1.368803    0.426487    0.000257
      3          6           0        2.057128    1.624748    0.000050
      4          6           0        1.316965    2.906694   -0.001222
      5          6           0       -0.065551    2.909828   -0.001584
      6          6           0       -0.753856    1.711421   -0.000754
      7          1           0       -0.553148   -0.520681    0.000392
      8          1           0        1.915075   -0.520296    0.001324
      9          1           0        3.149836    1.616641    0.000594
     10          1           0        1.856560    3.856922   -0.001473
     11          1           0       -0.612190    3.856405   -0.002505
     12          1           0       -1.846560    1.719801   -0.001031
 ---------------------------------------------------------------------
                    Distance matrix (angstroms):
                    1          2          3          4          5
     1  C    0.000000
     2  C    1.382634   0.000000
     3  C    2.391025   1.381891   0.000000
     4  C    2.811853   2.480750   1.480280   0.000000
     5  C    2.480669   2.867814   2.481370   1.382520   0.000000
     6  C    1.480019   2.481277   2.812319   2.391020   1.382007
     7  H    1.092744   2.142668   3.378818   3.904386   3.464989
     8  H    2.150153   1.093075   2.149743   3.478794   3.960889
     9  H    3.378994   2.142089   1.092739   2.241352   3.465697
    10  H    3.904384   3.464938   2.241167   1.092747   2.142778
    11  H    3.478558   3.960894   3.479304   2.150254   1.093080
    12  H    2.241267   3.465721   3.904845   3.378846   2.141998
                    6          7          8          9         10
     6  C    0.000000
     7  H    2.241108   0.000000
     8  H    3.479045   2.468224   0.000000
     9  H    3.904843   4.275540   2.468023   0.000000
    10  H    3.378971   4.997010   4.377610   2.586779   0.000000
    11  H    2.149658   4.377485   5.053969   4.378287   2.468750
    12  H    1.092736   2.587021   4.378121   4.997461   4.275556
                   11         12
    11  H    0.000000
    12  H    2.467538   0.000000
 Stoichiometry    C6H6(3)
 Framework group  C1[X(C6H6)]
 Deg. of freedom    30
 Full point group                 C1      NOp   1
 Largest Abelian subgroup         C1      NOp   1
 Largest concise Abelian subgroup C1      NOp   1
                         Standard orientation:                         
 ---------------------------------------------------------------------
 Center     Atomic      Atomic             Coordinates (Angstroms)
 Number     Number       Type             X           Y           Z
 ---------------------------------------------------------------------
      1          6           0        0.736324   -1.197656   -0.000029
      2          6           0        1.433899   -0.003894   -0.000201
      3          6           0        0.743819    1.193357    0.000153
      4          6           0       -0.736454    1.197640   -0.000106
      5          6           0       -1.433904    0.003938   -0.000080
      6          6           0       -0.743688   -1.193369    0.000189
      7          1           0        1.286971   -2.141518   -0.000125
      8          1           0        2.526968   -0.007382    0.000117
      9          1           0        1.299936    2.134002    0.000387
     10          1           0       -1.286832    2.141663    0.000090
     11          1           0       -2.526980    0.007006   -0.000252
     12          1           0       -1.300039   -2.133872    0.000223
 ---------------------------------------------------------------------
 Rotational constants (GHZ):      5.8071429      5.3057059      2.7725558
 Standard basis: 6-311+G(3df,2pd) (5D, 7F)
 There are   360 symmetry adapted cartesian basis functions of A   symmetry.
 There are   318 symmetry adapted basis functions of A   symmetry.
   318 basis functions,   450 primitive gaussians,   360 cartesian basis functions
    22 alpha electrons       20 beta electrons
       nuclear repulsion energy       200.8878818617 Hartrees.
 NAtoms=   12 NActive=   12 NUniq=   12 SFac= 1.00D+00 NAtFMM=   60 NAOKFM=F Big=F
 Integral buffers will be    131072 words long.
 Raffenetti 2 integral format.
 Two-electron integral symmetry is turned on.
 One-electron integrals computed using PRISM.
 NBasis=   318 RedAO= T EigKep=  2.32D-06  NBF=   318
 NBsUse=   318 1.00D-06 EigRej= -1.00D+00 NBFU=   318
 Initial guess from the checkpoint file:  "Benzene.chk"
 B after Tr=     0.000000    0.000000    0.000000
         Rot=    0.948031    0.000000    0.000000   -0.318177 Ang=  37.11 deg.
 Initial guess <Sx>= 0.0000 <Sy>= 0.0000 <Sz>= 1.0000 <S**2>= 2.0116 S= 1.0039
 ExpMin= 4.38D-02 ExpMax= 4.56D+03 ExpMxC= 6.82D+02 IAcc=2 IRadAn=         4 AccDes= 0.00D+00
 Harris functional with IExCor=  201 and IRadAn=       4 diagonalized for initial guess.
 HarFok:  IExCor=  201 AccDes= 0.00D+00 IRadAn=         4 IDoV= 1 UseB2=F ITyADJ=14
 ICtDFT=  3500011 ScaDFX=  1.000000  1.000000  1.000000  1.000000
 FoFCou: FMM=F IPFlag=           0 FMFlag=      100000 FMFlg1=           0
         NFxFlg=           0 DoJE=T BraDBF=F KetDBF=T FulRan=T
         wScrn=  0.000000 ICntrl=     500 IOpCl=  0 I1Cent=   200000004 NGrid=           0
         NMat0=    1 NMatS0=      1 NMatT0=    0 NMatD0=    1 NMtDS0=    0 NMtDT0=    0
 Petite list used in FoFCou.
 Requested convergence on RMS density matrix=1.00D-08 within 128 cycles.
 Requested convergence on MAX density matrix=1.00D-06.
 Requested convergence on             energy=1.00D-06.
 No special actions if energy rises.
 SCF Done:  E(US-VWN5) =  -230.017291454     A.U. after   12 cycles
            NFock= 12  Conv=0.40D-08     -V/T= 2.0067
 <Sx>= 0.0000 <Sy>= 0.0000 <Sz>= 1.0000 <S**2>= 2.0119 S= 1.0040
 <L.S>= 0.000000000000E+00
 Annihilation of the first spin contaminant:
 S**2 before annihilation     2.0119,   after     2.0001
 Calling FoFJK, ICntrl=      2527 FMM=F ISym2X=0 I1Cent= 0 IOpClX= 0 NMat=1 NMatS=1 NMatT=0.
 ***** Axes restored to original set *****
 -------------------------------------------------------------------
 Center     Atomic                   Forces (Hartrees/Bohr)
 Number     Number              X              Y              Z
 -------------------------------------------------------------------
      1        6           0.009095977   -0.015077877   -0.000002643
      2        6          -0.004986619    0.008643543    0.000046836
      3        6           0.008388136   -0.015350967   -0.000007507
      4        6          -0.008945645    0.014966786   -0.000003400
      5        6           0.004862500   -0.008713544    0.000013042
      6        6          -0.008413478    0.015533097   -0.000027966
      7        1          -0.001628733    0.001803562   -0.000000162
      8        1           0.000014849   -0.000005661   -0.000019343
      9        1          -0.000740278    0.002324344    0.000001222
     10        1           0.001606626   -0.001795295   -0.000009118
     11        1           0.000010071    0.000015703    0.000005848
     12        1           0.000736592   -0.002343690    0.000003192
 -------------------------------------------------------------------
 Cartesian Forces:  Max     0.015533097 RMS     0.006357481

 GradGradGradGradGradGradGradGradGradGradGradGradGradGradGradGradGradGrad
 Berny optimization.
 Using GEDIIS/GDIIS optimizer.
 FormGI is forming the generalized inverse of G from B-inverse, IUseBI=4.
 Internal  Forces:  Max     0.010242486 RMS     0.002549242
 Search for a local minimum.
 Step number   2 out of a maximum of   64
 All quantities printed in internal units (Hartrees-Bohrs-Radians)
 Mixed Optimization -- RFO/linear search
 Update second derivatives using D2CorX and points    1    2
 DE= -1.44D-02 DEPred=-1.43D-02 R= 1.01D+00
 TightC=F SS=  1.41D+00  RLast= 2.36D-01 DXNew= 5.0454D-01 7.0752D-01
 Trust test= 1.01D+00 RLast= 2.36D-01 DXMaxT set to 5.05D-01
 ITU=  1  0
 Use linear search instead of GDIIS.
     Eigenvalues ---    0.02152   0.02153   0.02154   0.02155   0.02155
     Eigenvalues ---    0.02155   0.02155   0.02156   0.02157   0.16000
     Eigenvalues ---    0.16000   0.16000   0.16000   0.16000   0.16110
     Eigenvalues ---    0.21815   0.22000   0.22000   0.33680   0.33714
     Eigenvalues ---    0.33718   0.33722   0.33726   0.33763   0.42021
     Eigenvalues ---    0.42399   0.43092   0.46451   0.46467   0.46629
 RFO step:  Lambda=-9.30847368D-04 EMin= 2.15184347D-02
 Quartic linear search produced a step of  0.17614.
 Iteration  1 RMS(Cart)=  0.00744113 RMS(Int)=  0.00005712
 Iteration  2 RMS(Cart)=  0.00009031 RMS(Int)=  0.00000108
 Iteration  3 RMS(Cart)=  0.00000000 RMS(Int)=  0.00000108
 Variable       Old X    -DE/DX   Delta X   Delta X   Delta X     New X
                                 (Linear)    (Quad)   (Total)
    R1        2.61280  -0.00238  -0.00417  -0.00324  -0.00740   2.60540
    R2        2.79683   0.01024   0.02836   0.00705   0.03540   2.83223
    R3        2.06499  -0.00076  -0.00229  -0.00126  -0.00355   2.06144
    R4        2.61139  -0.00238  -0.00427  -0.00318  -0.00745   2.60394
    R5        2.06561   0.00001  -0.00219   0.00138  -0.00081   2.06480
    R6        2.79732   0.01013   0.02824   0.00688   0.03512   2.83245
    R7        2.06498  -0.00076  -0.00231  -0.00122  -0.00353   2.06145
    R8        2.61258  -0.00231  -0.00410  -0.00311  -0.00721   2.60538
    R9        2.06499  -0.00077  -0.00231  -0.00126  -0.00357   2.06143
   R10        2.61161  -0.00245  -0.00437  -0.00330  -0.00767   2.60395
   R11        2.06562   0.00001  -0.00222   0.00139  -0.00083   2.06479
   R12        2.06497  -0.00075  -0.00229  -0.00123  -0.00351   2.06146
    A1        2.09673  -0.00203   0.00042  -0.01100  -0.01059   2.08614
    A2        2.08464   0.00340  -0.00171   0.02352   0.02181   2.10645
    A3        2.10181  -0.00137   0.00129  -0.01252  -0.01123   2.09059
    A4        2.08988   0.00402  -0.00082   0.02185   0.02102   2.11091
    A5        2.09644  -0.00200   0.00042  -0.01086  -0.01044   2.08600
    A6        2.09686  -0.00202   0.00040  -0.01098  -0.01058   2.08628
    A7        2.09657  -0.00199   0.00040  -0.01084  -0.01044   2.08613
    A8        2.08479   0.00339  -0.00173   0.02352   0.02179   2.10658
    A9        2.10183  -0.00140   0.00133  -0.01269  -0.01135   2.09048
   A10        2.09668  -0.00202   0.00042  -0.01100  -0.01058   2.08610
   A11        2.10152  -0.00135   0.00131  -0.01236  -0.01104   2.09048
   A12        2.08498   0.00337  -0.00173   0.02336   0.02162   2.10660
   A13        2.08987   0.00403  -0.00081   0.02185   0.02104   2.11091
   A14        2.09677  -0.00203   0.00038  -0.01105  -0.01067   2.08610
   A15        2.09654  -0.00199   0.00043  -0.01080  -0.01037   2.08617
   A16        2.09663  -0.00200   0.00039  -0.01085  -0.01046   2.08617
   A17        2.10208  -0.00141   0.00133  -0.01282  -0.01149   2.09059
   A18        2.08447   0.00341  -0.00172   0.02367   0.02195   2.10642
    D1        0.00027  -0.00001  -0.00005  -0.00051  -0.00057  -0.00030
    D2        3.14108   0.00001   0.00005   0.00058   0.00064  -3.14146
    D3       -3.14140  -0.00001  -0.00005  -0.00047  -0.00052   3.14127
    D4       -0.00058   0.00001   0.00006   0.00063   0.00069   0.00011
    D5        0.00025   0.00000   0.00000  -0.00003  -0.00004   0.00022
    D6        3.14148   0.00000   0.00001   0.00019   0.00020  -3.14150
    D7       -3.14127   0.00000   0.00000  -0.00008  -0.00009  -3.14135
    D8       -0.00004   0.00000   0.00001   0.00014   0.00015   0.00012
    D9       -0.00064   0.00001   0.00006   0.00064   0.00070   0.00006
   D10        3.14120   0.00001   0.00005   0.00047   0.00052  -3.14147
   D11       -3.14146  -0.00001  -0.00004  -0.00046  -0.00050   3.14123
   D12        0.00039  -0.00001  -0.00006  -0.00063  -0.00069  -0.00030
   D13        0.00052   0.00000  -0.00001  -0.00024  -0.00025   0.00027
   D14       -3.14150   0.00000   0.00000   0.00005   0.00005  -3.14145
   D15       -3.14132   0.00000   0.00000  -0.00006  -0.00006  -3.14138
   D16       -0.00016   0.00000   0.00002   0.00022   0.00024   0.00007
   D17        0.00000   0.00000  -0.00004  -0.00032  -0.00036  -0.00036
   D18        3.14157   0.00000   0.00000  -0.00008  -0.00008   3.14149
   D19       -3.14116  -0.00001  -0.00006  -0.00059  -0.00065   3.14137
   D20        0.00041  -0.00001  -0.00002  -0.00035  -0.00038   0.00003
   D21       -0.00037   0.00001   0.00005   0.00044   0.00049   0.00012
   D22        3.14158   0.00000   0.00003   0.00023   0.00026  -3.14135
   D23        3.14124   0.00000   0.00001   0.00021   0.00022   3.14146
   D24        0.00000   0.00000   0.00000  -0.00001  -0.00001  -0.00001
         Item               Value     Threshold  Converged?
 Maximum Force            0.010242     0.000450     NO 
 RMS     Force            0.002549     0.000300     NO 
 Maximum Displacement     0.018921     0.001800     NO 
 RMS     Displacement     0.007388     0.001200     NO 
 Predicted change in Energy=-6.658474D-04
 GradGradGradGradGradGradGradGradGradGradGradGradGradGradGradGradGradGrad

                          Input orientation:                          
 ---------------------------------------------------------------------
 Center     Atomic      Atomic             Coordinates (Angstroms)
 Number     Number       Type             X           Y           Z
 ---------------------------------------------------------------------
      1          6           0       -0.012489    0.419686    0.000079
      2          6           0        1.366180    0.430991    0.000692
      3          6           0        2.065051    1.618559    0.000084
      4          6           0        1.315680    2.916650   -0.001182
      5          6           0       -0.062979    2.905281   -0.001393
      6          6           0       -0.761800    1.717682   -0.000878
      7          1           0       -0.561562   -0.522922    0.000262
      8          1           0        1.912315   -0.515378    0.001266
      9          1           0        3.155913    1.622780    0.000452
     10          1           0        1.864847    3.859194   -0.001798
     11          1           0       -0.609251    3.851561   -0.002216
     12          1           0       -1.852670    1.713584   -0.001278
 ---------------------------------------------------------------------
                    Distance matrix (angstroms):
                    1          2          3          4          5
     1  C    0.000000
     2  C    1.378716   0.000000
     3  C    2.398639   1.377948   0.000000
     4  C    2.828226   2.486173   1.498866   0.000000
     5  C    2.486109   2.857379   2.486799   1.378706   0.000000
     6  C    1.498753   2.486740   2.828589   2.398634   1.377949
     7  H    1.090867   2.150846   3.388958   3.918506   3.464270
     8  H    2.139911   1.092647   2.139397   3.483503   3.950026
     9  H    3.389131   2.150234   1.090870   2.249569   3.464979
    10  H    3.918496   3.464282   2.249562   1.090860   2.150922
    11  H    3.483375   3.950018   3.483991   2.139958   1.092639
    12  H    2.249543   3.464974   3.918874   3.389072   2.150148
                    6          7          8          9         10
     6  C    0.000000
     7  H    2.249534   0.000000
     8  H    3.483885   2.473888   0.000000
     9  H    3.918862   4.292279   2.473511   0.000000
    10  H    3.389004   5.009032   4.374831   2.582325   0.000000
    11  H    2.139326   4.374744   5.042665   4.375378   2.474110
    12  H    1.090878   2.582426   4.375316   5.009406   4.292269
                   11         12
    11  H    0.000000
    12  H    2.473264   0.000000
 Stoichiometry    C6H6(3)
 Framework group  C1[X(C6H6)]
 Deg. of freedom    30
 Full point group                 C1      NOp   1
 Largest Abelian subgroup         C1      NOp   1
 Largest concise Abelian subgroup C1      NOp   1
                         Standard orientation:                         
 ---------------------------------------------------------------------
 Center     Atomic      Atomic             Coordinates (Angstroms)
 Number     Number       Type             X           Y           Z
 ---------------------------------------------------------------------
      1          6           0        0.745508   -1.201616   -0.000078
      2          6           0        1.428685   -0.004066    0.000107
      3          6           0        0.753293    1.197011    0.000056
      4          6           0       -0.745565    1.201625   -0.000125
      5          6           0       -1.428682    0.004052    0.000092
      6          6           0       -0.753238   -1.196997    0.000050
      7          1           0        1.284422   -2.150068   -0.000339
      8          1           0        2.521327   -0.007595   -0.000110
      9          1           0        1.297936    2.142189    0.000084
     10          1           0       -1.284377    2.150127   -0.000296
     11          1           0       -2.521316    0.007418    0.000060
     12          1           0       -1.297992   -2.142121   -0.000009
 ---------------------------------------------------------------------
 Rotational constants (GHZ):      5.7685599      5.2930640      2.7602961
 Standard basis: 6-311+G(3df,2pd) (5D, 7F)
 There are   360 symmetry adapted cartesian basis functions of A   symmetry.
 There are   318 symmetry adapted basis functions of A   symmetry.
   318 basis functions,   450 primitive gaussians,   360 cartesian basis functions
    22 alpha electrons       20 beta electrons
       nuclear repulsion energy       200.5354047841 Hartrees.
 NAtoms=   12 NActive=   12 NUniq=   12 SFac= 1.00D+00 NAtFMM=   60 NAOKFM=F Big=F
 Integral buffers will be    131072 words long.
 Raffenetti 2 integral format.
 Two-electron integral symmetry is turned on.
 One-electron integrals computed using PRISM.
 NBasis=   318 RedAO= T EigKep=  2.42D-06  NBF=   318
 NBsUse=   318 1.00D-06 EigRej= -1.00D+00 NBFU=   318
 Initial guess from the checkpoint file:  "Benzene.chk"
 B after Tr=     0.000000    0.000000    0.000000
         Rot=    1.000000    0.000000    0.000000    0.000065 Ang=  -0.01 deg.
 Initial guess <Sx>= 0.0000 <Sy>= 0.0000 <Sz>= 1.0000 <S**2>= 2.0118 S= 1.0039
 Requested convergence on RMS density matrix=1.00D-08 within 128 cycles.
 Requested convergence on MAX density matrix=1.00D-06.
 Requested convergence on             energy=1.00D-06.
 No special actions if energy rises.
 SCF Done:  E(US-VWN5) =  -230.018154985     A.U. after   10 cycles
            NFock= 10  Conv=0.54D-08     -V/T= 2.0068
 <Sx>= 0.0000 <Sy>= 0.0000 <Sz>= 1.0000 <S**2>= 2.0119 S= 1.0040
 <L.S>= 0.000000000000E+00
 Annihilation of the first spin contaminant:
 S**2 before annihilation     2.0119,   after     2.0001
 Calling FoFJK, ICntrl=      2527 FMM=F ISym2X=0 I1Cent= 0 IOpClX= 0 NMat=1 NMatS=1 NMatT=0.
 ***** Axes restored to original set *****
 -------------------------------------------------------------------
 Center     Atomic                   Forces (Hartrees/Bohr)
 Number     Number              X              Y              Z
 -------------------------------------------------------------------
      1        6           0.001431886   -0.002003508    0.000007041
      2        6          -0.001464781    0.002495882   -0.000030712
      3        6           0.000987027   -0.002184096    0.000005206
      4        6          -0.001397943    0.001955800    0.000011694
      5        6           0.001456628   -0.002502057   -0.000016215
      6        6          -0.001015844    0.002230858    0.000003164
      7        1          -0.000760724    0.000287134    0.000000365
      8        1           0.000473726   -0.000813372    0.000012381
      9        1           0.000137534    0.000804570    0.000000819
     10        1           0.000753901   -0.000279080    0.000000324
     11        1          -0.000468018    0.000823077    0.000001366
     12        1          -0.000133394   -0.000815209    0.000004569
 -------------------------------------------------------------------
 Cartesian Forces:  Max     0.002502057 RMS     0.001115473

 GradGradGradGradGradGradGradGradGradGradGradGradGradGradGradGradGradGrad
 Berny optimization.
 Using GEDIIS/GDIIS optimizer.
 FormGI is forming the generalized inverse of G from B-inverse, IUseBI=4.
 Internal  Forces:  Max     0.001031959 RMS     0.000463327
 Search for a local minimum.
 Step number   3 out of a maximum of   64
 All quantities printed in internal units (Hartrees-Bohrs-Radians)
 Mixed Optimization -- En-DIIS/RFO-DIIS
 Update second derivatives using D2CorX and points    1    2    3
 DE= -8.64D-04 DEPred=-6.66D-04 R= 1.30D+00
 TightC=F SS=  1.41D+00  RLast= 8.33D-02 DXNew= 8.4853D-01 2.4995D-01
 Trust test= 1.30D+00 RLast= 8.33D-02 DXMaxT set to 5.05D-01
 ITU=  1  1  0
 Use linear search instead of GDIIS.
     Eigenvalues ---    0.02152   0.02153   0.02154   0.02155   0.02155
     Eigenvalues ---    0.02155   0.02156   0.02156   0.02157   0.14044
     Eigenvalues ---    0.16000   0.16000   0.16000   0.16000   0.16000
     Eigenvalues ---    0.20765   0.22000   0.22000   0.33465   0.33714
     Eigenvalues ---    0.33718   0.33722   0.33726   0.33925   0.39845
     Eigenvalues ---    0.42089   0.42371   0.46451   0.46467   0.46607
 RFO step:  Lambda=-2.57168980D-05 EMin= 2.15188058D-02
 Quartic linear search produced a step of  0.20220.
 Iteration  1 RMS(Cart)=  0.00293280 RMS(Int)=  0.00000800
 Iteration  2 RMS(Cart)=  0.00000968 RMS(Int)=  0.00000038
 Iteration  3 RMS(Cart)=  0.00000000 RMS(Int)=  0.00000038
 Variable       Old X    -DE/DX   Delta X   Delta X   Delta X     New X
                                 (Linear)    (Quad)   (Total)
    R1        2.60540  -0.00025  -0.00150   0.00031  -0.00119   2.60421
    R2        2.83223   0.00083   0.00716  -0.00167   0.00549   2.83772
    R3        2.06144   0.00013  -0.00072   0.00088   0.00016   2.06160
    R4        2.60394  -0.00022  -0.00151   0.00038  -0.00113   2.60282
    R5        2.06480   0.00094  -0.00016   0.00324   0.00308   2.06788
    R6        2.83245   0.00079   0.00710  -0.00174   0.00537   2.83781
    R7        2.06145   0.00014  -0.00071   0.00089   0.00018   2.06162
    R8        2.60538  -0.00024  -0.00146   0.00030  -0.00116   2.60422
    R9        2.06143   0.00014  -0.00072   0.00089   0.00017   2.06160
   R10        2.60395  -0.00022  -0.00155   0.00041  -0.00114   2.60281
   R11        2.06479   0.00095  -0.00017   0.00327   0.00310   2.06789
   R12        2.06146   0.00014  -0.00071   0.00088   0.00017   2.06163
    A1        2.08614  -0.00040  -0.00214  -0.00022  -0.00236   2.08378
    A2        2.10645   0.00103   0.00441   0.00319   0.00760   2.11405
    A3        2.09059  -0.00063  -0.00227  -0.00297  -0.00524   2.08535
    A4        2.11091   0.00078   0.00425   0.00041   0.00466   2.11557
    A5        2.08600  -0.00039  -0.00211  -0.00020  -0.00231   2.08368
    A6        2.08628  -0.00039  -0.00214  -0.00021  -0.00235   2.08393
    A7        2.08613  -0.00038  -0.00211  -0.00018  -0.00230   2.08383
    A8        2.10658   0.00102   0.00441   0.00315   0.00755   2.11413
    A9        2.09048  -0.00064  -0.00230  -0.00296  -0.00526   2.08522
   A10        2.08610  -0.00039  -0.00214  -0.00020  -0.00234   2.08376
   A11        2.09048  -0.00062  -0.00223  -0.00293  -0.00516   2.08532
   A12        2.10660   0.00101   0.00437   0.00313   0.00750   2.11411
   A13        2.11091   0.00077   0.00425   0.00041   0.00466   2.11557
   A14        2.08610  -0.00040  -0.00216  -0.00024  -0.00240   2.08370
   A15        2.08617  -0.00038  -0.00210  -0.00016  -0.00226   2.08391
   A16        2.08617  -0.00039  -0.00211  -0.00020  -0.00232   2.08386
   A17        2.09059  -0.00064  -0.00232  -0.00301  -0.00533   2.08526
   A18        2.10642   0.00103   0.00444   0.00321   0.00765   2.11407
    D1       -0.00030   0.00000  -0.00011   0.00030   0.00019  -0.00011
    D2       -3.14146  -0.00001   0.00013  -0.00035  -0.00022   3.14150
    D3        3.14127   0.00001  -0.00010   0.00034   0.00024   3.14151
    D4        0.00011   0.00000   0.00014  -0.00031  -0.00017  -0.00006
    D5        0.00022   0.00000  -0.00001   0.00000   0.00000   0.00021
    D6       -3.14150   0.00000   0.00004   0.00004   0.00008  -3.14142
    D7       -3.14135   0.00000  -0.00002  -0.00004  -0.00005  -3.14141
    D8        0.00012   0.00000   0.00003   0.00000   0.00003   0.00014
    D9        0.00006   0.00000   0.00014  -0.00028  -0.00014  -0.00008
   D10       -3.14147  -0.00001   0.00010  -0.00034  -0.00023   3.14149
   D11        3.14123   0.00001  -0.00010   0.00037   0.00027   3.14149
   D12       -0.00030   0.00000  -0.00014   0.00032   0.00018  -0.00012
   D13        0.00027   0.00000  -0.00005  -0.00004  -0.00009   0.00019
   D14       -3.14145   0.00000   0.00001   0.00003   0.00004  -3.14142
   D15       -3.14138   0.00000  -0.00001   0.00001   0.00000  -3.14138
   D16        0.00007   0.00000   0.00005   0.00008   0.00013   0.00020
   D17       -0.00036   0.00001  -0.00007   0.00035   0.00027  -0.00008
   D18        3.14149   0.00000  -0.00002  -0.00002  -0.00004   3.14145
   D19        3.14137   0.00000  -0.00013   0.00028   0.00015   3.14152
   D20        0.00003   0.00000  -0.00008  -0.00009  -0.00017  -0.00013
   D21        0.00012  -0.00001   0.00010  -0.00033  -0.00023  -0.00011
   D22       -3.14135  -0.00001   0.00005  -0.00036  -0.00031   3.14153
   D23        3.14146   0.00000   0.00004   0.00004   0.00008   3.14154
   D24       -0.00001   0.00000   0.00000   0.00001   0.00000   0.00000
         Item               Value     Threshold  Converged?
 Maximum Force            0.001032     0.000450     NO 
 RMS     Force            0.000463     0.000300     NO 
 Maximum Displacement     0.009794     0.001800     NO 
 RMS     Displacement     0.002929     0.001200     NO 
 Predicted change in Energy=-3.611896D-05
 GradGradGradGradGradGradGradGradGradGradGradGradGradGradGradGradGradGrad

                          Input orientation:                          
 ---------------------------------------------------------------------
 Center     Atomic      Atomic             Coordinates (Angstroms)
 Number     Number       Type             X           Y           Z
 ---------------------------------------------------------------------
      1          6           0       -0.012683    0.417887    0.000032
      2          6           0        1.365328    0.432418    0.000528
      3          6           0        2.066646    1.617850    0.000042
      4          6           0        1.315884    2.918416   -0.001153
      5          6           0       -0.062132    2.903854   -0.001521
      6          6           0       -0.763421    1.718411   -0.000911
      7          1           0       -0.566745   -0.521895    0.000339
      8          1           0        1.912308   -0.515345    0.001304
[...]
  Beta virt. eigenvalues --    0.68650   0.68743   0.70218   0.73799   0.73962
  Beta virt. eigenvalues --    0.74015   0.77076   0.77338   0.83583   0.89270
  Beta virt. eigenvalues --    0.89528   0.92151   0.92886   0.93523   0.98713
  Beta virt. eigenvalues --    0.99750   1.01780   1.03484   1.03563   1.08128
  Beta virt. eigenvalues --    1.09052   1.09420   1.10323   1.10455   1.13185
  Beta virt. eigenvalues --    1.13928   1.15720   1.16709   1.20843   1.22256
  Beta virt. eigenvalues --    1.22574   1.22827   1.22870   1.24250   1.24460
  Beta virt. eigenvalues --    1.25067   1.25986   1.26887   1.28497   1.28883
  Beta virt. eigenvalues --    1.28979   1.33176   1.33584   1.34154   1.37556
  Beta virt. eigenvalues --    1.40069   1.40545   1.41455   1.42116   1.42988
  Beta virt. eigenvalues --    1.43040   1.47042   1.55631   1.57140   1.57572
  Beta virt. eigenvalues --    1.72598   1.76554   1.79268   1.80124   1.83095
  Beta virt. eigenvalues --    1.84649   1.88477   1.92175   1.93042   1.93717
  Beta virt. eigenvalues --    1.99747   2.02241   2.07416   2.19868   2.22760
  Beta virt. eigenvalues --    2.26767   2.27502   2.32410   2.35233   2.37964
  Beta virt. eigenvalues --    2.38888   2.46111   2.48506   2.57407   2.62759
  Beta virt. eigenvalues --    2.63592   2.64989   2.66214   2.66409   2.69046
  Beta virt. eigenvalues --    2.71074   2.71331   2.71968   2.72484   2.73061
  Beta virt. eigenvalues --    2.75373   2.76261   2.80147   2.82281   2.89190
  Beta virt. eigenvalues --    2.89823   2.92533   2.93196   2.93387   2.94758
  Beta virt. eigenvalues --    2.97213   2.97463   2.98049   2.98359   2.99431
  Beta virt. eigenvalues --    3.07707   3.09970   3.10557   3.11581   3.13383
  Beta virt. eigenvalues --    3.14607   3.14768   3.17352   3.23347   3.23977
  Beta virt. eigenvalues --    3.27757   3.29555   3.33099   3.34317   3.38181
  Beta virt. eigenvalues --    3.45076   3.48840   3.53639   3.55200   3.56667
  Beta virt. eigenvalues --    3.56882   3.61063   3.61516   3.61631   3.62962
  Beta virt. eigenvalues --    3.66260   3.70207   3.72007   3.74890   3.74957
  Beta virt. eigenvalues --    3.74972   3.80137   3.81872   3.84542   3.91729
  Beta virt. eigenvalues --    3.99048   3.99733   4.02263   4.05731   4.09029
  Beta virt. eigenvalues --    4.13039   4.17856   4.18907   4.19499   4.20659
  Beta virt. eigenvalues --    4.21918   4.23296   4.26564   4.28876   4.30074
  Beta virt. eigenvalues --    4.32284   4.33524   4.34324   4.36194   4.36769
  Beta virt. eigenvalues --    4.42181   4.45977   4.50701   4.51319   4.56671
  Beta virt. eigenvalues --    4.60425   4.61371   4.63662   4.66984   4.71249
  Beta virt. eigenvalues --    4.74654   4.77741   4.79523   4.83016   4.83766
  Beta virt. eigenvalues --    4.86606   4.88473   4.92269   5.19066   5.20193
  Beta virt. eigenvalues --    5.24646   5.26940   5.29811   5.63494   5.73388
  Beta virt. eigenvalues --    6.00849   6.02938   6.25975   6.32329   6.38817
  Beta virt. eigenvalues --    6.54234   6.59789   6.94713   6.98752   7.04289
  Beta virt. eigenvalues --    7.04391   7.05481   7.07645   7.22450   7.26162
  Beta virt. eigenvalues --    7.30285   7.33461   7.35574   7.39992   7.40033
  Beta virt. eigenvalues --    7.40924   7.50810   7.52186   7.52448   7.66811
  Beta virt. eigenvalues --    7.67772   7.72590   7.77594   7.87456   7.93371
  Beta virt. eigenvalues --    7.95147   8.11413   8.25540   8.31206   8.33772
  Beta virt. eigenvalues --    8.49055   9.13905  24.36409  24.78207  25.26167
  Beta virt. eigenvalues --   25.28174  25.63345  25.82583
          Condensed to atoms (all electrons):
               1          2          3          4          5          6
     1  C    6.142950  -0.168590  -0.234356   0.062689  -0.122932   0.168984
     2  C   -0.168590   6.082267  -0.172064  -0.122930   0.103313  -0.122498
     3  C   -0.234356  -0.172064   6.144750   0.169046  -0.122495   0.062877
     4  C    0.062689  -0.122930   0.169046   6.142969  -0.168595  -0.234355
     5  C   -0.122932   0.103313  -0.122495  -0.168595   6.082266  -0.172058
     6  C    0.168984  -0.122498   0.062877  -0.234355  -0.172058   6.144732
     7  H    0.449539  -0.098220   0.012909  -0.012596   0.018949  -0.062740
     8  H   -0.076538   0.436683  -0.076803   0.022693  -0.019627   0.022710
     9  H    0.012944  -0.098455   0.449683  -0.062689   0.018994  -0.012634
    10  H   -0.012596   0.018950  -0.062732   0.449532  -0.098224   0.012908
    11  H    0.022693  -0.019627   0.022710  -0.076538   0.436683  -0.076803
    12  H   -0.062696   0.018993  -0.012634   0.012945  -0.098451   0.449689
               7          8          9         10         11         12
     1  C    0.449539  -0.076538   0.012944  -0.012596   0.022693  -0.062696
     2  C   -0.098220   0.436683  -0.098455   0.018950  -0.019627   0.018993
     3  C    0.012909  -0.076803   0.449683  -0.062732   0.022710  -0.012634
     4  C   -0.012596   0.022693  -0.062689   0.449532  -0.076538   0.012945
     5  C    0.018949  -0.019627   0.018994  -0.098224   0.436683  -0.098451
     6  C   -0.062740   0.022710  -0.012634   0.012908  -0.076803   0.449689
     7  H    0.618537  -0.003623  -0.000286   0.000032  -0.000259   0.000417
     8  H   -0.003623   0.632419  -0.003649  -0.000259   0.000066  -0.000258
     9  H   -0.000286  -0.003649   0.618622   0.000417  -0.000258   0.000032
    10  H    0.000032  -0.000259   0.000417   0.618535  -0.003623  -0.000286
    11  H   -0.000259   0.000066  -0.000258  -0.003623   0.632419  -0.003649
    12  H    0.000417  -0.000258   0.000032  -0.000286  -0.003649   0.618624
          Atomic-Atomic Spin Densities.
               1          2          3          4          5          6
     1  C    0.711540   0.049703  -0.132569   0.029796   0.026109  -0.102028
     2  C    0.049703  -0.267918   0.050463   0.026113  -0.039261   0.026994
     3  C   -0.132569   0.050463   0.705860  -0.102031   0.026999   0.029421
     4  C    0.029796   0.026113  -0.102031   0.711567   0.049694  -0.132569
     5  C    0.026109  -0.039261   0.026999   0.049694  -0.267918   0.050472
     6  C   -0.102028   0.026994   0.029421  -0.132569   0.050472   0.705833
     7  H    0.008963   0.000927  -0.002200   0.001165  -0.001417   0.007620
     8  H   -0.002572   0.003405  -0.002575  -0.000017   0.001351  -0.000024
     9  H   -0.002183   0.000863   0.008965   0.007571  -0.001411   0.001169
    10  H    0.001165  -0.001417   0.007621   0.008964   0.000925  -0.002200
    11  H   -0.000017   0.001351  -0.000024  -0.002572   0.003405  -0.002575
    12  H    0.007570  -0.001411   0.001169  -0.002183   0.000864   0.008964
               7          8          9         10         11         12
     1  C    0.008963  -0.002572  -0.002183   0.001165  -0.000017   0.007570
     2  C    0.000927   0.003405   0.000863  -0.001417   0.001351  -0.001411
     3  C   -0.002200  -0.002575   0.008965   0.007621  -0.000024   0.001169
     4  C    0.001165  -0.000017   0.007571   0.008964  -0.002572  -0.002183
     5  C   -0.001417   0.001351  -0.001411   0.000925   0.003405   0.000864
     6  C    0.007620  -0.000024   0.001169  -0.002200  -0.002575   0.008964
     7  H   -0.032667   0.000174   0.000019  -0.000001   0.000006  -0.000050
     8  H    0.000174  -0.001491   0.000175   0.000006   0.000000   0.000006
     9  H    0.000019   0.000175  -0.032492  -0.000050   0.000006  -0.000001
    10  H   -0.000001   0.000006  -0.000050  -0.032668   0.000174   0.000019
    11  H    0.000006   0.000000   0.000006   0.000174  -0.001491   0.000175
    12  H   -0.000050   0.000006  -0.000001   0.000019   0.000175  -0.032491
 Mulliken charges and spin densities:
               1          2
     1  C   -0.182091   0.595477
     2  C    0.142178  -0.150187
     3  C   -0.180891   0.591100
     4  C   -0.182172   0.595499
     5  C    0.142178  -0.150187
     6  C   -0.180813   0.591079
     7  H    0.077342  -0.017461
     8  H    0.066186  -0.001560
     9  H    0.077278  -0.017370
    10  H    0.077345  -0.017461
    11  H    0.066186  -0.001560
    12  H    0.077275  -0.017369
 Sum of Mulliken charges =   0.00000   2.00000
 Mulliken charges and spin densities with hydrogens summed into heavy atoms:
               1          2
     1  C   -0.104749   0.578016
     2  C    0.208363  -0.151747
     3  C   -0.103613   0.573731
     4  C   -0.104827   0.578037
     5  C    0.208363  -0.151747
     6  C   -0.103538   0.573710
 Electronic spatial extent (au):  <R**2>=            472.8362
 Charge=              0.0000 electrons
 Dipole moment (field-independent basis, Debye):
    X=              0.0000    Y=              0.0000    Z=              0.0000  Tot=              0.0000
 Quadrupole moment (field-independent basis, Debye-Ang):
   XX=            -33.0196   YY=            -32.2332   ZZ=            -40.5980
   XY=              0.0000   XZ=              0.0001   YZ=              0.0000
 Traceless Quadrupole moment (field-independent basis, Debye-Ang):
   XX=              2.2640   YY=              3.0504   ZZ=             -5.3144
   XY=              0.0000   XZ=              0.0001   YZ=              0.0000
 Octapole moment (field-independent basis, Debye-Ang**2):
  XXX=              0.0000  YYY=              0.0002  ZZZ=              0.0000  XYY=              0.0000
  XXY=             -0.0001  XXZ=              0.0001  XZZ=              0.0000  YZZ=              0.0000
  YYZ=              0.0000  XYZ=              0.0011
 Hexadecapole moment (field-independent basis, Debye-Ang**3):
 XXXX=           -297.8475 YYYY=           -277.1347 ZZZZ=            -50.7973 XXXY=             -0.0270
 XXXZ=              0.0001 YYYX=              0.0298 YYYZ=              0.0002 ZZZX=              0.0001
 ZZZY=              0.0000 XXYY=            -98.0453 XXZZ=            -71.7223 YYZZ=            -66.4465
 XXYZ=              0.0001 YYXZ=              0.0003 ZZXY=              0.0005
 N-N= 2.004747645315D+02 E-N=-9.364640577545D+02  KE= 2.284580888427D+02

 Atomic contributions to Alpha molecular orbitals:
 Alpha occ 17 OE=-0.351 is C1-p=0.17 C4-p=0.17 C6-p=0.17 C3-p=0.17 C2-p=0.15 C5-p=0.15
 Alpha occ 18 OE=-0.322 is C6-p=0.11 C3-p=0.11 C1-p=0.11 C4-p=0.11 C5-p=0.10 C2-p=0.10
 Alpha occ 19 OE=-0.300 is H11-s=0.11 H8-s=0.11 C4-p=0.11 C1-p=0.11 C3-p=0.11 C6-p=0.11
 Alpha occ 20 OE=-0.259 is C5-p=0.27 C2-p=0.27
 Alpha occ 21 OE=-0.250 is C4-p=0.23 C1-p=0.23 C3-p=0.23 C6-p=0.23
 Alpha occ 22 OE=-0.092 is C4-p=0.22 C1-p=0.22 C3-p=0.22 C6-p=0.22
 Alpha vir 23 OE=-0.053 is C5-p=0.28 C2-p=0.28
 Alpha vir 24 OE=-0.011 is C4-s=0.22 C1-s=0.22 C3-s=0.21 C6-s=0.21
 Alpha vir 25 OE=0.011 is C5-p=0.62 C2-p=0.62 C2-s=0.41 C5-s=0.41 C1-p=-0.32 C4-p=-0.32 C6-p=-0.32 C3-p=-0.32 C3-s=0.15 C6-s=0.15 C4-s=0.15 C1-s=0.15 H8-s=-0.15 H11-s=-0.15
 Alpha vir 26 OE=0.012 is C5-p=-0.82 C2-p=-0.82 C1-s=0.49 C4-s=0.49 C6-s=0.48 C3-s=0.48 C4-p=0.28 C1-p=0.28 C3-p=0.28 C6-p=0.28 H10-s=-0.13 H7-s=-0.13 H9-s=-0.13 H12-s=-0.13
 Alpha vir 27 OE=0.031 is C4-p=0.96 C1-p=0.96 C3-p=0.96 C6-p=0.96 C4-s=-0.85 C1-s=-0.85 C3-s=-0.85 C6-s=-0.85 C5-p=0.38 C2-p=0.38
 Alpha vir 28 OE=0.035 is C2-s=-1.35 C5-s=-1.35 C2-p=1.32 C5-p=1.32 C6-p=0.68 C3-p=0.68 C1-p=0.68 C4-p=0.68 C6-s=-0.36 C3-s=-0.36 C1-s=-0.36 C4-s=-0.36 H8-s=-0.10 H11-s=-0.10

 Atomic contributions to Beta  molecular orbitals:
 Beta  occ 15 OE=-0.387 is C2-p=0.19 C5-p=0.19 H8-s=0.14 H11-s=0.14
 Beta  occ 16 OE=-0.363 is C1-p=0.15 C4-p=0.15 C6-p=0.15 C3-p=0.15
 Beta  occ 17 OE=-0.326 is C2-p=0.19 C5-p=0.19 C6-p=0.15 C3-p=0.15 C1-p=0.15 C4-p=0.15
 Beta  occ 18 OE=-0.314 is C5-p=0.11 C2-p=0.11 C1-p=0.10 C4-p=0.10 C6-p=0.10 C3-p=0.10
 Beta  occ 19 OE=-0.292 is C4-p=0.11 C1-p=0.11 C3-p=0.11 C6-p=0.11 H11-s=0.11 H8-s=0.11
 Beta  occ 20 OE=-0.245 is C5-p=0.31 C2-p=0.31
 Beta  vir 21 OE=-0.209 is C4-p=0.23 C1-p=0.23 C3-p=0.22 C6-p=0.22
 Beta  vir 22 OE=-0.051 is C4-p=0.22 C1-p=0.22 C3-p=0.21 C6-p=0.21
 Beta  vir 23 OE=-0.039 is C5-p=0.23 C2-p=0.23
 Beta  vir 24 OE=-0.007 is C4-s=0.22 C1-s=0.22 C3-s=0.22 C6-s=0.22
 Beta  vir 25 OE=0.012 is C5-p=0.64 C2-p=0.64 C2-s=0.41 C5-s=0.41 C1-p=-0.34 C4-p=-0.34 C6-p=-0.34 C3-p=-0.34 C3-s=0.16 C6-s=0.16 C4-s=0.16 C1-s=0.16 H8-s=-0.15 H11-s=-0.15
 Beta  vir 26 OE=0.016 is C5-p=-0.80 C2-p=-0.80 C1-s=0.46 C4-s=0.46 C6-s=0.46 C3-s=0.46 C4-p=0.30 C1-p=0.30 C3-p=0.30 C6-p=0.30 H10-s=-0.13 H7-s=-0.13 H9-s=-0.13 H12-s=-0.13
 
                          Isotropic Fermi Contact Couplings
        Atom                 a.u.       MegaHertz       Gauss      10(-4) cm-1
     1  C(13)             -0.01191      -6.69475      -2.38885      -2.23313
     2  C(13)             -0.02460     -13.82854      -4.93437      -4.61270
     3  C(13)             -0.01200      -6.74595      -2.40712      -2.25021
     4  C(13)             -0.01191      -6.69436      -2.38871      -2.23300
     5  C(13)             -0.02460     -13.82854      -4.93437      -4.61270
     6  C(13)             -0.01200      -6.74634      -2.40726      -2.25034
     7  H(1)              -0.00680     -15.20639      -5.42602      -5.07231
     8  H(1)              -0.00010      -0.23131      -0.08254      -0.07716
     9  H(1)              -0.00677     -15.11997      -5.39518      -5.04348
    10  H(1)              -0.00680     -15.20687      -5.42619      -5.07247
    11  H(1)              -0.00010      -0.23131      -0.08254      -0.07716
    12  H(1)              -0.00677     -15.11949      -5.39501      -5.04332
 --------------------------------------------------------
       Center         ----  Spin Dipole Couplings  ----
                      3XX-RR        3YY-RR        3ZZ-RR
 --------------------------------------------------------
     1   Atom       -0.343695     -0.350831      0.694526
     2   Atom        0.032898      0.064805     -0.097703
     3   Atom       -0.341348     -0.348700      0.690048
     4   Atom       -0.343707     -0.350842      0.694549
     5   Atom        0.032898      0.064805     -0.097703
     6   Atom       -0.341337     -0.348688      0.690025
     7   Atom       -0.018393      0.021528     -0.003135
     8   Atom        0.008838      0.002968     -0.011807
     9   Atom       -0.017734      0.020914     -0.003180
    10   Atom       -0.018395      0.021530     -0.003135
    11   Atom        0.008838      0.002968     -0.011807
    12   Atom       -0.017732      0.020912     -0.003180
 --------------------------------------------------------
                        XY            XZ            YZ
 --------------------------------------------------------
     1   Atom       -0.006057      0.000102     -0.000090
     2   Atom        0.000108      0.000001      0.000003
     3   Atom        0.005985     -0.000106     -0.000101
     4   Atom       -0.006058     -0.000099      0.000105
     5   Atom        0.000109     -0.000001     -0.000004
     6   Atom        0.005985      0.000097      0.000081
     7   Atom       -0.044217     -0.000003      0.000007
     8   Atom        0.000019      0.000000      0.000001
     9   Atom        0.044212      0.000004      0.000008
    10   Atom       -0.044218      0.000004     -0.000007
    11   Atom        0.000019      0.000000     -0.000001
    12   Atom        0.044211     -0.000003     -0.000006
 --------------------------------------------------------


 ---------------------------------------------------------------------------------
              Anisotropic Spin Dipole Couplings in Principal Axis System
 ---------------------------------------------------------------------------------

       Atom             a.u.   MegaHertz   Gauss  10(-4) cm-1        Axes

              Baa    -0.3543   -47.543   -16.964   -15.859  0.4962  0.8682  0.0000
     1 C(13)  Bbb    -0.3402   -45.656   -16.291   -15.229  0.8682 -0.4962 -0.0001
              Bcc     0.6945    93.199    33.256    31.088  0.0001 -0.0001  1.0000
 
              Baa    -0.0977   -13.111    -4.678    -4.373  0.0000  0.0000  1.0000
     2 C(13)  Bbb     0.0329     4.415     1.575     1.473  1.0000 -0.0034  0.0000
              Bcc     0.0648     8.696     3.103     2.901  0.0034  1.0000  0.0000
 
              Baa    -0.3520   -47.241   -16.857   -15.758 -0.4882  0.8727  0.0000
     3 C(13)  Bbb    -0.3380   -45.356   -16.184   -15.129  0.8727  0.4882  0.0001
              Bcc     0.6900    92.598    33.041    30.887 -0.0001 -0.0001  1.0000
 
              Baa    -0.3543   -47.544   -16.965   -15.859  0.4962  0.8682  0.0000
     4 C(13)  Bbb    -0.3402   -45.658   -16.292   -15.230  0.8682 -0.4962  0.0001
              Bcc     0.6945    93.202    33.257    31.089 -0.0001  0.0001  1.0000
 
              Baa    -0.0977   -13.111    -4.678    -4.373  0.0000  0.0000  1.0000
     5 C(13)  Bbb     0.0329     4.415     1.575     1.473  1.0000 -0.0034  0.0000
              Bcc     0.0648     8.696     3.103     2.901  0.0034  1.0000  0.0000
 
              Baa    -0.3520   -47.240   -16.856   -15.758 -0.4882  0.8727  0.0000
     6 C(13)  Bbb    -0.3380   -45.355   -16.184   -15.129  0.8727  0.4882 -0.0001
              Bcc     0.6900    92.595    33.040    30.886  0.0001  0.0001  1.0000
 
              Baa    -0.0469   -25.048    -8.938    -8.355  0.8401  0.5425  0.0000
     7 H(1)   Bbb    -0.0031    -1.673    -0.597    -0.558  0.0001 -0.0001  1.0000
              Bcc     0.0501    26.721     9.535     8.913 -0.5425  0.8401  0.0001
 
              Baa    -0.0118    -6.299    -2.248    -2.101  0.0000 -0.0001  1.0000
     8 H(1)   Bbb     0.0030     1.584     0.565     0.528 -0.0032  1.0000  0.0001
              Bcc     0.0088     4.716     1.683     1.573  1.0000  0.0032  0.0000
 
              Baa    -0.0467   -24.896    -8.883    -8.304  0.8368 -0.5475  0.0000
     9 H(1)   Bbb    -0.0032    -1.697    -0.605    -0.566 -0.0001 -0.0001  1.0000
              Bcc     0.0498    26.592     9.489     8.870  0.5475  0.8368  0.0002
 
              Baa    -0.0469   -25.049    -8.938    -8.355  0.8401  0.5425  0.0000
    10 H(1)   Bbb    -0.0031    -1.673    -0.597    -0.558 -0.0001  0.0001  1.0000
              Bcc     0.0501    26.722     9.535     8.913 -0.5425  0.8401 -0.0002
 
              Baa    -0.0118    -6.299    -2.248    -2.101  0.0000  0.0001  1.0000
    11 H(1)   Bbb     0.0030     1.584     0.565     0.528 -0.0033  1.0000 -0.0001
              Bcc     0.0088     4.716     1.683     1.573  1.0000  0.0033  0.0000
 
              Baa    -0.0467   -24.895    -8.883    -8.304  0.8368 -0.5475  0.0000
    12 H(1)   Bbb    -0.0032    -1.697    -0.605    -0.566  0.0001  0.0001  1.0000
              Bcc     0.0498    26.592     9.489     8.870  0.5475  0.8368 -0.0001
 

 ---------------------------------------------------------------------------------

 1\1\GINC-C13B-01\FOpt\USVWN5\6-311+G(3df,2pd)\C6H6(3)\EPLUHAR\26-Jun-2
 016\0\\#opt 6-311+g(3df,2pd) pop=orbitals=6 svwn5\\Benzene\\0,3\C,-0.0
 125673429,0.418048785,0.000028535\C,1.3653279354,0.4323846401,0.000522
 3621\C,2.0664274345,1.6178536688,0.0000479994\C,1.3157697611,2.9182416
 882,-0.0011466185\C,-0.0621269155,2.9038904774,-0.0015045868\C,-0.7632
 125422,1.7184148295,-0.0009063601\H,-0.5677059304,-0.5211070917,0.0003
 249615\H,1.9123736358,-0.5154629634,0.0013054724\H,3.1573436212,1.6290
 170577,0.0005336416\H,1.8709213183,3.8573889118,-0.0017102026\H,-0.609
 187532,3.8517295552,-0.0022790652\H,-1.8541296832,1.7072677215,-0.0011
 271389\\Version=ES64L-G09RevD.01\State=3-A\HF=-230.0181955\S2=2.011877
 \S2-1=0.\S2A=2.000071\RMSD=8.799e-09\RMSF=3.510e-05\Dipole=0.0000029,0
 .0000017,0.0000015\Quadrupole=2.1203828,1.8307351,-3.9511179,0.2539592
 ,0.0017997,-0.0036316\PG=C01 [X(C6H6)]\\@


 FAULTILY FAULTLESS, ICILY REGULAR, SPLENDIDLY NULL...
           MAUDE BY TENNYSON
 Job cpu time:       0 days  0 hours 20 minutes 59.2 seconds.
 File lengths (MBytes):  RWF=    109 Int=      0 D2E=      0 Chk=    156 Scr=      1
 Normal termination of Gaussian 09 at Sun Jun 26 00:25:05 2016.
