 Entering Gaussian System, Link 0=g09
 Initial command:
 /share/sw/gaussian/D.01/g09/l1.exe "/local/scratch/epluhar/Gau-15075.inp" -scrdir="/local/scratch/epluhar/"
 Entering Link 1 = /share/sw/gaussian/D.01/g09/l1.exe PID=     15076.
  
 Copyright (c) 1988,1990,1992,1993,1995,1998,2003,2009,2013,
            Gaussian, Inc.  All Rights Reserved.
  
 This is part of the Gaussian(R) 09 program.  It is based on
 the Gaussian(R) 03 system (copyright 2003, Gaussian, Inc.),
 the Gaussian(R) 98 system (copyright 1998, Gaussian, Inc.),
 the Gaussian(R) 94 system (copyright 1995, Gaussian, Inc.),
 the Gaussian 92(TM) system (copyright 1992, Gaussian, Inc.),
 the Gaussian 90(TM) system (copyright 1990, Gaussian, Inc.),
 the Gaussian 88(TM) system (copyright 1988, Gaussian, Inc.),
 the Gaussian 86(TM) system (copyright 1986, Carnegie Mellon
 University), and the Gaussian 82(TM) system (copyright 1983,
 Carnegie Mellon University). Gaussian is a federally registered
 trademark of Gaussian, Inc.
  
 This software contains proprietary and confidential information,
 including trade secrets, belonging to Gaussian, Inc.
  
 This software is provided under written license and may be
 used, copied, transmitted, or stored only in accord with that
 written license.
  
 The following legend is applicable only to US Government
 contracts under FAR:
  
                    RESTRICTED RIGHTS LEGEND
  
 Use, reproduction and disclosure by the US Government is
 subject to restrictions as set forth in subparagraphs (a)
 and (c) of the Commercial Computer Software - Restricted
 Rights clause in FAR 52.227-19.
  
 Gaussian, Inc.
 340 Quinnipiac St., Bldg. 40, Wallingford CT 06492
  
  
 ---------------------------------------------------------------
 Warning -- This program may not be used in any manner that
 competes with the business of Gaussian, Inc. or will provide
 assistance to any competitor of Gaussian, Inc.  The licensee
 of this program is prohibited from giving any competitor of
 Gaussian, Inc. access to this program.  By using this program,
 the user acknowledges that Gaussian, Inc. is engaged in the
 business of creating and licensing software in the field of
 computational chemistry and represents and warrants to the
 licensee that it is not a competitor of Gaussian, Inc. and that
 it will not use this program in any manner prohibited above.
 ---------------------------------------------------------------
  

 Cite this work as:
 Gaussian 09, Revision D.01,
 M. J. Frisch, G. W. Trucks, H. B. Schlegel, G. E. Scuseria, 
 M. A. Robb, J. R. Cheeseman, G. Scalmani, V. Barone, B. Mennucci, 
 G. A. Petersson, H. Nakatsuji, M. Caricato, X. Li, H. P. Hratchian, 
 A. F. Izmaylov, J. Bloino, G. Zheng, J. L. Sonnenberg, M. Hada, 
 M. Ehara, K. Toyota, R. Fukuda, J. Hasegawa, M. Ishida, T. Nakajima, 
 Y. Honda, O. Kitao, H. Nakai, T. Vreven, J. A. Montgomery, Jr., 
 J. E. Peralta, F. Ogliaro, M. Bearpark, J. J. Heyd, E. Brothers, 
 K. N. Kudin, V. N. Staroverov, T. Keith, R. Kobayashi, J. Normand, 
 K. Raghavachari, A. Rendell, J. C. Burant, S. S. Iyengar, J. Tomasi, 
 M. Cossi, N. Rega, J. M. Millam, M. Klene, J. E. Knox, J. B. Cross, 
 V. Bakken, C. Adamo, J. Jaramillo, R. Gomperts, R. E. Stratmann, 
 O. Yazyev, A. J. Austin, R. Cammi, C. Pomelli, J. W. Ochterski, 
 R. L. Martin, K. Morokuma, V. G. Zakrzewski, G. A. Voth, 
 P. Salvador, J. J. Dannenberg, S. Dapprich, A. D. Daniels, 
 O. Farkas, J. B. Foresman, J. V. Ortiz, J. Cioslowski, 
 and D. J. Fox, Gaussian, Inc., Wallingford CT, 2013.
 
 ******************************************
 Gaussian 09:  ES64L-G09RevD.01 24-Apr-2013
                 8-Jul-2016 
 ******************************************
 %chk=Benzene.chk
 -------------------------------------------------------------------
 #opt 6-311+g(3df,2pd) svwn5 pop=orbitals=6 symmetry=(follow,pg=D6h)
 -------------------------------------------------------------------
 1/14=-1,18=20,19=15,26=3,38=1/1,3;
 2/9=110,12=2,17=6,18=5,19=2314885530821080644,40=1/2;
 3/5=4,6=6,7=416,11=2,16=1,25=1,30=1,71=1,74=201/1,2,3;
 4//1;
 5/5=2,38=5/2;
 6/7=2,8=2,9=2,10=2,28=1,87=6/1;
 7//1,2,3,16;
 1/14=-1,18=20,19=15,26=3/3(2);
 2/9=110,15=5,19=2314885530821080644/2;
 99//99;
 2/9=110,15=5,19=2314885530821080644/2;
 3/5=4,6=6,7=416,11=2,16=1,25=1,30=1,71=1,74=201/1,2,3;
 4/5=5,16=3,69=1/1;
 5/5=2,38=5/2;
 7//1,2,3,16;
 1/14=-1,18=20,19=15,26=3/3(-5);
 2/9=110,15=5,19=2314885530821080644/2;
 6/7=2,8=2,9=2,10=2,19=2,28=1,87=6/1;
 99/9=1/99;
 -------
 Benzene
 -------
 Symbolic Z-matrix:
 Charge =  0 Multiplicity = 3
 C                    -0.04601   0.46012   0. 
 C                     1.34915   0.46012   0. 
 C                     2.04669   1.66787   0. 
 C                     1.34903   2.87638  -0.0012 
 C                    -0.04579   2.8763   -0.00168 
 C                    -0.74339   1.6681   -0.00068 
 H                    -0.59577  -0.49219   0.00045 
 H                     1.89866  -0.49239   0.00132 
 H                     3.14637   1.66795   0.00063 
 H                     1.89923   3.82853  -0.00126 
 H                    -0.59592   3.82859  -0.00263 
 H                    -1.843     1.66828  -0.00086 
 

 GradGradGradGradGradGradGradGradGradGradGradGradGradGradGradGradGradGrad
 Berny optimization.
 Initialization pass.
                           ----------------------------
                           !    Initial Parameters    !
                           ! (Angstroms and Degrees)  !
 --------------------------                            --------------------------
 ! Name  Definition              Value          Derivative Info.                !
 --------------------------------------------------------------------------------
 ! R1    R(1,2)                  1.3952         estimate D2E/DX2                !
 ! R2    R(1,6)                  1.3948         estimate D2E/DX2                !
 ! R3    R(1,7)                  1.0996         estimate D2E/DX2                !
 ! R4    R(2,3)                  1.3947         estimate D2E/DX2                !
 ! R5    R(2,8)                  1.0997         estimate D2E/DX2                !
 ! R6    R(3,4)                  1.3954         estimate D2E/DX2                !
 ! R7    R(3,9)                  1.0997         estimate D2E/DX2                !
 ! R8    R(4,5)                  1.3948         estimate D2E/DX2                !
 ! R9    R(4,10)                 1.0997         estimate D2E/DX2                !
 ! R10   R(5,6)                  1.3951         estimate D2E/DX2                !
 ! R11   R(5,11)                 1.0998         estimate D2E/DX2                !
 ! R12   R(6,12)                 1.0996         estimate D2E/DX2                !
 ! A1    A(2,1,6)              119.9985         estimate D2E/DX2                !
 ! A2    A(2,1,7)              119.9972         estimate D2E/DX2                !
 ! A3    A(6,1,7)              120.0043         estimate D2E/DX2                !
 ! A4    A(1,2,3)              120.0086         estimate D2E/DX2                !
 ! A5    A(1,2,8)              119.9808         estimate D2E/DX2                !
 ! A6    A(3,2,8)              120.0106         estimate D2E/DX2                !
 ! A7    A(2,3,4)              119.9942         estimate D2E/DX2                !
 ! A8    A(2,3,9)              120.0128         estimate D2E/DX2                !
 ! A9    A(4,3,9)              119.993          estimate D2E/DX2                !
 ! A10   A(3,4,5)              119.994          estimate D2E/DX2                !
 ! A11   A(3,4,10)             119.9811         estimate D2E/DX2                !
 ! A12   A(5,4,10)             120.0249         estimate D2E/DX2                !
 ! A13   A(4,5,6)              120.0047         estimate D2E/DX2                !
 ! A14   A(4,5,11)             120.0113         estimate D2E/DX2                !
 ! A15   A(6,5,11)             119.984          estimate D2E/DX2                !
 ! A16   A(1,6,5)              120.0            estimate D2E/DX2                !
 ! A17   A(1,6,12)             120.008          estimate D2E/DX2                !
 ! A18   A(5,6,12)             119.992          estimate D2E/DX2                !
 ! D1    D(6,1,2,3)              0.0323         estimate D2E/DX2                !
 ! D2    D(6,1,2,8)            179.9532         estimate D2E/DX2                !
 ! D3    D(7,1,2,3)           -179.9729         estimate D2E/DX2                !
 ! D4    D(7,1,2,8)             -0.052          estimate D2E/DX2                !
 ! D5    D(2,1,6,5)              0.0149         estimate D2E/DX2                !
 ! D6    D(2,1,6,12)           179.9892         estimate D2E/DX2                !
 ! D7    D(7,1,6,5)           -179.9798         estimate D2E/DX2                !
 ! D8    D(7,1,6,12)            -0.0056         estimate D2E/DX2                !
 ! D9    D(1,2,3,4)             -0.0568         estimate D2E/DX2                !
 ! D10   D(1,2,3,9)            179.9619         estimate D2E/DX2                !
 ! D11   D(8,2,3,4)           -179.9777         estimate D2E/DX2                !
 ! D12   D(8,2,3,9)              0.041          estimate D2E/DX2                !
 ! D13   D(2,3,4,5)              0.0341         estimate D2E/DX2                !
 ! D14   D(2,3,4,10)          -179.9964         estimate D2E/DX2                !
 ! D15   D(9,3,4,5)           -179.9846         estimate D2E/DX2                !
 ! D16   D(9,3,4,10)            -0.0151         estimate D2E/DX2                !
 ! D17   D(3,4,5,6)              0.0131         estimate D2E/DX2                !
 ! D18   D(3,4,5,11)          -179.9995         estimate D2E/DX2                !
 ! D19   D(10,4,5,6)          -179.9563         estimate D2E/DX2                !
 ! D20   D(10,4,5,11)            0.0311         estimate D2E/DX2                !
 ! D21   D(4,5,6,1)             -0.0376         estimate D2E/DX2                !
 ! D22   D(4,5,6,12)           179.9881         estimate D2E/DX2                !
 ! D23   D(11,5,6,1)           179.975          estimate D2E/DX2                !
 ! D24   D(11,5,6,12)            0.0007         estimate D2E/DX2                !
 --------------------------------------------------------------------------------
 Trust Radius=3.00D-01 FncErr=1.00D-07 GrdErr=1.00D-06
 Number of steps in this run=     64 maximum allowed number of steps=    100.
 GradGradGradGradGradGradGradGradGradGradGradGradGradGradGradGradGradGrad

                          Input orientation:                          
 ---------------------------------------------------------------------
 Center     Atomic      Atomic             Coordinates (Angstroms)
 Number     Number       Type             X           Y           Z
 ---------------------------------------------------------------------
      1          6           0       -0.046012    0.460123    0.000000
      2          6           0        1.349148    0.460123    0.000000
      3          6           0        2.046686    1.667874    0.000000
      4          6           0        1.349032    2.876383   -0.001199
      5          6           0       -0.045793    2.876305   -0.001678
      6          6           0       -0.743394    1.668099   -0.000682
      7          1           0       -0.595771   -0.492194    0.000450
      8          1           0        1.898656   -0.492390    0.001315
      9          1           0        3.146366    1.667954    0.000634
     10          1           0        1.899232    3.828526   -0.001258
     11          1           0       -0.595915    3.828586   -0.002631
     12          1           0       -1.842998    1.668282   -0.000862
 ---------------------------------------------------------------------
                    Distance matrix (angstroms):
                    1          2          3          4          5
     1  C    0.000000
     2  C    1.395160   0.000000
     3  C    2.416205   1.394712   0.000000
     4  C    2.790065   2.416260   1.395427   0.000000
     5  C    2.416183   2.789946   2.416356   1.394825   0.000000
     6  C    1.394829   2.416183   2.790080   2.416236   1.395138
     7  H    1.099610   2.165553   3.412986   3.889675   3.413102
     8  H    2.165414   1.099655   2.165330   3.413316   3.889601
     9  H    3.413229   2.165375   1.099680   2.165806   3.413209
    10  H    3.889745   3.413024   2.165678   1.099680   2.165606
    11  H    3.413055   3.889707   3.413506   2.165528   1.099761
    12  H    2.165365   3.413128   3.889684   3.412999   2.165471
                    6          7          8          9         10
     6  C    0.000000
     7  H    2.165331   0.000000
     8  H    3.412938   2.494427   0.000000
     9  H    3.889760   4.320860   2.494768   0.000000
    10  H    3.413344   4.989355   4.320917   2.494678   0.000000
    11  H    2.165516   4.320781   4.989362   4.321228   2.495147
    12  H    1.099604   2.494641   4.320704   4.989364   4.320988
                   11         12
    11  H    0.000000
    12  H    2.494420   0.000000
 Symm:  InNGrp=D6H  InAxis=0.
 Stoichiometry    C6H6(3)
 Framework group  C1[X(C6H6)]
 Deg. of freedom    30
 Full point group                 C1      NOp   1
 Largest Abelian subgroup         C1      NOp   1
 Largest concise Abelian subgroup C1      NOp   1
                         Standard orientation:                         
 ---------------------------------------------------------------------
 Center     Atomic      Atomic             Coordinates (Angstroms)
 Number     Number       Type             X           Y           Z
 ---------------------------------------------------------------------
      1          6           0       -0.176717   -1.383752    0.000005
      2          6           0        1.110106   -0.844719   -0.000364
      3          6           0        1.286853    0.538749    0.000194
      4          6           0        0.176454    1.383870   -0.000075
      5          6           0       -1.110031    0.844894   -0.000185
      6          6           0       -1.286660   -0.539018    0.000252
      7          1           0       -0.315850   -2.474525    0.000015
      8          1           0        1.984957   -1.510960    0.000218
      9          1           0        2.301110    0.963694    0.000537
     10          1           0        0.316060    2.474652    0.000306
     11          1           0       -1.985358    1.510684   -0.000405
     12          1           0       -2.300948   -0.963691    0.000364
 ---------------------------------------------------------------------
 Rotational constants (GHZ):      5.6865650      5.6862639      2.8432074
 Standard basis: 6-311+G(3df,2pd) (5D, 7F)
 There are   360 symmetry adapted cartesian basis functions of A   symmetry.
 There are   318 symmetry adapted basis functions of A   symmetry.
   318 basis functions,   450 primitive gaussians,   360 cartesian basis functions
    22 alpha electrons       20 beta electrons
       nuclear repulsion energy       203.0307482098 Hartrees.
 NAtoms=   12 NActive=   12 NUniq=   12 SFac= 1.00D+00 NAtFMM=   60 NAOKFM=F Big=F
 Integral buffers will be    131072 words long.
 Raffenetti 2 integral format.
 Two-electron integral symmetry is turned on.
 One-electron integrals computed using PRISM.
 NBasis=   318 RedAO= T EigKep=  1.87D-06  NBF=   318
 NBsUse=   318 1.00D-06 EigRej= -1.00D+00 NBFU=   318
 ExpMin= 4.38D-02 ExpMax= 4.56D+03 ExpMxC= 6.82D+02 IAcc=2 IRadAn=         4 AccDes= 0.00D+00
 Harris functional with IExCor=  201 and IRadAn=       4 diagonalized for initial guess.
 HarFok:  IExCor=  201 AccDes= 0.00D+00 IRadAn=         4 IDoV= 1 UseB2=F ITyADJ=14
 ICtDFT=  3500011 ScaDFX=  1.000000  1.000000  1.000000  1.000000
 FoFCou: FMM=F IPFlag=           0 FMFlag=      100000 FMFlg1=           0
         NFxFlg=           0 DoJE=T BraDBF=F KetDBF=T FulRan=T
         wScrn=  0.000000 ICntrl=     500 IOpCl=  0 I1Cent=   200000004 NGrid=           0
         NMat0=    1 NMatS0=      1 NMatT0=    0 NMatD0=    1 NMtDS0=    0 NMtDT0=    0
 Petite list used in FoFCou.
 Initial guess <Sx>= 0.0000 <Sy>= 0.0000 <Sz>= 1.0000 <S**2>= 2.0000 S= 1.0000
 Requested convergence on RMS density matrix=1.00D-08 within 128 cycles.
 Requested convergence on MAX density matrix=1.00D-06.
 Requested convergence on             energy=1.00D-06.
 No special actions if energy rises.
 EnCoef did     3 forward-backward iterations
 Restarting incremental Fock formation.
 SCF Done:  E(US-VWN5) =  -230.002888916     A.U. after   22 cycles
            NFock= 22  Conv=0.86D-08     -V/T= 2.0058
 <Sx>= 0.0000 <Sy>= 0.0000 <Sz>= 1.0000 <S**2>= 2.0118 S= 1.0039
 <L.S>= 0.000000000000E+00
 Annihilation of the first spin contaminant:
 S**2 before annihilation     2.0118,   after     2.0001

 **********************************************************************

            Population analysis using the SCF density.

 **********************************************************************

 Orbital symmetries:
 Alpha Orbitals:
       Occupied  (A) (A) (A) (A) (A) (A) (A) (A) (A) (A) (A) (A)
                 (A) (A) (A) (A) (A) (A) (A) (A) (A) (A)
       Virtual   (A) (A) (A) (A) (A) (A) (A) (A) (A) (A) (A) (A)
                 (A) (A) (A) (A) (A) (A) (A) (A) (A) (A) (A) (A)
                 (A) (A) (A) (A) (A) (A) (A) (A) (A) (A) (A) (A)
                 (A) (A) (A) (A) (A) (A) (A) (A) (A) (A) (A) (A)
                 (A) (A) (A) (A) (A) (A) (A) (A) (A) (A) (A) (A)
                 (A) (A) (A) (A) (A) (A) (A) (A) (A) (A) (A) (A)
                 (A) (A) (A) (A) (A) (A) (A) (A) (A) (A) (A) (A)
                 (A) (A) (A) (A) (A) (A) (A) (A) (A) (A) (A) (A)
                 (A) (A) (A) (A) (A) (A) (A) (A) (A) (A) (A) (A)
                 (A) (A) (A) (A) (A) (A) (A) (A) (A) (A) (A) (A)
                 (A) (A) (A) (A) (A) (A) (A) (A) (A) (A) (A) (A)
                 (A) (A) (A) (A) (A) (A) (A) (A) (A) (A) (A) (A)
                 (A) (A) (A) (A) (A) (A) (A) (A) (A) (A) (A) (A)
                 (A) (A) (A) (A) (A) (A) (A) (A) (A) (A) (A) (A)
                 (A) (A) (A) (A) (A) (A) (A) (A) (A) (A) (A) (A)
                 (A) (A) (A) (A) (A) (A) (A) (A) (A) (A) (A) (A)
                 (A) (A) (A) (A) (A) (A) (A) (A) (A) (A) (A) (A)
                 (A) (A) (A) (A) (A) (A) (A) (A) (A) (A) (A) (A)
                 (A) (A) (A) (A) (A) (A) (A) (A) (A) (A) (A) (A)
                 (A) (A) (A) (A) (A) (A) (A) (A) (A) (A) (A) (A)
                 (A) (A) (A) (A) (A) (A) (A) (A) (A) (A) (A) (A)
                 (A) (A) (A) (A) (A) (A) (A) (A) (A) (A) (A) (A)
                 (A) (A) (A) (A) (A) (A) (A) (A) (A) (A) (A) (A)
                 (A) (A) (A) (A) (A) (A) (A) (A) (A) (A) (A) (A)
                 (A) (A) (A) (A) (A) (A) (A) (A)
 Beta  Orbitals:
       Occupied  (A) (A) (A) (A) (A) (A) (A) (A) (A) (A) (A) (A)
                 (A) (A) (A) (A) (A) (A) (A) (A)
       Virtual   (A) (A) (A) (A) (A) (A) (A) (A) (A) (A) (A) (A)
                 (A) (A) (A) (A) (A) (A) (A) (A) (A) (A) (A) (A)
                 (A) (A) (A) (A) (A) (A) (A) (A) (A) (A) (A) (A)
                 (A) (A) (A) (A) (A) (A) (A) (A) (A) (A) (A) (A)
                 (A) (A) (A) (A) (A) (A) (A) (A) (A) (A) (A) (A)
                 (A) (A) (A) (A) (A) (A) (A) (A) (A) (A) (A) (A)
                 (A) (A) (A) (A) (A) (A) (A) (A) (A) (A) (A) (A)
                 (A) (A) (A) (A) (A) (A) (A) (A) (A) (A) (A) (A)
                 (A) (A) (A) (A) (A) (A) (A) (A) (A) (A) (A) (A)
                 (A) (A) (A) (A) (A) (A) (A) (A) (A) (A) (A) (A)
                 (A) (A) (A) (A) (A) (A) (A) (A) (A) (A) (A) (A)
                 (A) (A) (A) (A) (A) (A) (A) (A) (A) (A) (A) (A)
                 (A) (A) (A) (A) (A) (A) (A) (A) (A) (A) (A) (A)
                 (A) (A) (A) (A) (A) (A) (A) (A) (A) (A) (A) (A)
                 (A) (A) (A) (A) (A) (A) (A) (A) (A) (A) (A) (A)
                 (A) (A) (A) (A) (A) (A) (A) (A) (A) (A) (A) (A)
                 (A) (A) (A) (A) (A) (A) (A) (A) (A) (A) (A) (A)
                 (A) (A) (A) (A) (A) (A) (A) (A) (A) (A) (A) (A)
                 (A) (A) (A) (A) (A) (A) (A) (A) (A) (A) (A) (A)
                 (A) (A) (A) (A) (A) (A) (A) (A) (A) (A) (A) (A)
                 (A) (A) (A) (A) (A) (A) (A) (A) (A) (A) (A) (A)
                 (A) (A) (A) (A) (A) (A) (A) (A) (A) (A) (A) (A)
                 (A) (A) (A) (A) (A) (A) (A) (A) (A) (A) (A) (A)
                 (A) (A) (A) (A) (A) (A) (A) (A) (A) (A) (A) (A)
                 (A) (A) (A) (A) (A) (A) (A) (A) (A) (A)
 The electronic state is 3-A.
 Alpha  occ. eigenvalues --   -9.79496  -9.79487  -9.79466  -9.79464  -9.79073
 Alpha  occ. eigenvalues --   -9.79068  -0.79306  -0.69429  -0.67964  -0.55452
 Alpha  occ. eigenvalues --   -0.55104  -0.48271  -0.41731  -0.41081  -0.38771
 Alpha  occ. eigenvalues --   -0.38066  -0.36003  -0.31138  -0.30921  -0.26808
 Alpha  occ. eigenvalues --   -0.24920  -0.07624
 Alpha virt. eigenvalues --   -0.06285  -0.01292   0.00954   0.01162   0.03263
 Alpha virt. eigenvalues --    0.03451   0.04375   0.04402   0.06975   0.06978
 Alpha virt. eigenvalues --    0.07360   0.07604   0.08375   0.11942   0.12153
 Alpha virt. eigenvalues --    0.12243   0.12740   0.12772   0.12828   0.14035
 Alpha virt. eigenvalues --    0.16392   0.16618   0.17662   0.17801   0.18119
 Alpha virt. eigenvalues --    0.18892   0.18965   0.19719   0.19778   0.20327
 Alpha virt. eigenvalues --    0.22718   0.25979   0.26400   0.26571   0.26721
 Alpha virt. eigenvalues --    0.27507   0.27604   0.30119   0.33082   0.35468
 Alpha virt. eigenvalues --    0.35988   0.37401   0.37541   0.38143   0.39289
 Alpha virt. eigenvalues --    0.41362   0.41801   0.43444   0.46157   0.46469
 Alpha virt. eigenvalues --    0.47475   0.48384   0.51110   0.51387   0.51642
 Alpha virt. eigenvalues --    0.52078   0.52103   0.52395   0.53226   0.53441
 Alpha virt. eigenvalues --    0.53866   0.54274   0.56294   0.57273   0.58909
 Alpha virt. eigenvalues --    0.61350   0.61631   0.66851   0.68137   0.68345
 Alpha virt. eigenvalues --    0.70665   0.73597   0.73730   0.74595   0.75633
 Alpha virt. eigenvalues --    0.76344   0.82080   0.88960   0.89158   0.91703
 Alpha virt. eigenvalues --    0.92457   0.92710   0.99845   1.00202   1.00684
 Alpha virt. eigenvalues --    1.02690   1.03060   1.07188   1.07429   1.07741
 Alpha virt. eigenvalues --    1.09622   1.09885   1.12941   1.13466   1.14657
 Alpha virt. eigenvalues --    1.14868   1.20931   1.21813   1.21816   1.21981
 Alpha virt. eigenvalues --    1.22251   1.22597   1.23360   1.24589   1.25101
 Alpha virt. eigenvalues --    1.27750   1.28079   1.28200   1.31327   1.31582
 Alpha virt. eigenvalues --    1.32864   1.33255   1.34757   1.38652   1.38738
 Alpha virt. eigenvalues --    1.39429   1.40042   1.41418   1.43191   1.45566
 Alpha virt. eigenvalues --    1.56853   1.57102   1.57175   1.73051   1.76690
 Alpha virt. eigenvalues --    1.78038   1.80614   1.80884   1.81047   1.90292
 Alpha virt. eigenvalues --    1.90654   1.91493   1.92201   2.02388   2.02499
 Alpha virt. eigenvalues --    2.07233   2.21602   2.22222   2.27445   2.31705
 Alpha virt. eigenvalues --    2.31899   2.36448   2.37722   2.37881   2.45730
 Alpha virt. eigenvalues --    2.47647   2.59029   2.60662   2.62784   2.63991
 Alpha virt. eigenvalues --    2.64779   2.66219   2.71603   2.72114   2.72417
 Alpha virt. eigenvalues --    2.72575   2.72732   2.73156   2.74172   2.75853
 Alpha virt. eigenvalues --    2.76882   2.79018   2.87673   2.88905   2.91397
 Alpha virt. eigenvalues --    2.91988   2.93132   2.93555   2.95319   2.98582
 Alpha virt. eigenvalues --    2.99927   3.00536   3.05297   3.05363   3.08962
 Alpha virt. eigenvalues --    3.09583   3.12272   3.12733   3.12792   3.13049
 Alpha virt. eigenvalues --    3.16057   3.27177   3.27560   3.27838   3.30909
 Alpha virt. eigenvalues --    3.31618   3.32597   3.39072   3.45761   3.52519
 Alpha virt. eigenvalues --    3.52597   3.57544   3.58313   3.60536   3.60775
 Alpha virt. eigenvalues --    3.60835   3.61197   3.62412   3.68777   3.71718
 Alpha virt. eigenvalues --    3.72273   3.73693   3.73784   3.74858   3.79255
 Alpha virt. eigenvalues --    3.79773   3.84876   3.96389   3.96455   3.99883
 Alpha virt. eigenvalues --    4.00052   4.08564   4.08935   4.18293   4.19592
 Alpha virt. eigenvalues --    4.22321   4.22364   4.27010   4.27149   4.28077
 Alpha virt. eigenvalues --    4.28755   4.28912   4.29282   4.29702   4.30631
 Alpha virt. eigenvalues --    4.32473   4.34644   4.34822   4.42729   4.42915
 Alpha virt. eigenvalues --    4.46496   4.49248   4.57789   4.59786   4.60173
 Alpha virt. eigenvalues --    4.64280   4.64505   4.66633   4.78233   4.80723
 Alpha virt. eigenvalues --    4.82748   4.82779   4.87010   4.87657   4.89203
 Alpha virt. eigenvalues --    4.89269   5.22892   5.23111   5.23196   5.25603
 Alpha virt. eigenvalues --    5.29961   5.71238   5.71325   6.20983   6.21203
 Alpha virt. eigenvalues --    6.27568   6.27968   6.41280   6.57229   6.66951
 Alpha virt. eigenvalues --    6.95676   6.98997   7.01142   7.02596   7.04662
 Alpha virt. eigenvalues --    7.05014   7.20777   7.22261   7.26926   7.28402
 Alpha virt. eigenvalues --    7.33028   7.33519   7.37945   7.40083   7.44992
 Alpha virt. eigenvalues --    7.49596   7.51090   7.72853   7.77551   7.81428
 Alpha virt. eigenvalues --    7.81896   7.83892   7.90369   7.90637   8.19610
 Alpha virt. eigenvalues --    8.19942   8.37319   8.37428   8.48662   9.27384
 Alpha virt. eigenvalues --   24.32716  25.17250  25.17575  25.48897  25.49507
 Alpha virt. eigenvalues --   25.84874
  Beta  occ. eigenvalues --   -9.79242  -9.79236  -9.78638  -9.78628  -9.78606
  Beta  occ. eigenvalues --   -9.78604  -0.77872  -0.67277  -0.67202  -0.54536
  Beta  occ. eigenvalues --   -0.53579  -0.47591  -0.40649  -0.40229  -0.37757
  Beta  occ. eigenvalues --   -0.37710  -0.33375  -0.30384  -0.30202  -0.23627
  Beta virt. eigenvalues --   -0.22608  -0.04978  -0.03624  -0.00954   0.01284
  Beta virt. eigenvalues --    0.01304   0.03592   0.03593   0.04982   0.05019
  Beta virt. eigenvalues --    0.07160   0.07892   0.08116   0.08563   0.09466
  Beta virt. eigenvalues --    0.12513   0.12747   0.12914   0.12984   0.13034
  Beta virt. eigenvalues --    0.13116   0.14321   0.16819   0.16822   0.18356
  Beta virt. eigenvalues --    0.18378   0.18388   0.19056   0.19144   0.20166
  Beta virt. eigenvalues --    0.20515   0.20686   0.23650   0.26319   0.26436
  Beta virt. eigenvalues --    0.27130   0.27437   0.28098   0.28232   0.30807
  Beta virt. eigenvalues --    0.33410   0.36602   0.36909   0.38709   0.38875
  Beta virt. eigenvalues --    0.39036   0.39779   0.42477   0.42587   0.44634
  Beta virt. eigenvalues --    0.47490   0.48077   0.48807   0.49113   0.51733
  Beta virt. eigenvalues --    0.51798   0.52451   0.53395   0.53462   0.53594
  Beta virt. eigenvalues --    0.53808   0.54029   0.54868   0.54936   0.58092
  Beta virt. eigenvalues --    0.58822   0.59690   0.62102   0.62151   0.68043
  Beta virt. eigenvalues --    0.68764   0.68929   0.71112   0.74614   0.74687
  Beta virt. eigenvalues --    0.75211   0.77249   0.77733   0.83470   0.89908
  Beta virt. eigenvalues --    0.89984   0.92348   0.93472   0.93886   1.00909
  Beta virt. eigenvalues --    1.01081   1.01581   1.03786   1.03877   1.07879
  Beta virt. eigenvalues --    1.08244   1.08417   1.10508   1.10661   1.13862
  Beta virt. eigenvalues --    1.14070   1.15384   1.15633   1.21306   1.22209
  Beta virt. eigenvalues --    1.22845   1.22969   1.23493   1.23908   1.24311
  Beta virt. eigenvalues --    1.25710   1.25906   1.28584   1.28615   1.28994
  Beta virt. eigenvalues --    1.31817   1.32096   1.33736   1.33955   1.36467
  Beta virt. eigenvalues --    1.40866   1.40988   1.40999   1.41429   1.42710
  Beta virt. eigenvalues --    1.43449   1.47443   1.57478   1.57901   1.58031
  Beta virt. eigenvalues --    1.73546   1.78913   1.79481   1.81894   1.82285
  Beta virt. eigenvalues --    1.83081   1.92170   1.92636   1.92654   1.93028
  Beta virt. eigenvalues --    2.03371   2.03634   2.09088   2.23063   2.23732
  Beta virt. eigenvalues --    2.29622   2.32441   2.32915   2.37805   2.38566
  Beta virt. eigenvalues --    2.38657   2.47389   2.50005   2.60368   2.62272
  Beta virt. eigenvalues --    2.65081   2.65346   2.66223   2.68087   2.72630
  Beta virt. eigenvalues --    2.73016   2.73631   2.73674   2.74565   2.74884
  Beta virt. eigenvalues --    2.74991   2.77699   2.78204   2.81621   2.90117
  Beta virt. eigenvalues --    2.90996   2.92714   2.93118   2.94892   2.95502
  Beta virt. eigenvalues --    2.97929   2.99927   3.00583   3.01050   3.05989
  Beta virt. eigenvalues --    3.06197   3.09912   3.10201   3.13528   3.13606
  Beta virt. eigenvalues --    3.13649   3.14105   3.16511   3.28383   3.28484
  Beta virt. eigenvalues --    3.28894   3.32784   3.33186   3.33230   3.39776
  Beta virt. eigenvalues --    3.46614   3.53988   3.54152   3.58133   3.59693
  Beta virt. eigenvalues --    3.61257   3.61404   3.61671   3.61862   3.64860
  Beta virt. eigenvalues --    3.69498   3.73128   3.73415   3.74963   3.75066
  Beta virt. eigenvalues --    3.76222   3.80189   3.80696   3.85014   3.97167
  Beta virt. eigenvalues --    3.97403   4.00142   4.00183   4.09292   4.09418
  Beta virt. eigenvalues --    4.18874   4.20023   4.22399   4.22532   4.26962
  Beta virt. eigenvalues --    4.27166   4.29468   4.29592   4.29862   4.30443
  Beta virt. eigenvalues --    4.31953   4.32261   4.33407   4.35083   4.35092
  Beta virt. eigenvalues --    4.43388   4.43587   4.47410   4.49697   4.58373
  Beta virt. eigenvalues --    4.60903   4.61419   4.64756   4.64759   4.66968
  Beta virt. eigenvalues --    4.80200   4.82771   4.83082   4.83304   4.88185
  Beta virt. eigenvalues --    4.88794   4.89965   4.90053   5.23465   5.23522
  Beta virt. eigenvalues --    5.23746   5.27045   5.30443   5.71608   5.71920
  Beta virt. eigenvalues --    6.21594   6.21900   6.28274   6.28454   6.42077
  Beta virt. eigenvalues --    6.57925   6.67659   6.98359   7.01652   7.03846
  Beta virt. eigenvalues --    7.05090   7.07303   7.07609   7.23607   7.25020
  Beta virt. eigenvalues --    7.29692   7.31290   7.35695   7.36067   7.40514
  Beta virt. eigenvalues --    7.42693   7.47961   7.52432   7.53559   7.75558
  Beta virt. eigenvalues --    7.78829   7.82453   7.82698   7.84831   7.91642
  Beta virt. eigenvalues --    7.91983   8.21050   8.21138   8.38268   8.38426
  Beta virt. eigenvalues --    8.49730   9.28537  24.33508  25.17897  25.18547
  Beta virt. eigenvalues --   25.49804  25.50192  25.85676
          Condensed to atoms (all electrons):
               1          2          3          4          5          6
     1  C    6.321846  -0.025726  -0.183219   0.078437  -0.085615  -0.322107
     2  C   -0.025726   5.927517  -0.027374  -0.085601   0.009193  -0.084622
     3  C   -0.183219  -0.027374   6.318003  -0.318331  -0.084306   0.078063
     4  C    0.078437  -0.085601  -0.318331   6.320541  -0.028072  -0.183334
     5  C   -0.085615   0.009193  -0.084306  -0.028072   5.927469  -0.024558
     6  C   -0.322107  -0.084622   0.078063  -0.183334  -0.024558   6.318390
     7  H    0.466806  -0.086417   0.020817  -0.017715   0.021724  -0.092439
     8  H   -0.082011   0.445981  -0.082192   0.021754  -0.017041   0.021811
     9  H    0.020884  -0.086644   0.466808  -0.092267   0.021750  -0.017747
    10  H   -0.017725   0.021762  -0.092113   0.466717  -0.086686   0.020808
    11  H    0.021756  -0.017029   0.021772  -0.082239   0.446052  -0.082024
    12  H   -0.092626   0.021745  -0.017762   0.020931  -0.086281   0.466801
               7          8          9         10         11         12
     1  C    0.466806  -0.082011   0.020884  -0.017725   0.021756  -0.092626
     2  C   -0.086417   0.445981  -0.086644   0.021762  -0.017029   0.021745
     3  C    0.020817  -0.082192   0.466808  -0.092113   0.021772  -0.017762
     4  C   -0.017715   0.021754  -0.092267   0.466717  -0.082239   0.020931
     5  C    0.021724  -0.017041   0.021750  -0.086686   0.446052  -0.086281
     6  C   -0.092439   0.021811  -0.017747   0.020808  -0.082024   0.466801
     7  H    0.622188  -0.002726  -0.000277   0.000049  -0.000291  -0.002619
     8  H   -0.002726   0.626074  -0.002741  -0.000291   0.000047  -0.000291
     9  H   -0.000277  -0.002741   0.622047  -0.002602  -0.000291   0.000049
    10  H    0.000049  -0.000291  -0.002602   0.622157  -0.002732  -0.000277
    11  H   -0.000291   0.000047  -0.000291  -0.002732   0.626047  -0.002731
    12  H   -0.002619  -0.000291   0.000049  -0.000277  -0.002731   0.622063
          Atomic-Atomic Spin Densities.
               1          2          3          4          5          6
     1  C    0.747232   0.047950  -0.142767   0.051587   0.026471  -0.146610
     2  C    0.047950  -0.283813   0.048830   0.026576  -0.024180   0.027380
     3  C   -0.142767   0.048830   0.742090  -0.146460   0.027497   0.051197
     4  C    0.051587   0.026576  -0.146460   0.746906   0.047771  -0.142754
     5  C    0.026471  -0.024180   0.027497   0.047771  -0.283797   0.048977
     6  C   -0.146610   0.027380   0.051197  -0.142754   0.048977   0.742486
     7  H    0.009028   0.003824  -0.001890   0.001532  -0.002026   0.004420
     8  H   -0.002046   0.001941  -0.002077   0.000331   0.001193   0.000337
     9  H   -0.001888   0.003756   0.008984   0.004446  -0.002013   0.001530
    10  H    0.001533  -0.002024   0.004456   0.009024   0.003788  -0.001898
    11  H    0.000330   0.001193   0.000337  -0.002030   0.001940  -0.002091
    12  H    0.004412  -0.002020   0.001533  -0.001886   0.003783   0.009001
               7          8          9         10         11         12
     1  C    0.009028  -0.002046  -0.001888   0.001533   0.000330   0.004412
     2  C    0.003824   0.001941   0.003756  -0.002024   0.001193  -0.002020
     3  C   -0.001890  -0.002077   0.008984   0.004456   0.000337   0.001533
     4  C    0.001532   0.000331   0.004446   0.009024  -0.002030  -0.001886
     5  C   -0.002026   0.001193  -0.002013   0.003788   0.001940   0.003783
     6  C    0.004420   0.000337   0.001530  -0.001898  -0.002091   0.009001
     7  H   -0.032555   0.000123   0.000021  -0.000003   0.000007   0.000108
     8  H    0.000123  -0.001597   0.000123   0.000007   0.000000   0.000007
     9  H    0.000021   0.000123  -0.032404   0.000108   0.000007  -0.000003
    10  H   -0.000003   0.000007   0.000108  -0.032544   0.000123   0.000021
    11  H    0.000007   0.000000   0.000007   0.000123  -0.001596   0.000122
    12  H    0.000108   0.000007  -0.000003   0.000021   0.000122  -0.032412
 Mulliken charges and spin densities:
               1          2
     1  C   -0.100700   0.595233
     2  C   -0.012785  -0.150585
     3  C   -0.100167   0.591728
     4  C   -0.100822   0.595042
     5  C   -0.013629  -0.150596
     6  C   -0.099043   0.591975
     7  H    0.070898  -0.017410
     8  H    0.071626  -0.001657
     9  H    0.071030  -0.017333
    10  H    0.070932  -0.017408
    11  H    0.071663  -0.001657
    12  H    0.070998  -0.017333
 Sum of Mulliken charges =   0.00000   2.00000
 Mulliken charges and spin densities with hydrogens summed into heavy atoms:
               1          2
     1  C   -0.029803   0.577823
     2  C    0.058841  -0.152243
     3  C   -0.029137   0.574395
     4  C   -0.029890   0.577635
     5  C    0.058033  -0.152253
     6  C   -0.028045   0.574642
 Electronic spatial extent (au):  <R**2>=            462.5690
 Charge=              0.0000 electrons
 Dipole moment (field-independent basis, Debye):
    X=              0.0002    Y=              0.0001    Z=              0.0008  Tot=              0.0009
 Quadrupole moment (field-independent basis, Debye-Ang):
   XX=            -33.0416   YY=            -32.7152   ZZ=            -40.5550
   XY=              0.5796   XZ=              0.0017   YZ=              0.0001
 Traceless Quadrupole moment (field-independent basis, Debye-Ang):
   XX=              2.3957   YY=              2.7221   ZZ=             -5.1178
   XY=              0.5796   XZ=              0.0017   YZ=              0.0001
 Octapole moment (field-independent basis, Debye-Ang**2):
  XXX=             -0.0009  YYY=             -0.0008  ZZZ=              0.0014  XYY=              0.0027
  XXY=              0.0018  XXZ=              0.0026  XZZ=              0.0009  YZZ=              0.0002
  YYZ=              0.0058  XYZ=              0.0013
 Hexadecapole moment (field-independent basis, Debye-Ang**3):
 XXXX=           -287.1702 YYYY=           -286.7185 ZZZZ=            -51.2759 XXXY=             -1.1007
 XXXZ=              0.0099 YYYX=              1.8709 YYYZ=              0.0041 ZZZX=              0.0019
 ZZZY=              0.0004 XXYY=            -92.3089 XXZZ=            -68.5689 YYZZ=            -68.0060
 XXYZ=             -0.0040 YYXZ=              0.0050 ZZXY=              0.9869
 N-N= 2.030307482098D+02 E-N=-9.416675554725D+02  KE= 2.286707442374D+02

 Atomic contributions to Alpha molecular orbitals:
 Alpha occ 17 OE=-0.360 is C1-p=0.17 C6-p=0.17 C4-p=0.17 C3-p=0.17 C2-p=0.14 C5-p=0.14
 Alpha occ 18 OE=-0.311 is H11-s=0.12 H8-s=0.12 C5-p=0.10 C2-p=0.10 C4-p=0.10 C3-p=0.10 C1-p=0.10 C6-p=0.10
 Alpha occ 19 OE=-0.309 is C5-p=0.11 C2-p=0.11 C6-p=0.11 C1-p=0.11 C3-p=0.11 C4-p=0.11
 Alpha occ 20 OE=-0.268 is C4-p=0.23 C1-p=0.23 C3-p=0.23 C6-p=0.23
 Alpha occ 21 OE=-0.249 is C5-p=0.28 C2-p=0.28
 Alpha occ 22 OE=-0.076 is C1-p=0.22 C4-p=0.22 C6-p=0.22 C3-p=0.22
 Alpha vir 23 OE=-0.063 is C5-p=0.31 C2-p=0.31
 Alpha vir 24 OE=-0.013 is C2-s=0.18 C5-s=0.18 C6-s=0.16 C3-s=0.16 C4-s=0.15 C1-s=0.15
 Alpha vir 25 OE=0.010 is C2-p=-0.81 C5-p=-0.81 C6-s=0.49 C3-s=0.49 C1-s=0.48 C4-s=0.48 C3-p=0.26 C6-p=0.26 C4-p=0.26 C1-p=0.26 H9-s=-0.12 H12-s=-0.12 H10-s=-0.12 H7-s=-0.12
 Alpha vir 26 OE=0.012 is C5-p=0.62 C2-p=0.62 C2-s=0.52 C5-s=0.52 C6-p=-0.37 C3-p=-0.37 C1-p=-0.36 C4-p=-0.36 H8-s=-0.16 H11-s=-0.16 C4-s=0.15 C1-s=0.15 C3-s=0.15 C6-s=0.15
 Alpha vir 27 OE=0.033 is C4-p=1.10 C1-p=1.10 C3-p=1.10 C6-p=1.10 C4-s=-0.96 C1-s=-0.96 C3-s=-0.96 C6-s=-0.96 C5-p=0.36 C2-p=0.36
 Alpha vir 28 OE=0.035 is C5-s=-1.74 C2-s=-1.74 C5-p=1.19 C2-p=1.19 C6-p=0.72 C3-p=0.72 C4-p=0.72 C1-p=0.72 C6-s=-0.14 C3-s=-0.14 C1-s=-0.13 C4-s=-0.13 H8-s=-0.11 H11-s=-0.11

 Atomic contributions to Beta  molecular orbitals:
 Beta  occ 15 OE=-0.378 is C5-p=0.18 C2-p=0.18 H11-s=0.11 H8-s=0.11
 Beta  occ 16 OE=-0.377 is C1-p=0.14 C4-p=0.14 C6-p=0.14 C3-p=0.14
 Beta  occ 17 OE=-0.334 is C2-p=0.18 C5-p=0.18 C6-p=0.15 C3-p=0.15 C1-p=0.15 C4-p=0.15
 Beta  occ 18 OE=-0.304 is H11-s=0.11 H8-s=0.11 C4-p=0.11 C3-p=0.11 C1-p=0.11 C6-p=0.11 C5-p=0.10 C2-p=0.10
 Beta  occ 19 OE=-0.302 is C5-p=0.11 C2-p=0.11 C6-p=0.10 C1-p=0.10 C3-p=0.10 C4-p=0.10
 Beta  occ 20 OE=-0.236 is C5-p=0.32 C2-p=0.32
 Beta  vir 21 OE=-0.226 is C1-p=0.23 C4-p=0.23 C6-p=0.23 C3-p=0.23
 Beta  vir 22 OE=-0.050 is C5-p=0.27 C2-p=0.27
 Beta  vir 23 OE=-0.036 is C1-p=0.21 C4-p=0.21 C6-p=0.21 C3-p=0.21
 Beta  vir 24 OE=-0.010 is C2-s=0.17 C5-s=0.17 C6-s=0.15 C3-s=0.15 C4-s=0.15 C1-s=0.15
 Beta  vir 25 OE=0.013 is C2-p=-0.79 C5-p=-0.79 C6-s=0.47 C3-s=0.47 C1-s=0.44 C4-s=0.44 C3-p=0.32 C6-p=0.31 C4-p=0.25 C1-p=0.25 H9-s=-0.12 H12-s=-0.12 H10-s=-0.12 H7-s=-0.11
 Beta  vir 26 OE=0.013 is C5-p=0.64 C2-p=0.64 C2-s=0.52 C5-s=0.52 C6-p=-0.42 C3-p=-0.42 C1-p=-0.35 C4-p=-0.35 C4-s=0.17 C1-s=0.17 H8-s=-0.16 H11-s=-0.16 C3-s=0.14 C6-s=0.14
 
                          Isotropic Fermi Contact Couplings
        Atom                 a.u.       MegaHertz       Gauss      10(-4) cm-1
     1  C(13)             -0.01507      -8.46847      -3.02176      -2.82478
     2  C(13)             -0.02459     -13.82025      -4.93141      -4.60994
     3  C(13)             -0.01509      -8.48424      -3.02739      -2.83004
     4  C(13)             -0.01504      -8.45572      -3.01721      -2.82053
     5  C(13)             -0.02459     -13.82119      -4.93175      -4.61025
     6  C(13)             -0.01511      -8.49504      -3.03124      -2.83364
     7  H(1)              -0.00676     -15.10312      -5.38917      -5.03786
     8  H(1)              -0.00005      -0.11502      -0.04104      -0.03837
     9  H(1)              -0.00673     -15.03356      -5.36435      -5.01465
    10  H(1)              -0.00676     -15.09926      -5.38779      -5.03657
    11  H(1)              -0.00005      -0.11492      -0.04101      -0.03833
    12  H(1)              -0.00673     -15.03733      -5.36569      -5.01591
 --------------------------------------------------------
       Center         ----  Spin Dipole Couplings  ----
                      3XX-RR        3YY-RR        3ZZ-RR
 --------------------------------------------------------
     1   Atom       -0.348635     -0.341186      0.689820
     2   Atom        0.043806      0.051341     -0.095148
     3   Atom       -0.335479     -0.350638      0.686116
     4   Atom       -0.348539     -0.341041      0.689580
     5   Atom        0.043836      0.051321     -0.095157
     6   Atom       -0.335610     -0.350758      0.686368
     7   Atom       -0.046372      0.049938     -0.003565
     8   Atom        0.006668      0.004947     -0.011616
     9   Atom        0.039865     -0.036260     -0.003605
    10   Atom       -0.046340      0.049910     -0.003570
    11   Atom        0.006651      0.004963     -0.011614
    12   Atom        0.039897     -0.036296     -0.003601
 --------------------------------------------------------
                        XY            XZ            YZ
 --------------------------------------------------------
     1   Atom       -0.008561      0.000482      0.000072
     2   Atom        0.013724      0.000001      0.000003
     3   Atom       -0.005473     -0.000425     -0.000406
     4   Atom       -0.008530     -0.000237     -0.000240
     5   Atom        0.013724      0.000027     -0.000035
     6   Atom       -0.005512      0.000189      0.000321
     7   Atom        0.006042      0.000017      0.000002
     8   Atom       -0.002990     -0.000006      0.000007
     9   Atom        0.029758      0.000025     -0.000004
    10   Atom        0.006078     -0.000008      0.000014
    11   Atom       -0.002995      0.000003     -0.000006
    12   Atom        0.029755     -0.000007      0.000007
 --------------------------------------------------------


 ---------------------------------------------------------------------------------
              Anisotropic Spin Dipole Couplings in Principal Axis System
 ---------------------------------------------------------------------------------

       Atom             a.u.   MegaHertz   Gauss  10(-4) cm-1        Axes

              Baa    -0.3542   -47.537   -16.962   -15.856  0.8363  0.5482 -0.0004
     1 C(13)  Bbb    -0.3356   -45.031   -16.068   -15.021 -0.5482  0.8363  0.0002
              Bcc     0.6898    92.567    33.030    30.877  0.0005  0.0001  1.0000
 
              Baa    -0.0951   -12.768    -4.556    -4.259  0.0000  0.0000  1.0000
     2 C(13)  Bbb     0.0333     4.474     1.597     1.492  0.7952 -0.6063  0.0000
              Bcc     0.0618     8.294     2.959     2.766  0.6063  0.7952  0.0000
 
              Baa    -0.3524   -47.290   -16.874   -15.774  0.3076  0.9515  0.0005
     3 C(13)  Bbb    -0.3337   -44.781   -15.979   -14.937  0.9515 -0.3076  0.0003
              Bcc     0.6861    92.070    32.853    30.711 -0.0004 -0.0004  1.0000
 
              Baa    -0.3541   -47.518   -16.956   -15.850  0.8374  0.5466  0.0003
     4 C(13)  Bbb    -0.3355   -45.017   -16.063   -15.016 -0.5466  0.8374  0.0001
              Bcc     0.6896    92.535    33.019    30.866 -0.0002 -0.0002  1.0000
 
              Baa    -0.0952   -12.769    -4.556    -4.259 -0.0002  0.0003  1.0000
     5 C(13)  Bbb     0.0334     4.476     1.597     1.493  0.7947 -0.6070  0.0003
              Bcc     0.0618     8.293     2.959     2.766  0.6070  0.7947 -0.0001
 
              Baa    -0.3526   -47.309   -16.881   -15.781  0.3094  0.9509 -0.0004
     6 C(13)  Bbb    -0.3338   -44.795   -15.984   -14.942  0.9509 -0.3094 -0.0001
              Bcc     0.6864    92.104    32.865    30.723  0.0002  0.0003  1.0000
 
              Baa    -0.0467   -24.943    -8.900    -8.320  0.9981 -0.0624 -0.0004
     7 H(1)   Bbb    -0.0036    -1.902    -0.679    -0.635  0.0004 -0.0001  1.0000
              Bcc     0.0503    26.846     9.579     8.955  0.0624  0.9981  0.0001
 
              Baa    -0.0116    -6.198    -2.212    -2.067  0.0003 -0.0004  1.0000
     8 H(1)   Bbb     0.0027     1.439     0.513     0.480  0.6014  0.7989  0.0001
              Bcc     0.0089     4.759     1.698     1.587  0.7989 -0.6014 -0.0004
 
              Baa    -0.0465   -24.817    -8.855    -8.278 -0.3257  0.9455  0.0003
     9 H(1)   Bbb    -0.0036    -1.923    -0.686    -0.642 -0.0003 -0.0004  1.0000
              Bcc     0.0501    26.740     9.541     8.919  0.9455  0.3257  0.0004
 
              Baa    -0.0467   -24.929    -8.895    -8.315  0.9980 -0.0628  0.0002
    10 H(1)   Bbb    -0.0036    -1.905    -0.680    -0.635 -0.0002 -0.0002  1.0000
              Bcc     0.0503    26.834     9.575     8.951  0.0628  0.9980  0.0002
 
              Baa    -0.0116    -6.197    -2.211    -2.067 -0.0001  0.0004  1.0000
    11 H(1)   Bbb     0.0027     1.438     0.513     0.480  0.6036  0.7973 -0.0002
              Bcc     0.0089     4.758     1.698     1.587  0.7973 -0.6036  0.0003
 
              Baa    -0.0465   -24.831    -8.860    -8.283 -0.3255  0.9455 -0.0002
    12 H(1)   Bbb    -0.0036    -1.921    -0.686    -0.641  0.0000  0.0002  1.0000
              Bcc     0.0501    26.752     9.546     8.924  0.9455  0.3255 -0.0001
 

 ---------------------------------------------------------------------------------

 Calling FoFJK, ICntrl=      2527 FMM=F ISym2X=0 I1Cent= 0 IOpClX= 0 NMat=1 NMatS=1 NMatT=0.
 ***** Axes restored to original set *****
 -------------------------------------------------------------------
 Center     Atomic                   Forces (Hartrees/Bohr)
 Number     Number              X              Y              Z
 -------------------------------------------------------------------
      1        6           0.047557504   -0.070297717    0.000020545
      2        6          -0.002030739    0.004009938    0.000096073
      3        6           0.036806872   -0.076115984    0.000036312
      4        6          -0.047075990    0.069923401   -0.000063857
      5        6           0.001644875   -0.004212232    0.000029794
      6        6          -0.036873449    0.076766322   -0.000073417
      7        1           0.003701044    0.003321141   -0.000001032
      8        1          -0.002247036    0.003932429   -0.000038610
      9        1          -0.004776767   -0.001555035    0.000002083
     10        1          -0.003744477   -0.003346815   -0.000016704
     11        1           0.002310447   -0.003973873    0.000010303
     12        1           0.004727717    0.001548424   -0.000001490
 -------------------------------------------------------------------
 Cartesian Forces:  Max     0.076766322 RMS     0.028329547

 GradGradGradGradGradGradGradGradGradGradGradGradGradGradGradGradGradGrad
 Berny optimization.
 FormGI is forming the generalized inverse of G from B-inverse, IUseBI=4.
 Internal  Forces:  Max     0.079173337 RMS     0.015623584
 Search for a local minimum.
 Step number   1 out of a maximum of   64
 All quantities printed in internal units (Hartrees-Bohrs-Radians)
 Mixed Optimization -- RFO/linear search
 Second derivative matrix not updated -- first step.
 ITU=  0
     Eigenvalues ---    0.02152   0.02153   0.02154   0.02155   0.02155
     Eigenvalues ---    0.02155   0.02155   0.02156   0.02157   0.16000
     Eigenvalues ---    0.16000   0.16000   0.16000   0.16000   0.16000
     Eigenvalues ---    0.22000   0.22000   0.22000   0.33709   0.33718
     Eigenvalues ---    0.33718   0.33720   0.33725   0.33726   0.42106
     Eigenvalues ---    0.42123   0.46412   0.46453   0.46466   0.46497
 RFO step:  Lambda=-2.69991272D-02 EMin= 2.15189816D-02
 Linear search not attempted -- first point.
 Iteration  1 RMS(Cart)=  0.03949084 RMS(Int)=  0.00003007
 Iteration  2 RMS(Cart)=  0.00003428 RMS(Int)=  0.00000036
 Iteration  3 RMS(Cart)=  0.00000000 RMS(Int)=  0.00000036
 Variable       Old X    -DE/DX   Delta X   Delta X   Delta X     New X
                                 (Linear)    (Quad)   (Total)
    R1        2.63647  -0.01164   0.00000  -0.02367  -0.02367   2.61280
    R2        2.63584   0.07917   0.00000   0.16099   0.16099   2.79683
    R3        2.07796  -0.00473   0.00000  -0.01298  -0.01298   2.06499
    R4        2.63562  -0.01192   0.00000  -0.02423  -0.02423   2.61139
    R5        2.07805  -0.00453   0.00000  -0.01244  -0.01244   2.06561
    R6        2.63697   0.07872   0.00000   0.16035   0.16035   2.79732
    R7        2.07809  -0.00478   0.00000  -0.01312  -0.01312   2.06498
    R8        2.63584  -0.01143   0.00000  -0.02325  -0.02325   2.61258
    R9        2.07809  -0.00477   0.00000  -0.01310  -0.01310   2.06499
   R10        2.63643  -0.01220   0.00000  -0.02481  -0.02481   2.61161
   R11        2.07825  -0.00460   0.00000  -0.01263  -0.01263   2.06562
   R12        2.07795  -0.00473   0.00000  -0.01298  -0.01298   2.06497
    A1        2.09437   0.00056   0.00000   0.00236   0.00236   2.09673
    A2        2.09435  -0.00188   0.00000  -0.00971  -0.00971   2.08464
    A3        2.09447   0.00131   0.00000   0.00734   0.00734   2.10181
    A4        2.09455  -0.00116   0.00000  -0.00466  -0.00466   2.08988
    A5        2.09406   0.00059   0.00000   0.00238   0.00238   2.09644
    A6        2.09458   0.00057   0.00000   0.00228   0.00228   2.09686
    A7        2.09429   0.00058   0.00000   0.00227   0.00227   2.09657
    A8        2.09462  -0.00192   0.00000  -0.00983  -0.00983   2.08479
    A9        2.09427   0.00134   0.00000   0.00756   0.00756   2.10183
   A10        2.09429   0.00061   0.00000   0.00239   0.00239   2.09668
   A11        2.09407   0.00131   0.00000   0.00746   0.00746   2.10152
   A12        2.09483  -0.00192   0.00000  -0.00985  -0.00985   2.08498
   A13        2.09448  -0.00113   0.00000  -0.00460  -0.00460   2.08987
   A14        2.09459   0.00054   0.00000   0.00217   0.00217   2.09677
   A15        2.09411   0.00059   0.00000   0.00243   0.00243   2.09654
   A16        2.09440   0.00054   0.00000   0.00224   0.00224   2.09663
   A17        2.09453   0.00135   0.00000   0.00755   0.00755   2.10208
   A18        2.09426  -0.00189   0.00000  -0.00978  -0.00978   2.08447
    D1        0.00056  -0.00001   0.00000  -0.00030  -0.00030   0.00027
    D2        3.14078   0.00002   0.00000   0.00031   0.00031   3.14108
    D3       -3.14112  -0.00001   0.00000  -0.00028  -0.00028  -3.14140
    D4       -0.00091   0.00002   0.00000   0.00033   0.00033  -0.00058
    D5        0.00026   0.00000   0.00000  -0.00001  -0.00001   0.00025
    D6        3.14140   0.00001   0.00000   0.00008   0.00008   3.14148
    D7       -3.14124   0.00000   0.00000  -0.00003  -0.00003  -3.14127
    D8       -0.00010   0.00000   0.00000   0.00006   0.00006  -0.00004
    D9       -0.00099   0.00002   0.00000   0.00035   0.00035  -0.00064
   D10        3.14093   0.00002   0.00000   0.00028   0.00028   3.14120
   D11       -3.14120  -0.00001   0.00000  -0.00025  -0.00025  -3.14146
   D12        0.00072  -0.00001   0.00000  -0.00033  -0.00033   0.00039
   D13        0.00060   0.00000   0.00000  -0.00007  -0.00007   0.00052
   D14       -3.14153   0.00000   0.00000   0.00003   0.00003  -3.14150
   D15       -3.14132   0.00000   0.00000   0.00000   0.00000  -3.14132
   D16       -0.00026   0.00001   0.00000   0.00010   0.00010  -0.00016
   D17        0.00023  -0.00001   0.00000  -0.00023  -0.00023   0.00000
   D18       -3.14158   0.00000   0.00000  -0.00003  -0.00003   3.14157
   D19       -3.14083  -0.00001   0.00000  -0.00033  -0.00033  -3.14116
   D20        0.00054   0.00000   0.00000  -0.00013  -0.00013   0.00041
   D21       -0.00066   0.00002   0.00000   0.00028   0.00028  -0.00037
   D22        3.14138   0.00001   0.00000   0.00019   0.00019   3.14158
   D23        3.14116   0.00001   0.00000   0.00008   0.00008   3.14124
   D24        0.00001   0.00000   0.00000  -0.00001  -0.00001   0.00000
         Item               Value     Threshold  Converged?
 Maximum Force            0.079173     0.000450     NO 
 RMS     Force            0.015624     0.000300     NO 
 Maximum Displacement     0.097358     0.001800     NO 
 RMS     Displacement     0.039464     0.001200     NO 
 Predicted change in Energy=-1.425042D-02
 GradGradGradGradGradGradGradGradGradGradGradGradGradGradGradGradGradGrad

                          Input orientation:                          
 ---------------------------------------------------------------------
 Center     Atomic      Atomic             Coordinates (Angstroms)
 Number     Number       Type             X           Y           Z
 ---------------------------------------------------------------------
      1          6           0       -0.013827    0.429698    0.000040
      2          6           0        1.368803    0.426487    0.000257
      3          6           0        2.057128    1.624748    0.000050
      4          6           0        1.316965    2.906694   -0.001222
      5          6           0       -0.065551    2.909828   -0.001584
      6          6           0       -0.753856    1.711421   -0.000754
      7          1           0       -0.553148   -0.520681    0.000392
      8          1           0        1.915075   -0.520296    0.001324
      9          1           0        3.149836    1.616641    0.000594
     10          1           0        1.856560    3.856922   -0.001473
     11          1           0       -0.612190    3.856405   -0.002505
     12          1           0       -1.846560    1.719801   -0.001031
 ---------------------------------------------------------------------
                    Distance matrix (angstroms):
                    1          2          3          4          5
     1  C    0.000000
     2  C    1.382634   0.000000
     3  C    2.391025   1.381891   0.000000
     4  C    2.811853   2.480750   1.480280   0.000000
     5  C    2.480669   2.867814   2.481370   1.382520   0.000000
     6  C    1.480019   2.481277   2.812319   2.391020   1.382007
     7  H    1.092744   2.142668   3.378818   3.904386   3.464989
     8  H    2.150153   1.093075   2.149743   3.478794   3.960889
     9  H    3.378994   2.142089   1.092739   2.241352   3.465697
    10  H    3.904384   3.464938   2.241167   1.092747   2.142778
    11  H    3.478558   3.960894   3.479304   2.150254   1.093080
    12  H    2.241267   3.465721   3.904845   3.378846   2.141998
                    6          7          8          9         10
     6  C    0.000000
     7  H    2.241108   0.000000
     8  H    3.479045   2.468224   0.000000
     9  H    3.904843   4.275540   2.468023   0.000000
    10  H    3.378971   4.997010   4.377610   2.586779   0.000000
    11  H    2.149658   4.377485   5.053969   4.378287   2.468750
    12  H    1.092736   2.587021   4.378121   4.997461   4.275556
                   11         12
    11  H    0.000000
    12  H    2.467538   0.000000
 Stoichiometry    C6H6(3)
 Framework group  C1[X(C6H6)]
 Deg. of freedom    30
 Prev. full point group           C1      NOp   1
 Prev. largest Abelian subgroup   C1      NOp   1
       concise Abelian subgroup   C1      NOp   1
                   Standard orientation:
 ---------------------------------------------------------------------
 Center     Atomic                     Coordinates (Angstroms)
 Number     Number                        X           Y           Z
 ---------------------------------------------------------------------
      1          6                    0.047030   -1.405112    0.001460
      2          6                    1.244019   -0.713090    0.001576
      3          6                    1.236971    0.668783    0.000499
      4          6                   -0.047150    1.405162   -0.001595
      5          6                   -1.244001    0.713130   -0.001857
      6          6                   -1.236864   -0.668857   -0.000156
      7          1                    0.058335   -2.497796    0.002502
      8          1                    2.192083   -1.257133    0.003250
      9          1                    2.185764    1.210881    0.000967
     10          1                   -0.058142    2.497854   -0.002537
     11          1                   -2.192280    1.256811   -0.003385
     12          1                   -2.185790   -1.210716   -0.000357
 ---------------------------------------------------------------------
 Rotational constants (GHZ):      5.8071429      5.3057059      2.7725558
 Standard basis: 6-311+G(3df,2pd) (5D, 7F)
 There are   360 symmetry adapted cartesian basis functions of A   symmetry.
 There are   318 symmetry adapted basis functions of A   symmetry.
   318 basis functions,   450 primitive gaussians,   360 cartesian basis functions
    22 alpha electrons       20 beta electrons
       nuclear repulsion energy       200.8878818617 Hartrees.
 NAtoms=   12 NActive=   12 NUniq=   12 SFac= 1.00D+00 NAtFMM=   60 NAOKFM=F Big=F
 Integral buffers will be    131072 words long.
 Raffenetti 2 integral format.
 Two-electron integral symmetry is turned on.
 One-electron integrals computed using PRISM.
 NBasis=   318 RedAO= T EigKep=  2.32D-06  NBF=   318
 NBsUse=   318 1.00D-06 EigRej= -1.00D+00 NBFU=   318
 Initial guess from the checkpoint file:  "Benzene.chk"
 B after Tr=     0.000000    0.000000    0.000000
         Rot=    0.997893    0.000542    0.000385   -0.064873 Ang=   7.44 deg.
 Initial guess <Sx>= 0.0000 <Sy>= 0.0000 <Sz>= 1.0000 <S**2>= 2.0116 S= 1.0039
 ExpMin= 4.38D-02 ExpMax= 4.56D+03 ExpMxC= 6.82D+02 IAcc=2 IRadAn=         4 AccDes= 0.00D+00
 Harris functional with IExCor=  201 and IRadAn=       4 diagonalized for initial guess.
 HarFok:  IExCor=  201 AccDes= 0.00D+00 IRadAn=         4 IDoV= 1 UseB2=F ITyADJ=14
 ICtDFT=  3500011 ScaDFX=  1.000000  1.000000  1.000000  1.000000
 FoFCou: FMM=F IPFlag=           0 FMFlag=      100000 FMFlg1=           0
         NFxFlg=           0 DoJE=T BraDBF=F KetDBF=T FulRan=T
         wScrn=  0.000000 ICntrl=     500 IOpCl=  0 I1Cent=   200000004 NGrid=           0
         NMat0=    1 NMatS0=      1 NMatT0=    0 NMatD0=    1 NMtDS0=    0 NMtDT0=    0
 Petite list used in FoFCou.
 Requested convergence on RMS density matrix=1.00D-08 within 128 cycles.
 Requested convergence on MAX density matrix=1.00D-06.
 Requested convergence on             energy=1.00D-06.
 No special actions if energy rises.
 SCF Done:  E(US-VWN5) =  -230.017269606     A.U. after   11 cycles
            NFock= 11  Conv=0.10D-07     -V/T= 2.0067
 <Sx>= 0.0000 <Sy>= 0.0000 <Sz>= 1.0000 <S**2>= 2.0119 S= 1.0040
 <L.S>= 0.000000000000E+00
 Annihilation of the first spin contaminant:
 S**2 before annihilation     2.0119,   after     2.0001
 Calling FoFJK, ICntrl=      2527 FMM=F ISym2X=0 I1Cent= 0 IOpClX= 0 NMat=1 NMatS=1 NMatT=0.
 ***** Axes restored to original set *****
 -------------------------------------------------------------------
 Center     Atomic                   Forces (Hartrees/Bohr)
 Number     Number              X              Y              Z
 -------------------------------------------------------------------
      1        6           0.009065308   -0.015089582   -0.000002723
      2        6          -0.005033266    0.008627025    0.000046650
      3        6           0.008352632   -0.015336264   -0.000008311
      4        6          -0.008915263    0.014978795   -0.000003152
      5        6           0.004909214   -0.008697289    0.000012971
      6        6          -0.008377799    0.015518116   -0.000027068
      7        1          -0.001628799    0.001806979   -0.000000347
      8        1           0.000016487   -0.000009501   -0.000019097
      9        1          -0.000741313    0.002327096    0.000001187
     10        1           0.001606720   -0.001798634   -0.000008953
     11        1           0.000008408    0.000019670    0.000005620
     12        1           0.000737670   -0.002346410    0.000003224
 -------------------------------------------------------------------
 Cartesian Forces:  Max     0.015518116 RMS     0.006352919

 GradGradGradGradGradGradGradGradGradGradGradGradGradGradGradGradGradGrad
 Berny optimization.
 Using GEDIIS/GDIIS optimizer.
 FormGI is forming the generalized inverse of G from B-inverse, IUseBI=4.
 Internal  Forces:  Max     0.010219096 RMS     0.002546545
 Search for a local minimum.
 Step number   2 out of a maximum of   64
 All quantities printed in internal units (Hartrees-Bohrs-Radians)
 Mixed Optimization -- RFO/linear search
 Update second derivatives using D2CorX and points    1    2
 DE= -1.44D-02 DEPred=-1.43D-02 R= 1.01D+00
 TightC=F SS=  1.41D+00  RLast= 2.36D-01 DXNew= 5.0454D-01 7.0752D-01
 Trust test= 1.01D+00 RLast= 2.36D-01 DXMaxT set to 5.05D-01
 ITU=  1  0
 Use linear search instead of GDIIS.
     Eigenvalues ---    0.02152   0.02153   0.02154   0.02155   0.02155
     Eigenvalues ---    0.02155   0.02155   0.02156   0.02157   0.16000
     Eigenvalues ---    0.16000   0.16000   0.16000   0.16000   0.16110
     Eigenvalues ---    0.21815   0.22000   0.22000   0.33680   0.33714
     Eigenvalues ---    0.33718   0.33722   0.33726   0.33763   0.42021
     Eigenvalues ---    0.42399   0.43106   0.46451   0.46467   0.46630
 RFO step:  Lambda=-9.32554863D-04 EMin= 2.15184347D-02
 Quartic linear search produced a step of  0.17675.
 Iteration  1 RMS(Cart)=  0.00744294 RMS(Int)=  0.00005721
 Iteration  2 RMS(Cart)=  0.00009049 RMS(Int)=  0.00000108
 Iteration  3 RMS(Cart)=  0.00000000 RMS(Int)=  0.00000108
 Variable       Old X    -DE/DX   Delta X   Delta X   Delta X     New X
                                 (Linear)    (Quad)   (Total)
    R1        2.61280  -0.00240  -0.00418  -0.00331  -0.00749   2.60531
    R2        2.79683   0.01022   0.02845   0.00705   0.03551   2.83234
    R3        2.06499  -0.00077  -0.00229  -0.00128  -0.00358   2.06141
    R4        2.61139  -0.00235  -0.00428  -0.00312  -0.00740   2.60399
    R5        2.06561   0.00002  -0.00220   0.00139  -0.00081   2.06480
    R6        2.79732   0.01010   0.02834   0.00689   0.03523   2.83255
    R7        2.06498  -0.00076  -0.00232  -0.00123  -0.00355   2.06142
    R8        2.61258  -0.00233  -0.00411  -0.00319  -0.00730   2.60529
    R9        2.06499  -0.00077  -0.00232  -0.00128  -0.00359   2.06140
   R10        2.61161  -0.00242  -0.00439  -0.00323  -0.00762   2.60399
   R11        2.06562   0.00001  -0.00223   0.00140  -0.00083   2.06479
   R12        2.06497  -0.00076  -0.00229  -0.00124  -0.00353   2.06144
    A1        2.09673  -0.00206   0.00042  -0.01118  -0.01076   2.08597
    A2        2.08464   0.00341  -0.00172   0.02356   0.02184   2.10648
    A3        2.10181  -0.00135   0.00130  -0.01238  -0.01108   2.09074
    A4        2.08988   0.00403  -0.00082   0.02187   0.02105   2.11093
    A5        2.09644  -0.00200   0.00042  -0.01082  -0.01040   2.08604
    A6        2.09686  -0.00203   0.00040  -0.01105  -0.01065   2.08621
    A7        2.09657  -0.00197   0.00040  -0.01069  -0.01029   2.08628
    A8        2.08479   0.00339  -0.00174   0.02352   0.02178   2.10657
    A9        2.10183  -0.00142   0.00134  -0.01283  -0.01150   2.09034
   A10        2.09668  -0.00205   0.00042  -0.01117  -0.01075   2.08593
   A11        2.10152  -0.00133   0.00132  -0.01221  -0.01090   2.09063
   A12        2.08498   0.00338  -0.00174   0.02339   0.02165   2.10663
   A13        2.08987   0.00403  -0.00081   0.02187   0.02106   2.11093
   A14        2.09677  -0.00203   0.00038  -0.01101  -0.01062   2.08614
   A15        2.09654  -0.00200   0.00043  -0.01087  -0.01044   2.08611
   A16        2.09663  -0.00198   0.00040  -0.01070  -0.01031   2.08632
   A17        2.10208  -0.00144   0.00133  -0.01297  -0.01163   2.09045
   A18        2.08447   0.00341  -0.00173   0.02367   0.02194   2.10641
    D1        0.00027  -0.00001  -0.00005  -0.00052  -0.00058  -0.00031
    D2        3.14108   0.00001   0.00005   0.00058   0.00063  -3.14147
    D3       -3.14140  -0.00001  -0.00005  -0.00048  -0.00053   3.14126
    D4       -0.00058   0.00001   0.00006   0.00063   0.00068   0.00010
    D5        0.00025   0.00000   0.00000  -0.00003  -0.00003   0.00022
    D6        3.14148   0.00000   0.00001   0.00019   0.00020  -3.14150
    D7       -3.14127   0.00000   0.00000  -0.00007  -0.00008  -3.14135
    D8       -0.00004   0.00000   0.00001   0.00014   0.00015   0.00011
    D9       -0.00064   0.00001   0.00006   0.00065   0.00071   0.00007
   D10        3.14120   0.00001   0.00005   0.00047   0.00052  -3.14146
   D11       -3.14146  -0.00001  -0.00004  -0.00045  -0.00050   3.14123
   D12        0.00039  -0.00001  -0.00006  -0.00063  -0.00069  -0.00031
   D13        0.00052   0.00000  -0.00001  -0.00024  -0.00026   0.00027
   D14       -3.14150   0.00000   0.00000   0.00004   0.00004  -3.14146
   D15       -3.14132   0.00000   0.00000  -0.00006  -0.00006  -3.14138
   D16       -0.00016   0.00000   0.00002   0.00023   0.00024   0.00008
   D17        0.00000   0.00000  -0.00004  -0.00031  -0.00035  -0.00035
   D18        3.14157   0.00000  -0.00001  -0.00007  -0.00007   3.14150
   D19       -3.14116  -0.00001  -0.00006  -0.00059  -0.00065   3.14137
   D20        0.00041  -0.00001  -0.00002  -0.00034  -0.00037   0.00004
   D21       -0.00037   0.00001   0.00005   0.00044   0.00049   0.00012
   D22        3.14158   0.00000   0.00003   0.00024   0.00027  -3.14134
   D23        3.14124   0.00000   0.00001   0.00020   0.00021   3.14145
   D24        0.00000   0.00000   0.00000  -0.00001  -0.00001  -0.00001
         Item               Value     Threshold  Converged?
 Maximum Force            0.010219     0.000450     NO 
 RMS     Force            0.002547     0.000300     NO 
 Maximum Displacement     0.019153     0.001800     NO 
 RMS     Displacement     0.007390     0.001200     NO 
 Predicted change in Energy=-6.642194D-04
 GradGradGradGradGradGradGradGradGradGradGradGradGradGradGradGradGradGrad

                          Input orientation:                          
 ---------------------------------------------------------------------
 Center     Atomic      Atomic             Coordinates (Angstroms)
 Number     Number       Type             X           Y           Z
 ---------------------------------------------------------------------
      1          6           0       -0.012524    0.419562    0.000079
      2          6           0        1.366098    0.430932    0.000694
      3          6           0        2.064952    1.618541    0.000080
      4          6           0        1.315714    2.916773   -0.001181
      5          6           0       -0.062897    2.905339   -0.001391
      6          6           0       -0.761701    1.717700   -0.000874
      7          1           0       -0.561568   -0.523044    0.000257
      8          1           0        1.912321   -0.515385    0.001269
      9          1           0        3.155802    1.622781    0.000450
     10          1           0        1.864853    3.859317   -0.001797
     11          1           0       -0.609256    3.851568   -0.002220
     12          1           0       -1.852559    1.713584   -0.001279
 ---------------------------------------------------------------------
                    Distance matrix (angstroms):
                    1          2          3          4          5
     1  C    0.000000
     2  C    1.378668   0.000000
     3  C    2.398636   1.377974   0.000000
     4  C    2.828476   2.486352   1.498921   0.000000
     5  C    2.486288   2.857397   2.486683   1.378659   0.000000
     6  C    1.498809   2.486624   2.828391   2.398631   1.377975
     7  H    1.090852   2.150806   3.388952   3.918741   3.464461
     8  H    2.139896   1.092647   2.139378   3.483627   3.950044
     9  H    3.389104   2.150243   1.090859   2.249520   3.464821
    10  H    3.918731   3.464474   2.249693   1.090845   2.150882
    11  H    3.483498   3.950036   3.483935   2.139943   1.092638
    12  H    2.249494   3.464816   3.918664   3.389045   2.150156
                    6          7          8          9         10
     6  C    0.000000
     7  H    2.249664   0.000000
     8  H    3.483829   2.473901   0.000000
     9  H    3.918653   4.292250   2.473459   0.000000
    10  H    3.388998   5.009253   4.374960   2.582372   0.000000
    11  H    2.139307   4.374873   5.042682   4.375290   2.474121
    12  H    1.090867   2.582473   4.375229   5.009185   4.292240
                   11         12
    11  H    0.000000
    12  H    2.473213   0.000000
 Stoichiometry    C6H6(3)
 Framework group  C1[X(C6H6)]
 Deg. of freedom    30
 Prev. full point group           C1      NOp   1
 Prev. largest Abelian subgroup   C1      NOp   1
       concise Abelian subgroup   C1      NOp   1
                   Standard orientation:
 ---------------------------------------------------------------------
 Center     Atomic                     Coordinates (Angstroms)
 Number     Number                        X           Y           Z
 ---------------------------------------------------------------------
      1          6                    0.051410   -1.413284    0.001470
      2          6                    1.238519   -0.712215    0.001999
      3          6                    1.247724    0.665727    0.000486
      4          6                   -0.051455    1.413320   -0.001673
      5          6                   -1.238524    0.712201   -0.001797
      6          6                   -1.247669   -0.665742   -0.000381
      7          1                    0.048981   -2.504132    0.002361
      8          1                    2.185598   -1.257115    0.003228
      9          1                    2.189423    1.216340    0.000791
     10          1                   -0.048913    2.504161   -0.003001
     11          1                   -2.185677    1.256956   -0.003280
     12          1                   -2.189438   -1.216252   -0.000721
 ---------------------------------------------------------------------
 Rotational constants (GHZ):      5.7685869      5.2929022      2.7602583
 Standard basis: 6-311+G(3df,2pd) (5D, 7F)
 There are   360 symmetry adapted cartesian basis functions of A   symmetry.
 There are   318 symmetry adapted basis functions of A   symmetry.
   318 basis functions,   450 primitive gaussians,   360 cartesian basis functions
    22 alpha electrons       20 beta electrons
       nuclear repulsion energy       200.5344306637 Hartrees.
 NAtoms=   12 NActive=   12 NUniq=   12 SFac= 1.00D+00 NAtFMM=   60 NAOKFM=F Big=F
 Integral buffers will be    131072 words long.
 Raffenetti 2 integral format.
 Two-electron integral symmetry is turned on.
 One-electron integrals computed using PRISM.
 NBasis=   318 RedAO= T EigKep=  2.42D-06  NBF=   318
 NBsUse=   318 1.00D-06 EigRej= -1.00D+00 NBFU=   318
 Initial guess from the checkpoint file:  "Benzene.chk"
 B after Tr=     0.000000    0.000000    0.000000
         Rot=    1.000000    0.000015    0.000039    0.000663 Ang=   0.08 deg.
 Initial guess <Sx>= 0.0000 <Sy>= 0.0000 <Sz>= 1.0000 <S**2>= 2.0118 S= 1.0039
 Requested convergence on RMS density matrix=1.00D-08 within 128 cycles.
 Requested convergence on MAX density matrix=1.00D-06.
 Requested convergence on             energy=1.00D-06.
 No special actions if energy rises.
 SCF Done:  E(US-VWN5) =  -230.018133055     A.U. after   10 cycles
            NFock= 10  Conv=0.53D-08     -V/T= 2.0068
 <Sx>= 0.0000 <Sy>= 0.0000 <Sz>= 1.0000 <S**2>= 2.0119 S= 1.0040
 <L.S>= 0.000000000000E+00
 Annihilation of the first spin contaminant:
 S**2 before annihilation     2.0119,   after     2.0001
 Calling FoFJK, ICntrl=      2527 FMM=F ISym2X=0 I1Cent= 0 IOpClX= 0 NMat=1 NMatS=1 NMatT=0.
 ***** Axes restored to original set *****
 -------------------------------------------------------------------
 Center     Atomic                   Forces (Hartrees/Bohr)
 Number     Number              X              Y              Z
 -------------------------------------------------------------------
      1        6           0.001417181   -0.001966101    0.000007390
      2        6          -0.001504263    0.002480451   -0.000031163
      3        6           0.000960076   -0.002137892    0.000005051
      4        6          -0.001383386    0.001918504    0.000011487
      5        6           0.001496286   -0.002486277   -0.000016509
      6        6          -0.000988968    0.002184333    0.000003511
      7        1          -0.000774491    0.000288262    0.000000310
      8        1           0.000475617   -0.000819390    0.000012412
      9        1           0.000149020    0.000798917    0.000000690
     10        1           0.000767705   -0.000280254    0.000000604
     11        1          -0.000469937    0.000829023    0.000001510
     12        1          -0.000144840   -0.000809576    0.000004707
 -------------------------------------------------------------------
 Cartesian Forces:  Max     0.002486277 RMS     0.001106057

 GradGradGradGradGradGradGradGradGradGradGradGradGradGradGradGradGradGrad
 Berny optimization.
 Using GEDIIS/GDIIS optimizer.
 FormGI is forming the generalized inverse of G from B-inverse, IUseBI=4.
 Internal  Forces:  Max     0.001033659 RMS     0.000462207
 Search for a local minimum.
 Step number   3 out of a maximum of   64
 All quantities printed in internal units (Hartrees-Bohrs-Radians)
 Mixed Optimization -- En-DIIS/RFO-DIIS
 Update second derivatives using D2CorX and points    1    2    3
 DE= -8.63D-04 DEPred=-6.64D-04 R= 1.30D+00
 TightC=F SS=  1.41D+00  RLast= 8.35D-02 DXNew= 8.4853D-01 2.5035D-01
 Trust test= 1.30D+00 RLast= 8.35D-02 DXMaxT set to 5.05D-01
 ITU=  1  1  0
 Use linear search instead of GDIIS.
     Eigenvalues ---    0.02152   0.02153   0.02154   0.02155   0.02155
     Eigenvalues ---    0.02155   0.02156   0.02156   0.02157   0.14046
     Eigenvalues ---    0.16000   0.16000   0.16000   0.16000   0.16000
     Eigenvalues ---    0.20763   0.22000   0.22000   0.33464   0.33714
     Eigenvalues ---    0.33718   0.33722   0.33726   0.33927   0.39822
     Eigenvalues ---    0.42089   0.42371   0.46450   0.46468   0.46607
 RFO step:  Lambda=-2.63847432D-05 EMin= 2.15188050D-02
 Quartic linear search produced a step of  0.19902.
 Iteration  1 RMS(Cart)=  0.00293955 RMS(Int)=  0.00000797
 Iteration  2 RMS(Cart)=  0.00000963 RMS(Int)=  0.00000037
 Iteration  3 RMS(Cart)=  0.00000000 RMS(Int)=  0.00000037
 Variable       Old X    -DE/DX   Delta X   Delta X   Delta X     New X
                                 (Linear)    (Quad)   (Total)
    R1        2.60531  -0.00026  -0.00149   0.00028  -0.00121   2.60409
    R2        2.83234   0.00079   0.00707  -0.00171   0.00535   2.83769
    R3        2.06141   0.00014  -0.00071   0.00089   0.00018   2.06159
    R4        2.60399  -0.00020  -0.00147   0.00041  -0.00106   2.60293
    R5        2.06480   0.00095  -0.00016   0.00325   0.00309   2.06789
    R6        2.83255   0.00075   0.00701  -0.00178   0.00523   2.83778
    R7        2.06142   0.00015  -0.00071   0.00093   0.00022   2.06164
    R8        2.60529  -0.00026  -0.00145   0.00027  -0.00119   2.60410
    R9        2.06140   0.00014  -0.00072   0.00090   0.00019   2.06159
   R10        2.60399  -0.00020  -0.00152   0.00044  -0.00107   2.60292
   R11        2.06479   0.00095  -0.00017   0.00327   0.00311   2.06789
   R12        2.06144   0.00015  -0.00070   0.00091   0.00021   2.06165
    A1        2.08597  -0.00040  -0.00214  -0.00025  -0.00239   2.08358
    A2        2.10648   0.00103   0.00435   0.00325   0.00760   2.11408
    A3        2.09074  -0.00063  -0.00221  -0.00300  -0.00521   2.08553
    A4        2.11093   0.00078   0.00419   0.00045   0.00464   2.11557
    A5        2.08604  -0.00038  -0.00207  -0.00017  -0.00224   2.08380
    A6        2.08621  -0.00040  -0.00212  -0.00028  -0.00240   2.08382
    A7        2.08628  -0.00037  -0.00205  -0.00020  -0.00224   2.08403
    A8        2.10657   0.00102   0.00434   0.00318   0.00751   2.11408
    A9        2.09034  -0.00064  -0.00229  -0.00298  -0.00527   2.08507
   A10        2.08593  -0.00040  -0.00214  -0.00023  -0.00237   2.08356
   A11        2.09063  -0.00062  -0.00217  -0.00297  -0.00514   2.08549
   A12        2.10663   0.00102   0.00431   0.00320   0.00751   2.11413
   A13        2.11093   0.00078   0.00419   0.00044   0.00464   2.11557
   A14        2.08614  -0.00039  -0.00211  -0.00021  -0.00233   2.08382
   A15        2.08611  -0.00039  -0.00208  -0.00023  -0.00231   2.08380
   A16        2.08632  -0.00038  -0.00205  -0.00022  -0.00227   2.08406
   A17        2.09045  -0.00065  -0.00232  -0.00303  -0.00534   2.08510
   A18        2.10641   0.00103   0.00437   0.00324   0.00761   2.11403
    D1       -0.00031   0.00000  -0.00011   0.00031   0.00019  -0.00012
    D2       -3.14147  -0.00001   0.00013  -0.00035  -0.00023   3.14149
    D3        3.14126   0.00001  -0.00011   0.00034   0.00024   3.14150
    D4        0.00010   0.00000   0.00014  -0.00032  -0.00018  -0.00008
    D5        0.00022   0.00000  -0.00001   0.00000   0.00000   0.00022
    D6       -3.14150   0.00000   0.00004   0.00003   0.00007  -3.14143
    D7       -3.14135   0.00000  -0.00002  -0.00003  -0.00005  -3.14140
    D8        0.00011   0.00000   0.00003   0.00000   0.00003   0.00014
    D9        0.00007   0.00000   0.00014  -0.00029  -0.00015  -0.00007
   D10       -3.14146  -0.00001   0.00010  -0.00034  -0.00024   3.14148
   D11        3.14123   0.00001  -0.00010   0.00037   0.00027   3.14150
   D12       -0.00031   0.00000  -0.00014   0.00032   0.00018  -0.00013
   D13        0.00027   0.00000  -0.00005  -0.00004  -0.00009   0.00018
   D14       -3.14146   0.00000   0.00001   0.00002   0.00003  -3.14143
   D15       -3.14138   0.00000  -0.00001   0.00001   0.00000  -3.14138
   D16        0.00008   0.00000   0.00005   0.00007   0.00012   0.00020
   D17       -0.00035   0.00001  -0.00007   0.00035   0.00028  -0.00007
   D18        3.14150   0.00000  -0.00001  -0.00003  -0.00004   3.14146
   D19        3.14137   0.00000  -0.00013   0.00029   0.00016   3.14154
   D20        0.00004   0.00000  -0.00007  -0.00008  -0.00016  -0.00012
   D21        0.00012  -0.00001   0.00010  -0.00033  -0.00023  -0.00012
   D22       -3.14134  -0.00001   0.00005  -0.00036  -0.00031   3.14153
   D23        3.14145   0.00000   0.00004   0.00004   0.00008   3.14154
   D24       -0.00001   0.00000   0.00000   0.00001   0.00001   0.00000
         Item               Value     Threshold  Converged?
 Maximum Force            0.001034     0.000450     NO 
 RMS     Force            0.000462     0.000300     NO 
 Maximum Displacement     0.009864     0.001800     NO 
 RMS     Displacement     0.002936     0.001200     NO 
 Predicted change in Energy=-3.589635D-05
 GradGradGradGradGradGradGradGradGradGradGradGradGradGradGradGradGradGrad

                          Input orientation:                          
 ---------------------------------------------------------------------
 Center     Atomic      Atomic             Coordinates (Angstroms)
 Number     Number       Type             X           Y           Z
 ---------------------------------------------------------------------
      1          6           0       -0.012746    0.417763    0.000034
      2          6           0        1.365203    0.432353    0.000527
      3          6           0        2.066498    1.617869    0.000035
      4          6           0        1.315946    2.918540   -0.001154
      5          6           0       -0.062007    2.903919   -0.001523
      6          6           0       -0.763273    1.718391   -0.000906
[...]
  Beta virt. eigenvalues --    0.68654   0.68740   0.70238   0.73798   0.73963
  Beta virt. eigenvalues --    0.74016   0.77068   0.77345   0.83582   0.89263
  Beta virt. eigenvalues --    0.89532   0.92147   0.92888   0.93526   0.98707
  Beta virt. eigenvalues --    0.99756   1.01778   1.03484   1.03557   1.08134
  Beta virt. eigenvalues --    1.09056   1.09417   1.10319   1.10462   1.13192
  Beta virt. eigenvalues --    1.13924   1.15720   1.16712   1.20843   1.22252
  Beta virt. eigenvalues --    1.22564   1.22836   1.22873   1.24253   1.24458
  Beta virt. eigenvalues --    1.25066   1.25984   1.26886   1.28505   1.28885
  Beta virt. eigenvalues --    1.28976   1.33174   1.33588   1.34150   1.37549
  Beta virt. eigenvalues --    1.40071   1.40547   1.41452   1.42116   1.42995
  Beta virt. eigenvalues --    1.43037   1.47040   1.55631   1.57139   1.57575
  Beta virt. eigenvalues --    1.72599   1.76555   1.79269   1.80121   1.83096
  Beta virt. eigenvalues --    1.84647   1.88478   1.92179   1.93039   1.93717
  Beta virt. eigenvalues --    1.99745   2.02244   2.07416   2.19870   2.22759
  Beta virt. eigenvalues --    2.26768   2.27503   2.32409   2.35235   2.37961
  Beta virt. eigenvalues --    2.38888   2.46110   2.48506   2.57407   2.62758
  Beta virt. eigenvalues --    2.63589   2.64993   2.66213   2.66406   2.69042
  Beta virt. eigenvalues --    2.71074   2.71336   2.71966   2.72481   2.73062
  Beta virt. eigenvalues --    2.75374   2.76260   2.80146   2.82279   2.89190
  Beta virt. eigenvalues --    2.89822   2.92533   2.93196   2.93387   2.94758
  Beta virt. eigenvalues --    2.97214   2.97463   2.98056   2.98359   2.99433
  Beta virt. eigenvalues --    3.07708   3.09968   3.10556   3.11581   3.13384
  Beta virt. eigenvalues --    3.14607   3.14768   3.17361   3.23348   3.23977
  Beta virt. eigenvalues --    3.27757   3.29553   3.33098   3.34318   3.38182
  Beta virt. eigenvalues --    3.45076   3.48842   3.53638   3.55203   3.56668
  Beta virt. eigenvalues --    3.56883   3.61064   3.61516   3.61632   3.62961
  Beta virt. eigenvalues --    3.66259   3.70209   3.72007   3.74888   3.74959
  Beta virt. eigenvalues --    3.74967   3.80137   3.81871   3.84542   3.91729
  Beta virt. eigenvalues --    3.99050   3.99733   4.02263   4.05732   4.09028
  Beta virt. eigenvalues --    4.13038   4.17855   4.18909   4.19500   4.20660
  Beta virt. eigenvalues --    4.21919   4.23297   4.26564   4.28875   4.30074
  Beta virt. eigenvalues --    4.32284   4.33521   4.34324   4.36196   4.36769
  Beta virt. eigenvalues --    4.42183   4.45973   4.50699   4.51318   4.56670
  Beta virt. eigenvalues --    4.60424   4.61368   4.63660   4.66984   4.71249
  Beta virt. eigenvalues --    4.74656   4.77742   4.79524   4.83015   4.83765
  Beta virt. eigenvalues --    4.86606   4.88475   4.92267   5.19067   5.20192
  Beta virt. eigenvalues --    5.24646   5.26943   5.29811   5.63491   5.73389
  Beta virt. eigenvalues --    6.00853   6.02941   6.25974   6.32329   6.38820
  Beta virt. eigenvalues --    6.54235   6.59789   6.94713   6.98750   7.04292
  Beta virt. eigenvalues --    7.04389   7.05483   7.07644   7.22448   7.26161
  Beta virt. eigenvalues --    7.30283   7.33461   7.35574   7.39991   7.40033
  Beta virt. eigenvalues --    7.40922   7.50811   7.52186   7.52447   7.66814
  Beta virt. eigenvalues --    7.67775   7.72590   7.77592   7.87456   7.93371
  Beta virt. eigenvalues --    7.95148   8.11414   8.25541   8.31208   8.33775
  Beta virt. eigenvalues --    8.49055   9.13910  24.36407  24.78213  25.26171
  Beta virt. eigenvalues --   25.28177  25.63347  25.82587
          Condensed to atoms (all electrons):
               1          2          3          4          5          6
     1  C    6.144946  -0.169458  -0.235719   0.062900  -0.122592   0.169267
     2  C   -0.169458   6.080929  -0.171914  -0.122590   0.102984  -0.122004
     3  C   -0.235719  -0.171914   6.145365   0.169329  -0.122001   0.063405
     4  C    0.062900  -0.122590   0.169329   6.144966  -0.169463  -0.235717
     5  C   -0.122592   0.102984  -0.122001  -0.169463   6.080928  -0.171908
     6  C    0.169267  -0.122004   0.063405  -0.235717  -0.171908   6.145347
     7  H    0.449789  -0.098487   0.012878  -0.012555   0.018925  -0.062554
     8  H   -0.076464   0.436750  -0.076935   0.022687  -0.019668   0.022760
     9  H    0.012880  -0.098722   0.449736  -0.062318   0.019026  -0.012608
    10  H   -0.012555   0.018926  -0.062546   0.449783  -0.098491   0.012877
    11  H    0.022688  -0.019668   0.022760  -0.076464   0.436750  -0.076935
    12  H   -0.062325   0.019025  -0.012608   0.012881  -0.098718   0.449742
               7          8          9         10         11         12
     1  C    0.449789  -0.076464   0.012880  -0.012555   0.022688  -0.062325
     2  C   -0.098487   0.436750  -0.098722   0.018926  -0.019668   0.019025
     3  C    0.012878  -0.076935   0.449736  -0.062546   0.022760  -0.012608
     4  C   -0.012555   0.022687  -0.062318   0.449783  -0.076464   0.012881
     5  C    0.018925  -0.019668   0.019026  -0.098491   0.436750  -0.098718
     6  C   -0.062554   0.022760  -0.012608   0.012877  -0.076935   0.449742
     7  H    0.618360  -0.003635  -0.000287   0.000031  -0.000260   0.000395
     8  H   -0.003635   0.632412  -0.003659  -0.000260   0.000066  -0.000260
     9  H   -0.000287  -0.003659   0.618512   0.000395  -0.000260   0.000032
    10  H    0.000031  -0.000260   0.000395   0.618358  -0.003635  -0.000287
    11  H   -0.000260   0.000066  -0.000260  -0.003635   0.632412  -0.003660
    12  H    0.000395  -0.000260   0.000032  -0.000287  -0.003660   0.618514
          Atomic-Atomic Spin Densities.
               1          2          3          4          5          6
     1  C    0.711390   0.049548  -0.132766   0.029757   0.026165  -0.101923
     2  C    0.049548  -0.267671   0.050286   0.026170  -0.039293   0.026882
     3  C   -0.132766   0.050286   0.706766  -0.101926   0.026887   0.029469
     4  C    0.029757   0.026170  -0.101926   0.711416   0.049539  -0.132765
     5  C    0.026165  -0.039293   0.026887   0.049539  -0.267671   0.050295
     6  C   -0.101923   0.026882   0.029469  -0.132765   0.050295   0.706739
     7  H    0.008923   0.000943  -0.002195   0.001163  -0.001413   0.007615
     8  H   -0.002582   0.003414  -0.002574  -0.000018   0.001350  -0.000020
     9  H   -0.002186   0.000874   0.008959   0.007579  -0.001417   0.001171
    10  H    0.001163  -0.001412   0.007616   0.008923   0.000942  -0.002195
    11  H   -0.000018   0.001350  -0.000020  -0.002582   0.003414  -0.002574
    12  H    0.007578  -0.001418   0.001171  -0.002185   0.000875   0.008958
               7          8          9         10         11         12
     1  C    0.008923  -0.002582  -0.002186   0.001163  -0.000018   0.007578
     2  C    0.000943   0.003414   0.000874  -0.001412   0.001350  -0.001418
     3  C   -0.002195  -0.002574   0.008959   0.007616  -0.000020   0.001171
     4  C    0.001163  -0.000018   0.007579   0.008923  -0.002582  -0.002185
     5  C   -0.001413   0.001350  -0.001417   0.000942   0.003414   0.000875
     6  C    0.007615  -0.000020   0.001171  -0.002195  -0.002574   0.008958
     7  H   -0.032641   0.000175   0.000019  -0.000001   0.000006  -0.000049
     8  H    0.000175  -0.001497   0.000175   0.000006   0.000000   0.000006
     9  H    0.000019   0.000175  -0.032505  -0.000049   0.000006  -0.000001
    10  H   -0.000001   0.000006  -0.000049  -0.032642   0.000175   0.000019
    11  H    0.000006   0.000000   0.000006   0.000175  -0.001497   0.000175
    12  H   -0.000049   0.000006  -0.000001   0.000019   0.000175  -0.032504
 Mulliken charges and spin densities:
               1          2
     1  C   -0.183357   0.595050
     2  C    0.144229  -0.150328
     3  C   -0.181749   0.591673
     4  C   -0.183439   0.595072
     5  C    0.144229  -0.150328
     6  C   -0.181671   0.591652
     7  H    0.077401  -0.017454
     8  H    0.066206  -0.001565
     9  H    0.077273  -0.017376
    10  H    0.077404  -0.017455
    11  H    0.066206  -0.001565
    12  H    0.077270  -0.017375
 Sum of Mulliken charges =   0.00000   2.00000
 Mulliken charges and spin densities with hydrogens summed into heavy atoms:
               1          2
     1  C   -0.105956   0.577595
     2  C    0.210434  -0.151893
     3  C   -0.104477   0.574297
     4  C   -0.106035   0.577616
     5  C    0.210434  -0.151893
     6  C   -0.104401   0.574276
 Electronic spatial extent (au):  <R**2>=            472.8342
 Charge=              0.0000 electrons
 Dipole moment (field-independent basis, Debye):
    X=              0.0000    Y=              0.0000    Z=              0.0000  Tot=              0.0000
 Quadrupole moment (field-independent basis, Debye-Ang):
   XX=            -32.8251   YY=            -32.4287   ZZ=            -40.5994
   XY=              0.3394   XZ=              0.0068   YZ=             -0.0081
 Traceless Quadrupole moment (field-independent basis, Debye-Ang):
   XX=              2.4593   YY=              2.8557   ZZ=             -5.3150
   XY=              0.3394   XZ=              0.0068   YZ=             -0.0081
 Octapole moment (field-independent basis, Debye-Ang**2):
  XXX=             -0.0001  YYY=              0.0001  ZZZ=              0.0000  XYY=              0.0002
  XXY=              0.0000  XXZ=              0.0010  XZZ=              0.0000  YZZ=              0.0000
  YYZ=             -0.0009  XYZ=              0.0005
 Hexadecapole moment (field-independent basis, Debye-Ang**3):
 XXXX=           -295.1896 YYYY=           -284.7866 ZZZZ=            -50.8087 XXXY=              3.0362
 XXXZ=             -0.0786 YYYX=              5.9156 YYYZ=              0.0900 ZZZX=             -0.1524
 ZZZY=              0.1641 XXYY=            -95.5519 XXZZ=            -70.4106 YYZZ=            -67.7643
 XXYZ=              0.0248 YYXZ=             -0.0264 ZZXY=              2.2791
 N-N= 2.004756439824D+02 E-N=-9.364656621995D+02  KE= 2.284581969615D+02

 Atomic contributions to Alpha molecular orbitals:
 Alpha occ 17 OE=-0.351 is C1-p=0.17 C4-p=0.17 C6-p=0.17 C3-p=0.17 C2-p=0.15 C5-p=0.15
 Alpha occ 18 OE=-0.322 is C6-p=0.11 C3-p=0.11 C1-p=0.11 C4-p=0.11 C5-p=0.10 C2-p=0.10
 Alpha occ 19 OE=-0.300 is H11-s=0.11 H8-s=0.11 C4-p=0.11 C1-p=0.11 C3-p=0.11 C6-p=0.11
 Alpha occ 20 OE=-0.259 is C5-p=0.27 C2-p=0.27
 Alpha occ 21 OE=-0.250 is C4-p=0.23 C1-p=0.23 C3-p=0.23 C6-p=0.23
 Alpha occ 22 OE=-0.092 is C4-p=0.22 C1-p=0.22 C3-p=0.22 C6-p=0.22
 Alpha vir 23 OE=-0.053 is C5-p=0.28 C2-p=0.28
 Alpha vir 24 OE=-0.011 is C3-s=0.22 C6-s=0.22 C4-s=0.21 C1-s=0.21
 Alpha vir 25 OE=0.011 is C5-p=0.62 C2-p=0.62 C2-s=0.41 C5-s=0.41 C1-p=-0.33 C4-p=-0.33 C6-p=-0.32 C3-p=-0.32 C3-s=0.15 C6-s=0.15 H8-s=-0.15 H11-s=-0.15 C4-s=0.15 C1-s=0.15
 Alpha vir 26 OE=0.012 is C5-p=-0.82 C2-p=-0.82 C1-s=0.49 C4-s=0.49 C6-s=0.49 C3-s=0.49 C4-p=0.29 C1-p=0.29 C3-p=0.27 C6-p=0.27 H10-s=-0.13 H7-s=-0.13 H9-s=-0.13 H12-s=-0.13
 Alpha vir 27 OE=0.031 is C4-p=0.96 C1-p=0.96 C3-p=0.96 C6-p=0.96 C4-s=-0.85 C1-s=-0.85 C3-s=-0.85 C6-s=-0.85 C5-p=0.38 C2-p=0.38
 Alpha vir 28 OE=0.035 is C2-s=-1.35 C5-s=-1.35 C2-p=1.32 C5-p=1.32 C6-p=0.68 C3-p=0.68 C1-p=0.68 C4-p=0.68 C6-s=-0.36 C3-s=-0.36 C1-s=-0.36 C4-s=-0.36 H8-s=-0.10 H11-s=-0.10

 Atomic contributions to Beta  molecular orbitals:
 Beta  occ 15 OE=-0.387 is C2-p=0.19 C5-p=0.19 H8-s=0.14 H11-s=0.14
 Beta  occ 16 OE=-0.363 is C1-p=0.15 C4-p=0.15 C6-p=0.15 C3-p=0.15
 Beta  occ 17 OE=-0.326 is C2-p=0.19 C5-p=0.19 C6-p=0.15 C3-p=0.15 C1-p=0.15 C4-p=0.15
 Beta  occ 18 OE=-0.314 is C5-p=0.11 C2-p=0.11 C1-p=0.10 C4-p=0.10 C6-p=0.10 C3-p=0.10
 Beta  occ 19 OE=-0.292 is C4-p=0.11 C1-p=0.11 C3-p=0.11 C6-p=0.11 H11-s=0.11 H8-s=0.11
 Beta  occ 20 OE=-0.245 is C5-p=0.31 C2-p=0.31
 Beta  vir 21 OE=-0.209 is C4-p=0.23 C1-p=0.23 C3-p=0.22 C6-p=0.22
 Beta  vir 22 OE=-0.051 is C4-p=0.22 C1-p=0.22 C3-p=0.21 C6-p=0.21
 Beta  vir 23 OE=-0.039 is C5-p=0.23 C2-p=0.23
 Beta  vir 24 OE=-0.007 is C3-s=0.22 C6-s=0.22 C4-s=0.21 C1-s=0.21
 Beta  vir 25 OE=0.012 is C5-p=0.64 C2-p=0.64 C2-s=0.41 C5-s=0.41 C1-p=-0.34 C4-p=-0.34 C6-p=-0.34 C3-p=-0.34 C3-s=0.16 C6-s=0.16 C4-s=0.15 C1-s=0.15 H8-s=-0.15 H11-s=-0.15
 Beta  vir 26 OE=0.016 is C5-p=-0.80 C2-p=-0.80 C6-s=0.46 C3-s=0.46 C1-s=0.46 C4-s=0.46 C4-p=0.30 C1-p=0.30 C3-p=0.29 C6-p=0.29 H10-s=-0.13 H7-s=-0.13 H9-s=-0.13 H12-s=-0.13
 
                          Isotropic Fermi Contact Couplings
        Atom                 a.u.       MegaHertz       Gauss      10(-4) cm-1
     1  C(13)             -0.01192      -6.70201      -2.39144      -2.23555
     2  C(13)             -0.02460     -13.82833      -4.93429      -4.61263
     3  C(13)             -0.01199      -6.74055      -2.40520      -2.24841
     4  C(13)             -0.01192      -6.70162      -2.39130      -2.23542
     5  C(13)             -0.02460     -13.82833      -4.93429      -4.61263
     6  C(13)             -0.01199      -6.74095      -2.40534      -2.24854
     7  H(1)              -0.00680     -15.19659      -5.42252      -5.06904
     8  H(1)              -0.00010      -0.23094      -0.08241      -0.07703
     9  H(1)              -0.00677     -15.12950      -5.39858      -5.04666
    10  H(1)              -0.00680     -15.19706      -5.42269      -5.06919
    11  H(1)              -0.00010      -0.23094      -0.08241      -0.07703
    12  H(1)              -0.00677     -15.12903      -5.39841      -5.04650
 --------------------------------------------------------
       Center         ----  Spin Dipole Couplings  ----
                      3XX-RR        3YY-RR        3ZZ-RR
 --------------------------------------------------------
     1   Atom       -0.350405     -0.343567      0.693972
     2   Atom        0.040873      0.056828     -0.097701
     3   Atom       -0.338264     -0.352303      0.690567
     4   Atom       -0.350417     -0.343578      0.693995
     5   Atom        0.040874      0.056827     -0.097701
     6   Atom       -0.338253     -0.352291      0.690545
     7   Atom       -0.046641      0.049778     -0.003137
     8   Atom        0.007392      0.004414     -0.011807
     9   Atom        0.029975     -0.026797     -0.003178
    10   Atom       -0.046642      0.049779     -0.003137
    11   Atom        0.007393      0.004414     -0.011807
    12   Atom        0.029975     -0.026797     -0.003178
 --------------------------------------------------------
                        XY            XZ            YZ
 --------------------------------------------------------
     1   Atom       -0.006147     -0.000897      0.000932
     2   Atom        0.013818      0.000114     -0.000145
     3   Atom       -0.000141     -0.001077      0.001049
     4   Atom       -0.006147     -0.000973      0.001196
     5   Atom        0.013818      0.000109     -0.000151
     6   Atom       -0.000141     -0.000812      0.001106
     7   Atom       -0.005136     -0.000034     -0.000051
     8   Atom       -0.002529      0.000021     -0.000018
     9   Atom        0.039053     -0.000003      0.000065
    10   Atom       -0.005135     -0.000034     -0.000067
    11   Atom       -0.002529      0.000020     -0.000020
    12   Atom        0.039051     -0.000016      0.000056
 --------------------------------------------------------


 ---------------------------------------------------------------------------------
              Anisotropic Spin Dipole Couplings in Principal Axis System
 ---------------------------------------------------------------------------------

       Atom             a.u.   MegaHertz   Gauss  10(-4) cm-1        Axes

              Baa    -0.3540   -47.506   -16.951   -15.846  0.8620  0.5069  0.0003
     1 C(13)  Bbb    -0.3400   -45.619   -16.278   -15.217 -0.5069  0.8620 -0.0012
              Bcc     0.6940    93.125    33.229    31.063 -0.0009  0.0009  1.0000
 
              Baa    -0.0977   -13.111    -4.678    -4.373 -0.0009  0.0010  1.0000
     2 C(13)  Bbb     0.0329     4.414     1.575     1.472  0.8660 -0.5000  0.0013
              Bcc     0.0648     8.696     3.103     2.901  0.5000  0.8660 -0.0004
 
              Baa    -0.3523   -47.276   -16.869   -15.770  0.0100  0.9999 -0.0010
     3 C(13)  Bbb    -0.3383   -45.392   -16.197   -15.141  0.9999 -0.0100  0.0011
              Bcc     0.6906    92.668    33.066    30.911 -0.0010  0.0010  1.0000
 
              Baa    -0.3540   -47.508   -16.952   -15.847  0.8620  0.5069  0.0002
     4 C(13)  Bbb    -0.3400   -45.620   -16.278   -15.217 -0.5069  0.8620 -0.0015
              Bcc     0.6940    93.128    33.230    31.064 -0.0009  0.0012  1.0000
 
              Baa    -0.0977   -13.111    -4.678    -4.373 -0.0009  0.0011  1.0000
     5 C(13)  Bbb     0.0329     4.414     1.575     1.472  0.8660 -0.5000  0.0013
              Bcc     0.0648     8.696     3.103     2.901  0.5000  0.8660 -0.0005
 
              Baa    -0.3523   -47.274   -16.869   -15.769  0.0100  0.9999 -0.0011
     6 C(13)  Bbb    -0.3383   -45.390   -16.196   -15.141  0.9999 -0.0100  0.0008
              Bcc     0.6905    92.665    33.065    30.910 -0.0008  0.0011  1.0000
 
              Baa    -0.0469   -25.031    -8.932    -8.349  0.9986  0.0530  0.0008
     7 H(1)   Bbb    -0.0031    -1.674    -0.597    -0.558 -0.0009  0.0009  1.0000
              Bcc     0.0501    26.705     9.529     8.908 -0.0530  0.9986 -0.0009
 
              Baa    -0.0118    -6.299    -2.248    -2.101 -0.0009  0.0010  1.0000
     8 H(1)   Bbb     0.0030     1.584     0.565     0.528  0.4963  0.8682 -0.0004
              Bcc     0.0088     4.716     1.683     1.573  0.8682 -0.4963  0.0013
 
              Baa    -0.0467   -24.912    -8.889    -8.310 -0.4539  0.8911 -0.0014
     9 H(1)   Bbb    -0.0032    -1.695    -0.605    -0.566 -0.0011  0.0010  1.0000
              Bcc     0.0499    26.607     9.494     8.875  0.8911  0.4539  0.0005
 
              Baa    -0.0469   -25.031    -8.932    -8.350  0.9986  0.0530  0.0009
    10 H(1)   Bbb    -0.0031    -1.674    -0.597    -0.558 -0.0009  0.0012  1.0000
              Bcc     0.0501    26.705     9.529     8.908 -0.0530  0.9986 -0.0012
 
              Baa    -0.0118    -6.299    -2.248    -2.101 -0.0009  0.0011  1.0000
    11 H(1)   Bbb     0.0030     1.584     0.565     0.528  0.4962  0.8682 -0.0005
              Bcc     0.0088     4.716     1.683     1.573  0.8682 -0.4962  0.0013
 
              Baa    -0.0467   -24.911    -8.889    -8.309 -0.4539  0.8911 -0.0013
    12 H(1)   Bbb    -0.0032    -1.695    -0.605    -0.566 -0.0008  0.0011  1.0000
              Bcc     0.0499    26.606     9.494     8.875  0.8911  0.4539  0.0002
 

 ---------------------------------------------------------------------------------

 1\1\GINC-C13A-08\FOpt\USVWN5\6-311+G(3df,2pd)\C6H6(3)\EPLUHAR\08-Jul-2
 016\0\\#opt 6-311+g(3df,2pd) svwn5 pop=orbitals=6 symmetry=(follow,pg=
 D6h)\\Benzene\\0,3\C,-0.0126293069,0.4179150546,0.0000316098\C,1.36518
 16304,0.4323232841,0.0005232484\C,2.066274456,1.6178824672,0.000040865
 2\C,1.3158317156,2.918375514,-0.0011479597\C,-0.0619806654,2.903951800
 9,-0.0015062009\C,-0.763059503,1.7183859347,-0.0009015015\H,-0.5677811
 766,-0.5212273828,0.0003211356\H,1.9124025797,-0.5154334354,0.00131013
 8\H,3.1572007472,1.6290598547,0.0005292359\H,1.8709965037,3.8575093423
 ,-0.0017002552\H,-0.6092164855,3.8517000397,-0.0022847662\H,-1.8539867
 353,1.7072248058,-0.0011265496\\Version=ES64L-G09RevD.01\State=3-A\HF=
 -230.0181737\S2=2.011877\S2-1=0.\S2A=2.000071\RMSD=5.278e-09\RMSF=3.85
 7e-05\Dipole=0.0000026,0.0000016,0.0000017\Quadrupole=2.1209002,1.8306
 761,-3.9515763,0.25363,0.0018314,-0.0036232\PG=C01 [X(C6H6)]\\@


 IT IS BETTER TO THINK YOU ARE HALF DRY THAN TO KNOW YOU
 ARE ALL WET.  -- SNOOPY
 Job cpu time:       0 days  0 hours 21 minutes  4.2 seconds.
 File lengths (MBytes):  RWF=    109 Int=      0 D2E=      0 Chk=    156 Scr=      1
 Normal termination of Gaussian 09 at Fri Jul  8 11:19:03 2016.
