 Entering Gaussian System, Link 0=g09
 Initial command:
 /share/sw/gaussian/D.01/g09/l1.exe "/local/scratch/epluhar/Gau-9188.inp" -scrdir="/local/scratch/epluhar/"
 Entering Link 1 = /share/sw/gaussian/D.01/g09/l1.exe PID=      9189.
  
 Copyright (c) 1988,1990,1992,1993,1995,1998,2003,2009,2013,
            Gaussian, Inc.  All Rights Reserved.
  
 This is part of the Gaussian(R) 09 program.  It is based on
 the Gaussian(R) 03 system (copyright 2003, Gaussian, Inc.),
 the Gaussian(R) 98 system (copyright 1998, Gaussian, Inc.),
 the Gaussian(R) 94 system (copyright 1995, Gaussian, Inc.),
 the Gaussian 92(TM) system (copyright 1992, Gaussian, Inc.),
 the Gaussian 90(TM) system (copyright 1990, Gaussian, Inc.),
 the Gaussian 88(TM) system (copyright 1988, Gaussian, Inc.),
 the Gaussian 86(TM) system (copyright 1986, Carnegie Mellon
 University), and the Gaussian 82(TM) system (copyright 1983,
 Carnegie Mellon University). Gaussian is a federally registered
 trademark of Gaussian, Inc.
  
 This software contains proprietary and confidential information,
 including trade secrets, belonging to Gaussian, Inc.
  
 This software is provided under written license and may be
 used, copied, transmitted, or stored only in accord with that
 written license.
  
 The following legend is applicable only to US Government
 contracts under FAR:
  
                    RESTRICTED RIGHTS LEGEND
  
 Use, reproduction and disclosure by the US Government is
 subject to restrictions as set forth in subparagraphs (a)
 and (c) of the Commercial Computer Software - Restricted
 Rights clause in FAR 52.227-19.
  
 Gaussian, Inc.
 340 Quinnipiac St., Bldg. 40, Wallingford CT 06492
  
  
 ---------------------------------------------------------------
 Warning -- This program may not be used in any manner that
 competes with the business of Gaussian, Inc. or will provide
 assistance to any competitor of Gaussian, Inc.  The licensee
 of this program is prohibited from giving any competitor of
 Gaussian, Inc. access to this program.  By using this program,
 the user acknowledges that Gaussian, Inc. is engaged in the
 business of creating and licensing software in the field of
 computational chemistry and represents and warrants to the
 licensee that it is not a competitor of Gaussian, Inc. and that
 it will not use this program in any manner prohibited above.
 ---------------------------------------------------------------
  

 Cite this work as:
 Gaussian 09, Revision D.01,
 M. J. Frisch, G. W. Trucks, H. B. Schlegel, G. E. Scuseria, 
 M. A. Robb, J. R. Cheeseman, G. Scalmani, V. Barone, B. Mennucci, 
 G. A. Petersson, H. Nakatsuji, M. Caricato, X. Li, H. P. Hratchian, 
 A. F. Izmaylov, J. Bloino, G. Zheng, J. L. Sonnenberg, M. Hada, 
 M. Ehara, K. Toyota, R. Fukuda, J. Hasegawa, M. Ishida, T. Nakajima, 
 Y. Honda, O. Kitao, H. Nakai, T. Vreven, J. A. Montgomery, Jr., 
 J. E. Peralta, F. Ogliaro, M. Bearpark, J. J. Heyd, E. Brothers, 
 K. N. Kudin, V. N. Staroverov, T. Keith, R. Kobayashi, J. Normand, 
 K. Raghavachari, A. Rendell, J. C. Burant, S. S. Iyengar, J. Tomasi, 
 M. Cossi, N. Rega, J. M. Millam, M. Klene, J. E. Knox, J. B. Cross, 
 V. Bakken, C. Adamo, J. Jaramillo, R. Gomperts, R. E. Stratmann, 
 O. Yazyev, A. J. Austin, R. Cammi, C. Pomelli, J. W. Ochterski, 
 R. L. Martin, K. Morokuma, V. G. Zakrzewski, G. A. Voth, 
 P. Salvador, J. J. Dannenberg, S. Dapprich, A. D. Daniels, 
 O. Farkas, J. B. Foresman, J. V. Ortiz, J. Cioslowski, 
 and D. J. Fox, Gaussian, Inc., Wallingford CT, 2013.
 
 ******************************************
 Gaussian 09:  ES64L-G09RevD.01 24-Apr-2013
                12-Sep-2016 
 ******************************************
 %chk=A02_FF.chk
 ---------------------
 # opt freq rhf/6-31g*
 ---------------------
 1/18=20,19=15,38=1/1,3;
 2/9=110,12=2,17=6,18=5,40=1/2;
 3/5=1,6=6,7=1,11=1,16=1,25=1,30=1,71=1,116=1/1,2,3;
 4//1;
 5/5=2,38=5/2;
 6/7=2,8=2,9=2,10=2,28=1/1;
 7//1,2,3,16;
 1/18=20,19=15/3(2);
 2/9=110/2;
 99//99;
 2/9=110/2;
 3/5=1,6=6,7=1,11=1,16=1,25=1,30=1,71=1,116=1/1,2,3;
 4/5=5,16=3,69=1/1;
 5/5=2,38=5/2;
 7//1,2,3,16;
 1/18=20,19=15/3(-5);
 2/9=110/2;
 6/7=2,8=2,9=2,10=2,19=2,28=1/1;
 99/9=1/99;
 -------------------
 Title Card Required
 -------------------
 Symbolic Z-matrix:
 Charge =  0 Multiplicity = 1
 O                     4.28583   5.24097   3.30784 
 O                     5.53639   2.24076   3.03609 
 O                     6.42068   3.1503    4.87589 
 N                     2.31852   5.49419   1.5352 
 N                     5.86747   4.70927   1.75903 
 C                     3.71877   5.58729   0.98752 
 C                     4.0472    7.01412   0.48741 
 C                     4.1171    8.07877   1.56079 
 C                     5.31631   8.33136   2.25188 
 C                     5.3826    9.28954   3.25501 
 C                     4.26052   10.01391   3.57432 
 C                     3.07336   9.7989    2.89359 
 C                     2.99382   8.83446   1.90389 
 C                     4.64982   5.14787   2.10865 
 C                     6.82045   4.24814   2.76924 
 C                     7.41946   5.3775    3.57741 
 C                     8.37401   6.32106   2.8787 
 C                     8.70304   7.52975   3.50825 
 C                     9.68049   8.3752    2.99034 
 C                     10.34457   8.04328   1.82619 
 C                     9.98903   6.87635   1.17904 
 C                     9.0164    6.03507   1.68169 
 C                     6.1865    3.13339   3.6188 
 H                     2.06578   4.66356   1.54228 
 H                     1.77773   5.95574   1.03527 
 H                     2.30321   5.80962   2.345 
 H                     6.0961    4.69696   0.92036 
 H                     3.80735   4.9746    0.25541 
 H                     4.99118   6.98344  -0.01544 
 H                     6.10334   7.82826   2.02696 
 H                     6.20578   9.4461    3.71955 
 H                     4.3003    10.67149   4.27122 
 H                     2.2996    10.32078   3.10906 
 H                     2.1622    8.68833   1.45079 
 H                     7.54842   3.84316   2.2949 
 H                     7.88347   4.9913    4.32241 
 H                     6.69872   5.89938   3.93085 
 H                     8.24505   7.78025   4.31261 
 H                     9.89623   9.19143   3.44235 
 H                     11.03518   8.609     1.47693 
 H                     10.42894   6.64463   0.35888 
 H                     8.78258   5.24181   1.19864 
 O                     2.77205   2.5468    1.43429 
 H                     2.09774   1.87262   1.54562 
 H                     3.29797   7.30132  -0.22046 
 H                     3.64105   2.14427   1.50076 
 
 Add virtual bond connecting atoms O43        and H24        Dist= 4.22D+00.

 GradGradGradGradGradGradGradGradGradGradGradGradGradGradGradGradGradGrad
 Berny optimization.
 Initialization pass.
                           ----------------------------
                           !    Initial Parameters    !
                           ! (Angstroms and Degrees)  !
 --------------------------                            --------------------------
 ! Name  Definition              Value          Derivative Info.                !
 --------------------------------------------------------------------------------
 ! R1    R(1,14)                 1.2567         estimate D2E/DX2                !
 ! R2    R(2,23)                 1.2486         estimate D2E/DX2                !
 ! R3    R(3,23)                 1.2788         estimate D2E/DX2                !
 ! R4    R(4,6)                  1.5064         estimate D2E/DX2                !
 ! R5    R(4,24)                 0.8683         estimate D2E/DX2                !
 ! R6    R(4,25)                 0.8691         estimate D2E/DX2                !
 ! R7    R(4,26)                 0.8692         estimate D2E/DX2                !
 ! R8    R(5,14)                 1.3406         estimate D2E/DX2                !
 ! R9    R(5,15)                 1.4633         estimate D2E/DX2                !
 ! R10   R(5,27)                 0.8694         estimate D2E/DX2                !
 ! R11   R(6,7)                  1.5472         estimate D2E/DX2                !
 ! R12   R(6,14)                 1.5221         estimate D2E/DX2                !
 ! R13   R(6,28)                 0.9588         estimate D2E/DX2                !
 ! R14   R(7,8)                  1.5134         estimate D2E/DX2                !
 ! R15   R(7,29)                 1.07           estimate D2E/DX2                !
 ! R16   R(7,45)                 1.07           estimate D2E/DX2                !
 ! R17   R(8,9)                  1.407          estimate D2E/DX2                !
 ! R18   R(8,13)                 1.3966         estimate D2E/DX2                !
 ! R19   R(9,10)                 1.3888         estimate D2E/DX2                !
 ! R20   R(9,30)                 0.9608         estimate D2E/DX2                !
 ! R21   R(10,11)                1.3732         estimate D2E/DX2                !
 ! R22   R(10,31)                0.9581         estimate D2E/DX2                !
 ! R23   R(11,12)                1.3853         estimate D2E/DX2                !
 ! R24   R(11,32)                0.959          estimate D2E/DX2                !
 ! R25   R(12,13)                1.3842         estimate D2E/DX2                !
 ! R26   R(12,33)                0.9579         estimate D2E/DX2                !
 ! R27   R(13,34)                0.9582         estimate D2E/DX2                !
 ! R28   R(15,16)                1.5124         estimate D2E/DX2                !
 ! R29   R(15,23)                1.5383         estimate D2E/DX2                !
 ! R30   R(15,35)                0.9586         estimate D2E/DX2                !
 ! R31   R(16,17)                1.5132         estimate D2E/DX2                !
 ! R32   R(16,36)                0.9589         estimate D2E/DX2                !
 ! R33   R(16,37)                0.9575         estimate D2E/DX2                !
 ! R34   R(17,18)                1.402          estimate D2E/DX2                !
 ! R35   R(17,22)                1.3883         estimate D2E/DX2                !
 ! R36   R(18,19)                1.3923         estimate D2E/DX2                !
 ! R37   R(18,38)                0.9589         estimate D2E/DX2                !
 ! R38   R(19,20)                1.3807         estimate D2E/DX2                !
 ! R39   R(19,39)                0.9576         estimate D2E/DX2                !
 ! R40   R(20,21)                1.3809         estimate D2E/DX2                !
 ! R41   R(20,40)                0.9586         estimate D2E/DX2                !
 ! R42   R(21,22)                1.3807         estimate D2E/DX2                !
 ! R43   R(21,41)                0.9591         estimate D2E/DX2                !
 ! R44   R(22,42)                0.9577         estimate D2E/DX2                !
 ! R45   R(24,43)                2.2341         estimate D2E/DX2                !
 ! R46   R(43,44)                0.96           estimate D2E/DX2                !
 ! R47   R(43,46)                0.96           estimate D2E/DX2                !
 ! A1    A(6,4,24)             109.4304         estimate D2E/DX2                !
 ! A2    A(6,4,25)             109.6584         estimate D2E/DX2                !
 ! A3    A(6,4,26)             109.4302         estimate D2E/DX2                !
 ! A4    A(24,4,25)            109.366          estimate D2E/DX2                !
 ! A5    A(24,4,26)            109.5386         estimate D2E/DX2                !
 ! A6    A(25,4,26)            109.4038         estimate D2E/DX2                !
 ! A7    A(14,5,15)            120.968          estimate D2E/DX2                !
 ! A8    A(14,5,27)            119.6755         estimate D2E/DX2                !
 ! A9    A(15,5,27)            119.3565         estimate D2E/DX2                !
 ! A10   A(4,6,7)              111.8282         estimate D2E/DX2                !
 ! A11   A(4,6,14)             106.4356         estimate D2E/DX2                !
 ! A12   A(4,6,28)             108.9051         estimate D2E/DX2                !
 ! A13   A(7,6,14)             111.9917         estimate D2E/DX2                !
 ! A14   A(7,6,28)             108.838          estimate D2E/DX2                !
 ! A15   A(14,6,28)            108.7493         estimate D2E/DX2                !
 ! A16   A(6,7,8)              115.4221         estimate D2E/DX2                !
 ! A17   A(6,7,29)             108.2238         estimate D2E/DX2                !
 ! A18   A(6,7,45)             108.2238         estimate D2E/DX2                !
 ! A19   A(8,7,29)             108.2238         estimate D2E/DX2                !
 ! A20   A(8,7,45)             108.2238         estimate D2E/DX2                !
 ! A21   A(29,7,45)            108.3337         estimate D2E/DX2                !
 ! A22   A(7,8,9)              120.9328         estimate D2E/DX2                !
 ! A23   A(7,8,13)             121.1788         estimate D2E/DX2                !
 ! A24   A(9,8,13)             117.8868         estimate D2E/DX2                !
 ! A25   A(8,9,10)             121.2877         estimate D2E/DX2                !
 ! A26   A(8,9,30)             119.2884         estimate D2E/DX2                !
 ! A27   A(10,9,30)            119.4235         estimate D2E/DX2                !
 ! A28   A(9,10,11)            119.5308         estimate D2E/DX2                !
 ! A29   A(9,10,31)            120.2628         estimate D2E/DX2                !
 ! A30   A(11,10,31)           120.2062         estimate D2E/DX2                !
 ! A31   A(10,11,12)           120.2725         estimate D2E/DX2                !
 ! A32   A(10,11,32)           119.7882         estimate D2E/DX2                !
 ! A33   A(12,11,32)           119.9393         estimate D2E/DX2                !
 ! A34   A(11,12,13)           120.581          estimate D2E/DX2                !
 ! A35   A(11,12,33)           119.8123         estimate D2E/DX2                !
 ! A36   A(13,12,33)           119.6067         estimate D2E/DX2                !
 ! A37   A(8,13,12)            120.4263         estimate D2E/DX2                !
 ! A38   A(8,13,34)            119.9558         estimate D2E/DX2                !
 ! A39   A(12,13,34)           119.6175         estimate D2E/DX2                !
 ! A40   A(1,14,5)             122.4238         estimate D2E/DX2                !
 ! A41   A(1,14,6)             120.2856         estimate D2E/DX2                !
 ! A42   A(5,14,6)             117.2533         estimate D2E/DX2                !
 ! A43   A(5,15,16)            113.0485         estimate D2E/DX2                !
 ! A44   A(5,15,23)            109.9524         estimate D2E/DX2                !
 ! A45   A(5,15,35)            106.6235         estimate D2E/DX2                !
 ! A46   A(16,15,23)           114.1569         estimate D2E/DX2                !
 ! A47   A(16,15,35)           106.2072         estimate D2E/DX2                !
 ! A48   A(23,15,35)           106.2655         estimate D2E/DX2                !
 ! A49   A(15,16,17)           117.9525         estimate D2E/DX2                !
 ! A50   A(15,16,36)           107.8228         estimate D2E/DX2                !
 ! A51   A(15,16,37)           107.8265         estimate D2E/DX2                !
 ! A52   A(17,16,36)           107.7359         estimate D2E/DX2                !
 ! A53   A(17,16,37)           107.7835         estimate D2E/DX2                !
 ! A54   A(36,16,37)           107.2769         estimate D2E/DX2                !
 ! A55   A(16,17,18)           118.5748         estimate D2E/DX2                !
 ! A56   A(16,17,22)           124.1652         estimate D2E/DX2                !
 ! A57   A(18,17,22)           117.1414         estimate D2E/DX2                !
 ! A58   A(17,18,19)           121.4166         estimate D2E/DX2                !
 ! A59   A(17,18,38)           119.3276         estimate D2E/DX2                !
 ! A60   A(19,18,38)           119.2558         estimate D2E/DX2                !
 ! A61   A(18,19,20)           120.3527         estimate D2E/DX2                !
 ! A62   A(18,19,39)           120.0102         estimate D2E/DX2                !
 ! A63   A(20,19,39)           119.6371         estimate D2E/DX2                !
 ! A64   A(19,20,21)           118.3224         estimate D2E/DX2                !
 ! A65   A(19,20,40)           120.7848         estimate D2E/DX2                !
 ! A66   A(21,20,40)           120.8928         estimate D2E/DX2                !
 ! A67   A(20,21,22)           121.7114         estimate D2E/DX2                !
 ! A68   A(20,21,41)           119.1312         estimate D2E/DX2                !
 ! A69   A(22,21,41)           119.1573         estimate D2E/DX2                !
 ! A70   A(17,22,21)           120.9532         estimate D2E/DX2                !
 ! A71   A(17,22,42)           119.5075         estimate D2E/DX2                !
 ! A72   A(21,22,42)           119.5392         estimate D2E/DX2                !
 ! A73   A(2,23,3)             124.3023         estimate D2E/DX2                !
 ! A74   A(2,23,15)            118.3533         estimate D2E/DX2                !
 ! A75   A(3,23,15)            117.248          estimate D2E/DX2                !
 ! A76   A(4,24,43)            144.489          estimate D2E/DX2                !
 ! A77   A(24,43,44)           115.9589         estimate D2E/DX2                !
 ! A78   A(24,43,46)           132.851          estimate D2E/DX2                !
 ! A79   A(44,43,46)           109.4712         estimate D2E/DX2                !
 ! D1    D(24,4,6,7)           160.0637         estimate D2E/DX2                !
 ! D2    D(24,4,6,14)          -77.3387         estimate D2E/DX2                !
 ! D3    D(24,4,6,28)           39.7429         estimate D2E/DX2                !
 ! D4    D(25,4,6,7)            40.103          estimate D2E/DX2                !
 ! D5    D(25,4,6,14)          162.7007         estimate D2E/DX2                !
 ! D6    D(25,4,6,28)          -80.2178         estimate D2E/DX2                !
 ! D7    D(26,4,6,7)           -79.9039         estimate D2E/DX2                !
 ! D8    D(26,4,6,14)           42.6938         estimate D2E/DX2                !
 ! D9    D(26,4,6,28)          159.7753         estimate D2E/DX2                !
 ! D10   D(6,4,24,43)           17.0671         estimate D2E/DX2                !
 ! D11   D(25,4,24,43)         137.2069         estimate D2E/DX2                !
 ! D12   D(26,4,24,43)        -102.8988         estimate D2E/DX2                !
 ! D13   D(15,5,14,1)            3.1394         estimate D2E/DX2                !
 ! D14   D(15,5,14,6)         -179.0786         estimate D2E/DX2                !
 ! D15   D(27,5,14,1)         -176.9269         estimate D2E/DX2                !
 ! D16   D(27,5,14,6)            0.8552         estimate D2E/DX2                !
 ! D17   D(14,5,15,16)         -73.4025         estimate D2E/DX2                !
 ! D18   D(14,5,15,23)          55.4706         estimate D2E/DX2                !
 ! D19   D(14,5,15,35)         170.2647         estimate D2E/DX2                !
 ! D20   D(27,5,15,16)         106.6636         estimate D2E/DX2                !
 ! D21   D(27,5,15,23)        -124.4633         estimate D2E/DX2                !
 ! D22   D(27,5,15,35)          -9.6693         estimate D2E/DX2                !
 ! D23   D(4,6,7,8)             66.7426         estimate D2E/DX2                !
 ! D24   D(4,6,7,29)          -171.8558         estimate D2E/DX2                !
 ! D25   D(4,6,7,45)           -54.659          estimate D2E/DX2                !
 ! D26   D(14,6,7,8)           -52.6288         estimate D2E/DX2                !
 ! D27   D(14,6,7,29)           68.7728         estimate D2E/DX2                !
 ! D28   D(14,6,7,45)         -174.0304         estimate D2E/DX2                !
 ! D29   D(28,6,7,8)          -172.8974         estimate D2E/DX2                !
 ! D30   D(28,6,7,29)          -51.4958         estimate D2E/DX2                !
 ! D31   D(28,6,7,45)           65.7011         estimate D2E/DX2                !
 ! D32   D(4,6,14,1)           -24.3987         estimate D2E/DX2                !
 ! D33   D(4,6,14,5)           157.7694         estimate D2E/DX2                !
 ! D34   D(7,6,14,1)            98.0959         estimate D2E/DX2                !
 ! D35   D(7,6,14,5)           -79.7361         estimate D2E/DX2                !
 ! D36   D(28,6,14,1)         -141.5839         estimate D2E/DX2                !
 ! D37   D(28,6,14,5)           40.5841         estimate D2E/DX2                !
 ! D38   D(6,7,8,9)             87.5629         estimate D2E/DX2                !
 ! D39   D(6,7,8,13)           -91.9735         estimate D2E/DX2                !
 ! D40   D(29,7,8,9)           -33.8387         estimate D2E/DX2                !
 ! D41   D(29,7,8,13)          146.6249         estimate D2E/DX2                !
 ! D42   D(45,7,8,9)          -151.0356         estimate D2E/DX2                !
 ! D43   D(45,7,8,13)           29.4281         estimate D2E/DX2                !
 ! D44   D(7,8,9,10)          -178.8072         estimate D2E/DX2                !
 ! D45   D(7,8,9,30)             0.9572         estimate D2E/DX2                !
 ! D46   D(13,8,9,10)            0.7441         estimate D2E/DX2                !
 ! D47   D(13,8,9,30)         -179.4916         estimate D2E/DX2                !
 ! D48   D(7,8,13,12)          179.6173         estimate D2E/DX2                !
 ! D49   D(7,8,13,34)           -0.5841         estimate D2E/DX2                !
 ! D50   D(9,8,13,12)            0.0672         estimate D2E/DX2                !
 ! D51   D(9,8,13,34)          179.8659         estimate D2E/DX2                !
 ! D52   D(8,9,10,11)           -0.5156         estimate D2E/DX2                !
 ! D53   D(8,9,10,31)          179.6552         estimate D2E/DX2                !
 ! D54   D(30,9,10,11)         179.7203         estimate D2E/DX2                !
 ! D55   D(30,9,10,31)          -0.1089         estimate D2E/DX2                !
 ! D56   D(9,10,11,12)          -0.5364         estimate D2E/DX2                !
 ! D57   D(9,10,11,32)         179.5055         estimate D2E/DX2                !
 ! D58   D(31,10,11,12)        179.2929         estimate D2E/DX2                !
 ! D59   D(31,10,11,32)         -0.6652         estimate D2E/DX2                !
 ! D60   D(10,11,12,13)          1.3511         estimate D2E/DX2                !
 ! D61   D(10,11,12,33)       -178.7094         estimate D2E/DX2                !
 ! D62   D(32,11,12,13)       -178.6908         estimate D2E/DX2                !
 ! D63   D(32,11,12,33)          1.2487         estimate D2E/DX2                !
 ! D64   D(11,12,13,8)          -1.1075         estimate D2E/DX2                !
 ! D65   D(11,12,13,34)        179.0931         estimate D2E/DX2                !
 ! D66   D(33,12,13,8)         178.9528         estimate D2E/DX2                !
 ! D67   D(33,12,13,34)         -0.8465         estimate D2E/DX2                !
 ! D68   D(5,15,16,17)         -69.2505         estimate D2E/DX2                !
 ! D69   D(5,15,16,36)         168.5511         estimate D2E/DX2                !
 ! D70   D(5,15,16,37)          53.0147         estimate D2E/DX2                !
 ! D71   D(23,15,16,17)        164.0752         estimate D2E/DX2                !
 ! D72   D(23,15,16,36)         41.8767         estimate D2E/DX2                !
 ! D73   D(23,15,16,37)        -73.6596         estimate D2E/DX2                !
 ! D74   D(35,15,16,17)         47.3288         estimate D2E/DX2                !
 ! D75   D(35,15,16,36)        -74.8697         estimate D2E/DX2                !
 ! D76   D(35,15,16,37)        169.594          estimate D2E/DX2                !
 ! D77   D(5,15,23,2)           43.7014         estimate D2E/DX2                !
 ! D78   D(5,15,23,3)         -139.7137         estimate D2E/DX2                !
 ! D79   D(16,15,23,2)         171.9671         estimate D2E/DX2                !
 ! D80   D(16,15,23,3)         -11.4479         estimate D2E/DX2                !
 ! D81   D(35,15,23,2)         -71.3202         estimate D2E/DX2                !
 ! D82   D(35,15,23,3)         105.2647         estimate D2E/DX2                !
 ! D83   D(15,16,17,18)        165.934          estimate D2E/DX2                !
 ! D84   D(15,16,17,22)        -18.1469         estimate D2E/DX2                !
 ! D85   D(36,16,17,18)        -71.8233         estimate D2E/DX2                !
 ! D86   D(36,16,17,22)        104.0957         estimate D2E/DX2                !
 ! D87   D(37,16,17,18)         43.6469         estimate D2E/DX2                !
 ! D88   D(37,16,17,22)       -140.434          estimate D2E/DX2                !
 ! D89   D(16,17,18,19)        173.074          estimate D2E/DX2                !
 ! D90   D(16,17,18,38)         -6.9573         estimate D2E/DX2                !
 ! D91   D(22,17,18,19)         -3.1319         estimate D2E/DX2                !
 ! D92   D(22,17,18,38)        176.8368         estimate D2E/DX2                !
 ! D93   D(16,17,22,21)       -172.5362         estimate D2E/DX2                !
 ! D94   D(16,17,22,42)          7.342          estimate D2E/DX2                !
 ! D95   D(18,17,22,21)          3.4366         estimate D2E/DX2                !
 ! D96   D(18,17,22,42)       -176.6853         estimate D2E/DX2                !
 ! D97   D(17,18,19,20)          0.6219         estimate D2E/DX2                !
 ! D98   D(17,18,19,39)       -179.3033         estimate D2E/DX2                !
 ! D99   D(38,18,19,20)       -179.3468         estimate D2E/DX2                !
 ! D100  D(38,18,19,39)          0.728          estimate D2E/DX2                !
 ! D101  D(18,19,20,21)          1.6441         estimate D2E/DX2                !
 ! D102  D(18,19,20,40)       -178.328          estimate D2E/DX2                !
 ! D103  D(39,19,20,21)       -178.4304         estimate D2E/DX2                !
 ! D104  D(39,19,20,40)          1.5975         estimate D2E/DX2                !
 ! D105  D(19,20,21,22)         -1.3437         estimate D2E/DX2                !
 ! D106  D(19,20,21,41)        178.6249         estimate D2E/DX2                !
 ! D107  D(40,20,21,22)        178.6284         estimate D2E/DX2                !
 ! D108  D(40,20,21,41)         -1.403          estimate D2E/DX2                !
 ! D109  D(20,21,22,17)         -1.2724         estimate D2E/DX2                !
 ! D110  D(20,21,22,42)        178.8495         estimate D2E/DX2                !
 ! D111  D(41,21,22,17)        178.759          estimate D2E/DX2                !
 ! D112  D(41,21,22,42)         -1.1191         estimate D2E/DX2                !
 ! D113  D(4,24,43,44)         175.9132         estimate D2E/DX2                !
 ! D114  D(4,24,43,46)          12.7123         estimate D2E/DX2                !
 ! D115  D(24,43,44,46)       -167.0125         estimate D2E/DX2                !
 --------------------------------------------------------------------------------
 Trust Radius=3.00D-01 FncErr=1.00D-07 GrdErr=1.00D-07
 Number of steps in this run=    251 maximum allowed number of steps=    276.
 GradGradGradGradGradGradGradGradGradGradGradGradGradGradGradGradGradGrad

                          Input orientation:                          
 ---------------------------------------------------------------------
 Center     Atomic      Atomic             Coordinates (Angstroms)
 Number     Number       Type             X           Y           Z
 ---------------------------------------------------------------------
      1          8           0        4.285833    5.240970    3.307840
      2          8           0        5.536390    2.240762    3.036089
      3          8           0        6.420675    3.150302    4.875894
      4          7           0        2.318520    5.494188    1.535199
      5          7           0        5.867470    4.709275    1.759026
      6          6           0        3.718768    5.587293    0.987521
      7          6           0        4.047196    7.014124    0.487408
      8          6           0        4.117100    8.078768    1.560795
      9          6           0        5.316314    8.331360    2.251880
     10          6           0        5.382602    9.289539    3.255014
     11          6           0        4.260523   10.013915    3.574324
     12          6           0        3.073362    9.798898    2.893586
     13          6           0        2.993816    8.834456    1.903887
     14          6           0        4.649816    5.147866    2.108652
     15          6           0        6.820453    4.248138    2.769240
     16          6           0        7.419457    5.377495    3.577412
     17          6           0        8.374008    6.321062    2.878703
     18          6           0        8.703038    7.529746    3.508249
     19          6           0        9.680488    8.375198    2.990344
     20          6           0       10.344575    8.043280    1.826190
     21          6           0        9.989029    6.876347    1.179037
     22          6           0        9.016400    6.035069    1.681694
     23          6           0        6.186497    3.133393    3.618801
     24          1           0        2.065781    4.663557    1.542279
     25          1           0        1.777729    5.955743    1.035266
     26          1           0        2.303214    5.809615    2.345005
     27          1           0        6.096104    4.696958    0.920357
     28          1           0        3.807353    4.974600    0.255413
     29          1           0        4.991180    6.983437   -0.015435
     30          1           0        6.103335    7.828263    2.026964
     31          1           0        6.205781    9.446105    3.719550
     32          1           0        4.300296   10.671489    4.271219
     33          1           0        2.299598   10.320783    3.109064
     34          1           0        2.162201    8.688329    1.450788
     35          1           0        7.548418    3.843155    2.294902
     36          1           0        7.883475    4.991301    4.322411
     37          1           0        6.698724    5.899379    3.930851
     38          1           0        8.245047    7.780250    4.312608
     39          1           0        9.896226    9.191425    3.442353
     40          1           0       11.035177    8.609002    1.476928
     41          1           0       10.428942    6.644630    0.358885
     42          1           0        8.782584    5.241805    1.198643
     43          8           0        2.772052    2.546795    1.434287
     44          1           0        2.097744    1.872618    1.545617
     45          1           0        3.297966    7.301319   -0.220458
     46          1           0        3.641049    2.144272    1.500757
 ---------------------------------------------------------------------
                    Distance matrix (angstroms):
                    1          2          3          4          5
     1  O    0.000000
     2  O    3.261746   0.000000
     3  O    3.374498   2.234749   0.000000
     4  N    2.660206   4.815822   5.786339   0.000000
     5  N    2.276642   2.798939   3.528640   3.641597   0.000000
     6  C    2.413582   4.324309   5.325286   1.506424   2.446028
     7  C    3.340038   5.612349   6.310415   2.529109   3.200428
     8  C    3.336725   6.186533   6.370723   3.148904   3.802180
     9  C    3.424536   6.144819   5.911719   4.189265   3.696780
    10  C    4.194831   7.053853   6.433901   5.172142   4.842717
    11  C    4.780445   7.895532   7.312285   5.325160   5.832391
    12  C    4.734596   7.950612   7.703109   4.576629   5.915956
    13  C    4.068604   7.157050   7.272262   3.427732   5.029512
    14  C    1.256663   3.177642   3.844975   2.425640   1.340628
    15  C    2.774906   2.397829   2.408953   4.831449   1.463338
    16  C    3.148159   3.698387   2.764781   5.495799   2.482280
    17  C    4.250167   4.972493   4.225873   6.257607   3.183436
    18  C    4.978991   6.182551   5.124369   6.985591   4.365236
    19  C    6.247118   7.403171   6.440591   8.038422   5.430860
    20  C    6.837878   7.632280   6.974161   8.426156   5.582524
    21  C    6.303388   6.690536   6.346913   7.802174   4.692530
    22  C    5.064900   5.323685   5.026190   6.721281   3.417525
    23  C    2.855013   1.248591   1.278831   4.987584   2.458443
    24  H    2.894692   4.488489   5.689291   0.868260   3.808137
    25  H    3.459202   5.650833   6.646644   0.869150   4.336299
    26  H    2.276223   4.864950   5.516415   0.869203   3.775982
    27  H    3.045177   3.289757   4.259550   3.909443   0.869362
    28  H    3.101162   4.265631   5.613053   2.030874   2.564241
    29  H    3.818096   5.665864   6.376635   3.430079   3.014699
    30  H    3.411457   5.706131   5.486386   4.473764   3.139349
    31  H    4.640998   7.268574   6.404720   5.958173   5.137671
    32  H    5.515328   8.609914   7.837722   6.182045   6.656962
    33  H    5.457943   8.704532   8.456994   5.076753   6.785377
    34  H    4.454519   7.447782   7.780469   3.199077   5.445815
    35  H    3.691123   2.676804   2.900581   5.536686   1.965429
    36  H    3.746293   3.837824   2.415658   6.244211   3.273341
    37  H    2.577535   3.941712   2.920247   5.008943   2.612309
    38  H    4.809665   6.297003   5.008198   6.932806   4.648069
    39  H    6.862994   8.214921   7.115452   8.644560   6.257327
    40  H    7.762057   8.556993   7.914797   9.256650   6.480174
    41  H    6.957325   7.106232   6.977098   8.275637   5.149080
    42  H    4.966838   4.787509   4.845119   6.477738   3.015876
    43  O    3.613906   3.209516   5.051864   2.983790   3.789906
    44  H    4.386224   3.765810   5.604548   3.628308   4.722605
    45  H    4.203546   6.420660   7.277022   2.703214   4.152035
    46  H    3.642916   2.441080   4.486643   3.601696   3.406302
                    6          7          8          9         10
     6  C    0.000000
     7  C    1.547200   0.000000
     8  C    2.587423   1.513444   0.000000
     9  C    3.417698   2.541482   1.406952   0.000000
    10  C    4.649355   3.823672   2.436769   1.388806   0.000000
    11  C    5.155582   4.309675   2.796366   2.386324   1.373222
    12  C    4.667682   3.806969   2.413415   2.756137   2.392209
    13  C    3.450993   2.535671   1.396618   2.401708   2.781896
    14  C    1.522130   2.544505   3.028881   3.255667   4.359424
    15  C    3.819464   4.533034   4.841713   4.382100   5.264895
    16  C    4.521797   4.857862   4.719024   3.860773   4.422308
    17  C    5.078015   4.991986   4.790373   3.712640   4.231073
    18  C    5.913555   5.573886   5.012468   3.700128   3.766470
    19  C    6.879376   6.312780   5.751762   4.426428   4.402033
    20  C    7.115937   6.519853   6.233229   5.054465   5.311862
    21  C    6.404257   5.983537   6.005923   5.010222   5.599317
    22  C    5.361650   5.203639   5.309846   4.391891   5.125564
    23  C    4.362905   5.426076   5.742345   5.444681   6.219061
    24  H    1.973172   3.250218   3.983957   4.951996   5.944280
    25  H    1.976276   2.563357   3.202510   4.432300   5.388561
    26  H    1.973824   2.818329   3.009023   3.930221   4.735042
    27  H    2.539475   3.123256   3.970297   3.948405   5.201107
    28  H    0.958761   2.066640   3.381689   4.186965   5.486139
    29  H    2.138732   1.070000   2.109092   2.657692   4.020841
    30  H    3.433446   2.694581   2.055529   0.960779   2.040317
    31  H    5.342251   4.584840   3.300367   2.046427   0.958086
    32  H    6.080288   5.268549   3.755285   3.253648   2.028261
    33  H    5.377817   4.567403   3.275222   3.713912   3.254178
    34  H    3.500563   2.698938   2.050682   3.273775   3.740010
    35  H    4.406527   5.057730   5.500297   5.012796   5.939333
    36  H    5.368564   5.789309   5.598621   4.693976   5.086114
    37  H    4.200086   4.486709   4.126946   3.262596   3.698934
    38  H    6.029301   5.730712   4.970064   3.623231   3.404416
    39  H    7.561544   6.905323   6.178719   4.809629   4.518575
    40  H    7.930958   7.235653   6.938875   5.777806   5.964590
    41  H    6.821992   6.393725   6.583364   5.706790   6.391295
    42  H    5.079977   5.105964   5.472317   4.761269   5.672098
    43  O    3.215664   4.741266   5.694548   6.372042   7.456180
    44  H    4.091209   5.599576   6.526432   7.250747   8.289936
    45  H    2.138732   1.070000   2.109092   3.353679   4.514159
    46  H    3.481931   4.990721   5.953862   6.453740   7.560772
                   11         12         13         14         15
    11  C    0.000000
    12  C    1.385275   0.000000
    13  C    2.405417   1.384190   0.000000
    14  C    5.096878   4.973271   4.046630   0.000000
    15  C    6.359684   6.698291   6.035421   2.440810   0.000000
    16  C    5.610282   6.237385   5.859827   3.143389   1.512414
    17  C    5.571517   6.339749   6.017797   3.979820   2.592784
    18  C    5.090324   6.100829   6.072188   4.905184   3.854765
    19  C    5.692314   6.759467   6.789910   6.041582   5.026063
    20  C    6.629861   7.555929   7.393622   6.394801   5.264208
    21  C    6.956832   7.701132   7.300178   5.688500   4.413174
    22  C    6.483180   7.138263   6.645108   4.476213   3.032831
    23  C    7.145133   7.392328   6.755462   2.949583   1.538281
    24  H    6.129635   5.404903   4.288170   2.689343   4.927972
    25  H    5.392573   4.461151   3.243511   3.170758   5.599254
    26  H    4.797752   4.099811   3.133876   2.449554   4.798296
    27  H    6.219560   6.249832   5.264068   1.925386   2.035802
    28  H    6.051051   5.547301   4.275254   2.043101   3.990720
    29  H    4.754369   4.479649   3.331596   2.828002   4.310744
    30  H    3.250746   3.716877   3.270578   3.050233   3.725927
    31  H    2.031631   3.258639   3.739982   4.846738   5.319753
    32  H    0.958983   2.040749   3.268921   5.942160   7.061627
    33  H    2.038593   0.957865   2.035573   5.769178   7.578300
    34  H    3.266427   2.035988   0.958247   4.376744   6.569089
    35  H    7.108125   7.473649   6.768336   3.184157   0.958614
    36  H    6.237953   6.949224   6.672920   3.921962   2.023523
    37  H    4.795971   5.424520   5.142918   2.843097   2.022562
    38  H    4.627175   5.730173   5.872709   4.971172   4.109412
    39  H    5.696933   6.871800   7.080788   6.756770   5.860849
    40  H    7.229715   8.173939   8.055843   7.290499   6.200896
    41  H    7.729199   8.395158   7.903383   6.220955   4.957235
    42  H    6.990416   7.499010   6.849405   4.232814   2.702611
    43  O    7.909057   7.403603   6.309072   3.278161   4.589795
    44  H    8.664524   8.099060   7.028406   4.190147   5.426263
    45  H    4.762884   3.998203   2.637396   3.448132   5.537881
    46  H    8.161783   7.800997   6.733498   3.226256   4.017948
                   16         17         18         19         20
    16  C    0.000000
    17  C    1.513168   0.000000
    18  C    2.506900   1.401965   0.000000
    19  C    3.800412   2.436972   1.392273   0.000000
    20  C    4.327759   2.820807   2.405760   1.380737   0.000000
    21  C    3.821185   2.409460   2.739695   2.371199   1.380924
    22  C    2.564445   1.388269   2.380873   2.762206   2.412019
    23  C    2.560840   3.936265   5.066865   6.330833   6.679076
    24  H    5.771769   6.657858   7.492213   8.594005   8.946594
    25  H    6.214980   6.858761   7.520175   8.492920   8.852922
    26  H    5.280294   6.115632   6.728279   7.837273   8.361933
    27  H    3.045379   3.414920   4.638747   5.537337   5.483421
    28  H    4.923952   5.435894   6.409168   7.316941   7.390494
    29  H    4.624297   4.500921   5.147105   5.741194   5.759660
    30  H    3.184703   2.855358   3.006954   3.744764   4.251430
    31  H    4.248152   3.895398   3.154897   3.708392   4.762599
    32  H    6.183600   6.120493   5.462308   5.988326   7.029862
    33  H    7.132209   7.276626   6.996662   7.633933   8.458986
    34  H    6.566803   6.799223   6.953993   7.680685   8.216341
    35  H    2.003911   2.676274   4.049235   5.056557   5.067468
    36  H    0.958896   2.023161   2.788951   4.056405   4.647871
    37  H    0.957465   2.022723   2.618007   3.988126   4.724207
    38  H    2.644871   2.049865   0.958907   2.040303   3.264886
    39  H    4.549581   3.297550   2.046758   0.957644   2.032545
    40  H    5.284704   3.779083   3.275658   2.044572   0.958623
    41  H    4.584926   3.267558   3.698739   3.237225   2.028872
    42  H    2.745008   2.038218   3.251966   3.719486   3.268316
    43  O    5.848438   6.907484   8.019209   9.171591   9.365257
    44  H    6.688272   7.807513   8.915432  10.093007  10.303689
    45  H    5.925504   6.027594   6.570406   7.224890   7.375226
    46  H    5.389118   6.461053   7.658791   8.804438   8.935405
                   21         22         23         24         25
    21  C    0.000000
    22  C    1.380731   0.000000
    23  C    5.866975   4.492267   0.000000
    24  H    8.234454   7.086013   4.861444   0.000000
    25  H    8.263996   7.267911   5.837598   1.417667   0.000000
    26  H    7.846601   6.749644   4.885142   1.419222   1.418768
    27  H    4.468950   3.301258   3.120017   4.078162   4.499567
    28  H    6.533210   5.503912   4.512510   2.187657   2.385411
    29  H    5.139720   4.470128   5.427641   4.045525   3.533610
    30  H    4.089467   3.438125   4.958091   5.152875   4.816707
    31  H    5.231714   4.866991   6.313545   6.689758   6.244650
    32  H    7.505090   7.102370   7.797839   6.966736   6.250840
    33  H    8.643870   8.094452   8.186964   5.874835   4.860716
    34  H    8.038431   7.353445   7.193925   4.026965   2.790610
    35  H    4.049936   2.708410   2.027634   5.594534   6.273003
    36  H    4.227003   3.057182   2.612781   6.456168   7.001115
    37  H    4.399210   3.232451   2.830271   5.356929   5.709972
    38  H    3.698349   3.249977   5.129550   7.454651   7.476363
    39  H    3.238950   3.719758   7.105841   9.242712   9.064971
    40  H    2.045791   3.277578   7.620998   9.799024   9.640291
    41  H    0.959096   2.028956   6.399545   8.675686   8.704915
    42  H    2.031655   0.957746   4.128224   6.750399   7.043038
    43  O    8.419913   7.156896   4.095685   2.234091   3.573349
    44  H    9.351153   8.075415   4.754529   2.791124   4.127320
    45  H    6.849052   6.158089   6.360434   3.403426   2.387161
    46  H    7.924196   6.638181   3.455976   2.971531   4.268016
                   26         27         28         29         30
    26  H    0.000000
    27  H    4.201624   0.000000
    28  H    2.706673   2.399503   0.000000
    29  H    3.764930   2.706390   2.347388   0.000000
    30  H    4.314744   3.321100   4.068577   2.474271   0.000000
    31  H    5.508490   5.513792   6.143863   4.635742   2.343662
    32  H    5.597898   7.081541   6.987434   5.696881   4.046179
    33  H    4.575416   7.129607   6.244863   5.305185   4.674613
    34  H    3.017698   5.629209   4.234055   3.613806   4.074829
    35  H    5.601932   2.174298   4.408543   4.662455   4.247486
    36  H    5.976545   3.854258   5.758083   5.581297   4.060336
    37  H    4.673700   3.297278   4.766979   4.434417   2.774863
    38  H    6.562031   5.062807   6.635181   5.473072   3.132635
    39  H    8.384190   6.403251   8.063037   6.394606   4.271716
    40  H    9.210717   6.325212   8.181835   6.434245   5.023461
    41  H    8.406508   4.783530   6.829725   5.461149   4.784804
    42  H    6.604452   2.755263   5.070898   4.345343   3.815004
    43  O    3.419826   3.992073   2.890646   5.168173   6.272370
    44  H    4.022584   4.935051   3.769573   6.076950   7.193481
    45  H    3.129906   3.989201   2.428898   1.734952   3.632998
    46  H    3.992155   3.588923   3.096660   5.247782   6.216712
                   31         32         33         34         35
    31  H    0.000000
    32  H    2.331690   0.000000
    33  H    4.049200   2.340170   0.000000
    34  H    4.698090   4.056995   2.331022   0.000000
    35  H    5.935093   7.815514   8.376910   7.293804   0.000000
    36  H    4.798268   6.716124   7.813787   7.392375   2.353995
    37  H    3.587046   5.351760   6.290982   5.874436   2.761587
    38  H    2.699147   4.891015   6.576563   6.783483   4.478520
    39  H    3.709593   5.847395   7.687346   8.002161   5.952548
    40  H    5.390099   7.577634   9.050106   8.873370   5.961532
    41  H    6.080906   8.311573   9.336156   8.585334   4.460251
    42  H    5.538142   7.681998   8.454279   7.468037   2.163602
    43  O    8.038246   8.740387   7.966365   6.171760   5.023433
    44  H    8.885924   9.471022   8.593986   6.816675   5.844168
    45  H    5.345947   5.704198   4.604305   2.450882   6.029284
    46  H    8.050941   8.990189   8.440466   6.709260   4.334098
                   36         37         38         39         40
    36  H    0.000000
    37  H    1.543231   0.000000
    38  H    2.812307   2.464656   0.000000
    39  H    4.739906   4.615215   2.339904   0.000000
    40  H    5.578330   5.671739   4.063587   2.345064   0.000000
    41  H    4.992238   5.218128   4.657355   4.034567   2.340150
    42  H    3.260227   3.498548   4.053323   4.676958   4.060743
    43  O    6.359521   5.735103   8.101078   9.946723  10.248484
    44  H    7.135226   6.563015   8.963576  10.861807  11.192020
    45  H    6.855708   5.546526   6.726936   7.779827   8.028424
    46  H    5.836564   5.418077   7.801766   9.620779   9.821733
                   41         42         43         44         45
    41  H    0.000000
    42  H    2.320260   0.000000
    43  O    8.750811   6.591290   0.000000
    44  H    9.674156   7.493924   0.960000   0.000000
    45  H    7.184545   6.027974   5.061646   5.833553   0.000000
    46  H    8.223903   6.010105   0.960000   1.567673   5.447515
                   46
    46  H    0.000000
 Stoichiometry    C18H22N2O4
 Framework group  C1[X(C18H22N2O4)]
 Deg. of freedom   132
 Full point group                 C1      NOp   1
 Largest Abelian subgroup         C1      NOp   1
 Largest concise Abelian subgroup C1      NOp   1
                         Standard orientation:                         
 ---------------------------------------------------------------------
 Center     Atomic      Atomic             Coordinates (Angstroms)
 Number     Number       Type             X           Y           Z
 ---------------------------------------------------------------------
      1          8           0       -1.661905   -0.284963    1.013317
      2          8           0       -1.885266   -3.493793    0.472476
      3          8           0       -0.528279   -3.222415    2.227196
      4          7           0       -3.470707    0.948924   -0.497461
      5          7           0       -0.622194   -1.307345   -0.735064
      6          6           0       -2.227908    0.476774   -1.205867
      7          6           0       -1.353659    1.660268   -1.684259
      8          6           0       -0.726338    2.490456   -0.585275
      9          6           0        0.519409    2.138213   -0.034316
     10          6           0        1.090389    2.880632    0.991149
     11          6           0        0.434224    3.986832    1.472302
     12          6           0       -0.783318    4.366684    0.931661
     13          6           0       -1.367676    3.623172   -0.079130
     14          6           0       -1.486453   -0.419127   -0.223784
     15          6           0        0.119254   -2.222351    0.133485
     16          6           0        1.223842   -1.538884    0.908180
     17          6           0        2.427680   -1.041810    0.137874
     18          6           0        3.309488   -0.154742    0.771144
     19          6           0        4.507187    0.228314    0.173475
     20          6           0        4.849306   -0.252869   -1.074665
     21          6           0        3.960515   -1.089450   -1.720524
     22          6           0        2.767571   -1.469485   -1.138393
     23          6           0       -0.859385   -3.024860    1.007873
     24          1           0       -4.060507    0.311748   -0.493297
     25          1           0       -3.797078    1.641070   -0.909575
     26          1           0       -3.272314    1.166751    0.320282
     27          1           0       -0.499494   -1.342591   -1.595001
     28          1           0       -2.484176   -0.046429   -1.967317
     29          1           0       -0.568984    1.269943   -2.298125
     30          1           0        0.981738    1.366882   -0.372540
     31          1           0        1.937231    2.624615    1.358902
     32          1           0        0.821730    4.498051    2.185143
     33          1           0       -1.226410    5.149996    1.259679
     34          1           0       -2.216440    3.891184   -0.434103
     35          1           0        0.549158   -2.857963   -0.441075
     36          1           0        1.536942   -2.152011    1.575657
     37          1           0        0.840706   -0.790714    1.366643
     38          1           0        3.083156    0.196361    1.634280
     39          1           0        5.099346    0.827753    0.628560
     40          1           0        5.683162   -0.012090   -1.481688
     41          1           0        4.177494   -1.414482   -2.596390
     42          1           0        2.166504   -2.037750   -1.621166
     43          8           0       -4.367857   -1.883659   -0.770587
     44          1           0       -5.256381   -2.207693   -0.605884
     45          1           0       -1.961792    2.304331   -2.284474
     46          1           0       -3.761607   -2.625973   -0.825640
 ---------------------------------------------------------------------
 Rotational constants (GHZ):      0.2484323      0.2149539      0.1383317
 Standard basis: 6-31G(d) (6D, 7F)
 There are   404 symmetry adapted cartesian basis functions of A   symmetry.
 There are   404 symmetry adapted basis functions of A   symmetry.
   404 basis functions,   760 primitive gaussians,   404 cartesian basis functions
    88 alpha electrons       88 beta electrons
       nuclear repulsion energy      2139.1183918944 Hartrees.
 NAtoms=   46 NActive=   46 NUniq=   46 SFac= 1.00D+00 NAtFMM=   60 NAOKFM=F Big=F
 Integral buffers will be    131072 words long.
 Raffenetti 1 integral format.
 Two-electron integral symmetry is turned on.
 One-electron integrals computed using PRISM.
 NBasis=   404 RedAO= T EigKep=  3.91D-04  NBF=   404
 NBsUse=   404 1.00D-06 EigRej= -1.00D+00 NBFU=   404
 ExpMin= 1.61D-01 ExpMax= 5.48D+03 ExpMxC= 8.25D+02 IAcc=1 IRadAn=         1 AccDes= 0.00D+00
 Harris functional with IExCor=  205 and IRadAn=       1 diagonalized for initial guess.
 HarFok:  IExCor=  205 AccDes= 0.00D+00 IRadAn=         1 IDoV= 1 UseB2=F ITyADJ=14
 ICtDFT=  3500011 ScaDFX=  1.000000  1.000000  1.000000  1.000000
 FoFCou: FMM=F IPFlag=           0 FMFlag=      100000 FMFlg1=           0
         NFxFlg=           0 DoJE=T BraDBF=F KetDBF=T FulRan=T
         wScrn=  0.000000 ICntrl=     500 IOpCl=  0 I1Cent=   200000004 NGrid=           0
         NMat0=    1 NMatS0=      1 NMatT0=    0 NMatD0=    1 NMtDS0=    0 NMtDT0=    0
 Petite list used in FoFCou.
 Requested convergence on RMS density matrix=1.00D-08 within 128 cycles.
 Requested convergence on MAX density matrix=1.00D-06.
 Requested convergence on             energy=1.00D-06.
 No special actions if energy rises.
 Integral accuracy reduced to 1.0D-05 until final iterations.
 Initial convergence to 1.0D-05 achieved.  Increase integral accuracy.
 SCF Done:  E(RHF) =  -1102.45666776     A.U. after   16 cycles
            NFock= 16  Conv=0.34D-08     -V/T= 1.9978

 **********************************************************************

            Population analysis using the SCF density.

 **********************************************************************

 Orbital symmetries:
       Occupied  (A) (A) (A) (A) (A) (A) (A) (A) (A) (A) (A) (A)
                 (A) (A) (A) (A) (A) (A) (A) (A) (A) (A) (A) (A)
                 (A) (A) (A) (A) (A) (A) (A) (A) (A) (A) (A) (A)
                 (A) (A) (A) (A) (A) (A) (A) (A) (A) (A) (A) (A)
                 (A) (A) (A) (A) (A) (A) (A) (A) (A) (A) (A) (A)
                 (A) (A) (A) (A) (A) (A) (A) (A) (A) (A) (A) (A)
                 (A) (A) (A) (A) (A) (A) (A) (A) (A) (A) (A) (A)
                 (A) (A) (A) (A)
       Virtual   (A) (A) (A) (A) (A) (A) (A) (A) (A) (A) (A) (A)
                 (A) (A) (A) (A) (A) (A) (A) (A) (A) (A) (A) (A)
                 (A) (A) (A) (A) (A) (A) (A) (A) (A) (A) (A) (A)
                 (A) (A) (A) (A) (A) (A) (A) (A) (A) (A) (A) (A)
                 (A) (A) (A) (A) (A) (A) (A) (A) (A) (A) (A) (A)
                 (A) (A) (A) (A) (A) (A) (A) (A) (A) (A) (A) (A)
                 (A) (A) (A) (A) (A) (A) (A) (A) (A) (A) (A) (A)
                 (A) (A) (A) (A) (A) (A) (A) (A) (A) (A) (A) (A)
                 (A) (A) (A) (A) (A) (A) (A) (A) (A) (A) (A) (A)
                 (A) (A) (A) (A) (A) (A) (A) (A) (A) (A) (A) (A)
                 (A) (A) (A) (A) (A) (A) (A) (A) (A) (A) (A) (A)
                 (A) (A) (A) (A) (A) (A) (A) (A) (A) (A) (A) (A)
                 (A) (A) (A) (A) (A) (A) (A) (A) (A) (A) (A) (A)
                 (A) (A) (A) (A) (A) (A) (A) (A) (A) (A) (A) (A)
                 (A) (A) (A) (A) (A) (A) (A) (A) (A) (A) (A) (A)
                 (A) (A) (A) (A) (A) (A) (A) (A) (A) (A) (A) (A)
                 (A) (A) (A) (A) (A) (A) (A) (A) (A) (A) (A) (A)
                 (A) (A) (A) (A) (A) (A) (A) (A) (A) (A) (A) (A)
                 (A) (A) (A) (A) (A) (A) (A) (A) (A) (A) (A) (A)
                 (A) (A) (A) (A) (A) (A) (A) (A) (A) (A) (A) (A)
                 (A) (A) (A) (A) (A) (A) (A) (A) (A) (A) (A) (A)
                 (A) (A) (A) (A) (A) (A) (A) (A) (A) (A) (A) (A)
                 (A) (A) (A) (A) (A) (A) (A) (A) (A) (A) (A) (A)
                 (A) (A) (A) (A) (A) (A) (A) (A) (A) (A) (A) (A)
                 (A) (A) (A) (A) (A) (A) (A) (A) (A) (A) (A) (A)
                 (A) (A) (A) (A) (A) (A) (A) (A) (A) (A) (A) (A)
                 (A) (A) (A) (A)
 The electronic state is 1-A.
 Alpha  occ. eigenvalues --  -20.57665 -20.54260 -20.40086 -20.38672 -15.72836
 Alpha  occ. eigenvalues --  -15.58799 -11.38139 -11.35505 -11.30189 -11.27297
 Alpha  occ. eigenvalues --  -11.24981 -11.24623 -11.24121 -11.24012 -11.23627
 Alpha  occ. eigenvalues --  -11.23488 -11.22229 -11.21771 -11.20789 -11.20667
 Alpha  occ. eigenvalues --  -11.20116 -11.20093 -11.20072 -11.15779  -1.46687
 Alpha  occ. eigenvalues --   -1.38099  -1.35409  -1.27551  -1.25245  -1.19131
 Alpha  occ. eigenvalues --   -1.15418  -1.14859  -1.14063  -1.06773  -1.05609
 Alpha  occ. eigenvalues --   -1.05041  -1.01809  -0.99213  -0.96785  -0.92357
 Alpha  occ. eigenvalues --   -0.91132  -0.89720  -0.88007  -0.84909  -0.84132
 Alpha  occ. eigenvalues --   -0.84026  -0.80347  -0.76712  -0.76171  -0.74381
 Alpha  occ. eigenvalues --   -0.73158  -0.72232  -0.69699  -0.68314  -0.66897
 Alpha  occ. eigenvalues --   -0.66285  -0.65312  -0.63730  -0.63639  -0.61649
 Alpha  occ. eigenvalues --   -0.60659  -0.60268  -0.59720  -0.59419  -0.59085
 Alpha  occ. eigenvalues --   -0.58169  -0.57593  -0.54348  -0.53085  -0.52890
 Alpha  occ. eigenvalues --   -0.52520  -0.52128  -0.51795  -0.51387  -0.49224
 Alpha  occ. eigenvalues --   -0.48031  -0.47010  -0.46840  -0.45278  -0.42474
 Alpha  occ. eigenvalues --   -0.39594  -0.35927  -0.35029  -0.32380  -0.31348
 Alpha  occ. eigenvalues --   -0.30870  -0.29415  -0.28129
 Alpha virt. eigenvalues --    0.10753   0.11388   0.14224   0.14973   0.15708
 Alpha virt. eigenvalues --    0.16021   0.19169   0.20158   0.22657   0.24962
 Alpha virt. eigenvalues --    0.25715   0.26882   0.27455   0.27715   0.28157
 Alpha virt. eigenvalues --    0.29681   0.30686   0.31527   0.31639   0.32635
 Alpha virt. eigenvalues --    0.32847   0.33033   0.33242   0.34528   0.34980
 Alpha virt. eigenvalues --    0.35106   0.36239   0.36860   0.37180   0.37704
 Alpha virt. eigenvalues --    0.39695   0.41125   0.42582   0.43577   0.44808
 Alpha virt. eigenvalues --    0.45302   0.46998   0.47289   0.47616   0.49162
 Alpha virt. eigenvalues --    0.50212   0.50683   0.51266   0.53368   0.53604
 Alpha virt. eigenvalues --    0.56043   0.57588   0.59110   0.60244   0.63330
 Alpha virt. eigenvalues --    0.66123   0.68546   0.68858   0.70267   0.72034
 Alpha virt. eigenvalues --    0.72467   0.73420   0.74338   0.76315   0.76496
 Alpha virt. eigenvalues --    0.77263   0.77562   0.78156   0.78732   0.79672
 Alpha virt. eigenvalues --    0.80732   0.81169   0.81603   0.81914   0.82436
 Alpha virt. eigenvalues --    0.82850   0.82987   0.83996   0.85568   0.86087
 Alpha virt. eigenvalues --    0.86511   0.86673   0.87163   0.87989   0.88405
 Alpha virt. eigenvalues --    0.89389   0.89861   0.92022   0.93060   0.93922
 Alpha virt. eigenvalues --    0.95050   0.96423   0.96621   0.97795   0.98323
 Alpha virt. eigenvalues --    0.99712   1.01184   1.02144   1.03148   1.04292
 Alpha virt. eigenvalues --    1.05466   1.06243   1.07493   1.09279   1.10630
 Alpha virt. eigenvalues --    1.11570   1.12524   1.12811   1.13396   1.13473
 Alpha virt. eigenvalues --    1.14790   1.15248   1.15798   1.16422   1.17838
 Alpha virt. eigenvalues --    1.18042   1.18722   1.18978   1.20109   1.20774
 Alpha virt. eigenvalues --    1.21315   1.21436   1.22072   1.22849   1.23374
 Alpha virt. eigenvalues --    1.24008   1.24545   1.24998   1.26100   1.26718
 Alpha virt. eigenvalues --    1.27826   1.28509   1.28688   1.30150   1.30984
 Alpha virt. eigenvalues --    1.31913   1.32642   1.33021   1.33081   1.33810
 Alpha virt. eigenvalues --    1.35551   1.36593   1.38356   1.38946   1.39744
 Alpha virt. eigenvalues --    1.40270   1.41555   1.42978   1.44142   1.44861
 Alpha virt. eigenvalues --    1.45533   1.46322   1.47388   1.48838   1.49239
 Alpha virt. eigenvalues --    1.49580   1.51796   1.52840   1.53506   1.54379
 Alpha virt. eigenvalues --    1.55967   1.57017   1.57951   1.58890   1.60862
 Alpha virt. eigenvalues --    1.61922   1.64593   1.66354   1.68232   1.69252
 Alpha virt. eigenvalues --    1.70974   1.72577   1.73458   1.74513   1.75648
 Alpha virt. eigenvalues --    1.76058   1.76458   1.77240   1.78517   1.78939
 Alpha virt. eigenvalues --    1.79835   1.81250   1.82832   1.84473   1.86143
 Alpha virt. eigenvalues --    1.89470   1.90549   1.96752   1.97892   2.01084
 Alpha virt. eigenvalues --    2.01569   2.04048   2.05570   2.05888   2.07886
 Alpha virt. eigenvalues --    2.08598   2.09394   2.10026   2.11126   2.11935
 Alpha virt. eigenvalues --    2.12506   2.13025   2.14054   2.15413   2.17106
 Alpha virt. eigenvalues --    2.18255   2.19873   2.22483   2.23359   2.25051
 Alpha virt. eigenvalues --    2.25864   2.27400   2.28121   2.29320   2.30644
 Alpha virt. eigenvalues --    2.31002   2.33432   2.34636   2.35525   2.36038
 Alpha virt. eigenvalues --    2.36727   2.39446   2.40173   2.41537   2.42439
 Alpha virt. eigenvalues --    2.43567   2.44189   2.44510   2.45212   2.45455
 Alpha virt. eigenvalues --    2.46605   2.46962   2.47937   2.48368   2.50005
 Alpha virt. eigenvalues --    2.51259   2.51957   2.53239   2.53667   2.54432
 Alpha virt. eigenvalues --    2.55929   2.56636   2.59372   2.60259   2.61922
 Alpha virt. eigenvalues --    2.62285   2.63116   2.64037   2.66981   2.67658
 Alpha virt. eigenvalues --    2.68117   2.70586   2.73281   2.76306   2.79960
 Alpha virt. eigenvalues --    2.81515   2.84844   2.85183   2.87656   2.89902
 Alpha virt. eigenvalues --    2.91862   2.93034   2.93510   2.95400   2.95869
 Alpha virt. eigenvalues --    2.96401   2.98032   2.99057   2.99841   3.01106
 Alpha virt. eigenvalues --    3.01583   3.03940   3.06779   3.08707   3.11427
 Alpha virt. eigenvalues --    3.12239   3.13174   3.13649   3.14712   3.15123
 Alpha virt. eigenvalues --    3.18054   3.18828   3.19321   3.23977   3.24335
 Alpha virt. eigenvalues --    3.25714   3.32317   3.34315   3.37032   3.40526
 Alpha virt. eigenvalues --    3.41088   3.47054   3.48749   3.59195   3.64871
 Alpha virt. eigenvalues --    3.89276   3.93656   4.07235   4.23778   4.41721
 Alpha virt. eigenvalues --    4.49899   4.52569   4.53848   4.55660   4.57344
 Alpha virt. eigenvalues --    4.58634   4.63633   4.65759   4.70902   4.77840
 Alpha virt. eigenvalues --    4.78707   4.80652   4.82749   4.83847   4.88836
 Alpha virt. eigenvalues --    4.93326   4.95214   5.02257   5.14211   5.16088
 Alpha virt. eigenvalues --    5.21444
          Condensed to atoms (all electrons):
               1          2          3          4          5          6
     1  O    8.252873  -0.002151  -0.000175  -0.007256  -0.090824  -0.076241
     2  O   -0.002151   8.457841  -0.091181   0.000003   0.001378  -0.000236
     3  O   -0.000175  -0.091181   8.404808   0.000000   0.001504  -0.000009
     4  N   -0.007256   0.000003   0.000000   6.713494   0.001707   0.220453
     5  N   -0.090824   0.001378   0.001504   0.001707   7.266302  -0.116903
     6  C   -0.076241  -0.000236  -0.000009   0.220453  -0.116903   5.281821
     7  C   -0.004190   0.000000   0.000000  -0.053822   0.003968   0.309637
     8  C    0.003547   0.000000   0.000000  -0.001337  -0.003034  -0.058318
     9  C   -0.000383   0.000000   0.000000   0.000176  -0.000292  -0.004825
    10  C   -0.000299   0.000000   0.000000   0.000005   0.000123  -0.000102
    11  C    0.000009   0.000000   0.000000   0.000001   0.000000   0.000024
    12  C    0.000004   0.000000   0.000000  -0.000052   0.000001   0.000007
    13  C   -0.000182   0.000000   0.000000  -0.000741  -0.000062  -0.001792
    14  C    0.523996   0.011470  -0.000617  -0.053835   0.347634   0.332504
    15  C    0.005624  -0.123347  -0.120633  -0.000051   0.127366   0.002812
    16  C   -0.004415   0.003449   0.006689  -0.000001  -0.059744  -0.000233
    17  C    0.000061  -0.000049   0.001205   0.000000   0.000156  -0.000007
    18  C   -0.000001   0.000000  -0.000005   0.000000  -0.000293   0.000001
    19  C    0.000000   0.000000   0.000000   0.000000   0.000002   0.000000
    20  C    0.000000   0.000000   0.000000   0.000000   0.000000   0.000000
    21  C    0.000000   0.000000   0.000000   0.000000   0.000017   0.000000
    22  C   -0.000007   0.000001   0.000003   0.000000   0.001605  -0.000008
    23  C    0.000124   0.500658   0.529330   0.000010  -0.034361  -0.000251
    24  H    0.000197  -0.000006   0.000000   0.308009   0.000022  -0.010820
    25  H    0.000395   0.000000   0.000000   0.339130  -0.000076  -0.024386
    26  H    0.029468   0.000004   0.000000   0.307900   0.001203  -0.021908
    27  H    0.002986  -0.000224  -0.000067   0.000008   0.349099  -0.000158
    28  H    0.002055   0.000060   0.000000  -0.030161   0.003898   0.394886
    29  H   -0.000034   0.000000   0.000000   0.002993   0.001366  -0.036569
    30  H   -0.000522   0.000000  -0.000001   0.000007   0.003012  -0.000264
    31  H   -0.000001   0.000000   0.000000   0.000000  -0.000003   0.000001
    32  H    0.000000   0.000000   0.000000   0.000000   0.000000   0.000000
    33  H    0.000000   0.000000   0.000000   0.000000   0.000000   0.000001
    34  H   -0.000005   0.000000   0.000000  -0.000094  -0.000001  -0.000217
    35  H    0.000333   0.002700   0.000794   0.000001  -0.040314  -0.000084
    36  H    0.000059   0.000293   0.016607   0.000000   0.004489   0.000006
    37  H    0.005685   0.000054   0.001529   0.000001  -0.007139   0.000196
    38  H   -0.000006   0.000000   0.000005   0.000000   0.000015   0.000000
    39  H    0.000000   0.000000   0.000000   0.000000   0.000000   0.000000
    40  H    0.000000   0.000000   0.000000   0.000000   0.000000   0.000000
    41  H    0.000000   0.000000   0.000000   0.000000  -0.000001   0.000000
    42  H   -0.000002  -0.000006   0.000006   0.000000   0.000268  -0.000002
    43  O   -0.000322  -0.002909  -0.000001  -0.012373  -0.000284  -0.000885
    44  H    0.000010   0.000048   0.000000   0.000453   0.000007   0.000003
    45  H   -0.000094   0.000000   0.000000  -0.002992  -0.000038  -0.047315
    46  H   -0.000098   0.020689   0.000049   0.000384   0.000356  -0.000381
               7          8          9         10         11         12
     1  O   -0.004190   0.003547  -0.000383  -0.000299   0.000009   0.000004
     2  O    0.000000   0.000000   0.000000   0.000000   0.000000   0.000000
     3  O    0.000000   0.000000   0.000000   0.000000   0.000000   0.000000
     4  N   -0.053822  -0.001337   0.000176   0.000005   0.000001  -0.000052
     5  N    0.003968  -0.003034  -0.000292   0.000123   0.000000   0.000001
     6  C    0.309637  -0.058318  -0.004825  -0.000102   0.000024   0.000007
     7  C    5.185874   0.306271  -0.040410   0.002660   0.000342   0.002582
     8  C    0.306271   4.910605   0.558410  -0.039141  -0.031226  -0.044030
     9  C   -0.040410   0.558410   4.865407   0.563868  -0.045784  -0.036003
    10  C    0.002660  -0.039141   0.563868   4.825045   0.557799  -0.041694
    11  C    0.000342  -0.031226  -0.045784   0.557799   4.839492   0.567305
    12  C    0.002582  -0.044030  -0.036003  -0.041694   0.567305   4.820647
    13  C   -0.048354   0.562522  -0.039322  -0.035150  -0.046035   0.566390
    14  C   -0.045717  -0.006229   0.002252  -0.000085   0.000000  -0.000020
    15  C   -0.000113   0.000032   0.000134  -0.000020   0.000000   0.000000
    16  C    0.000033   0.000005   0.000015  -0.000127  -0.000004   0.000001
    17  C   -0.000030   0.000108  -0.004389   0.000176   0.000010  -0.000001
    18  C   -0.000002   0.000161  -0.001589  -0.002083   0.000053   0.000000
    19  C    0.000000   0.000012   0.000345  -0.000372   0.000004   0.000000
    20  C    0.000000  -0.000001   0.000074  -0.000010   0.000000   0.000000
    21  C   -0.000001  -0.000003  -0.000026   0.000002   0.000000   0.000000
    22  C   -0.000016  -0.000015  -0.001151   0.000023   0.000000   0.000000
    23  C   -0.000004  -0.000001   0.000000   0.000000   0.000000   0.000000
    24  H    0.002780  -0.000089  -0.000006   0.000000   0.000000   0.000000
    25  H    0.001053  -0.000703   0.000033  -0.000001  -0.000001  -0.000005
    26  H   -0.001559   0.005013  -0.000028  -0.000038  -0.000024   0.000111
    27  H    0.000169   0.000030   0.000011  -0.000002   0.000000   0.000000
    28  H   -0.033163   0.005731  -0.000043  -0.000001   0.000000   0.000000
    29  H    0.404320  -0.036758  -0.001327   0.000115  -0.000003  -0.000036
    30  H   -0.001886  -0.042548   0.383217  -0.026806   0.004030   0.000075
    31  H   -0.000145   0.003838  -0.031989   0.393307  -0.036448   0.003609
    32  H    0.000009   0.000374   0.003838  -0.035485   0.398797  -0.036445
    33  H   -0.000169   0.003405   0.000320   0.003498  -0.034289   0.398934
    34  H   -0.002073  -0.050127   0.003798   0.000135   0.003797  -0.031383
    35  H    0.000002  -0.000001   0.000005   0.000000   0.000000   0.000000
    36  H    0.000000   0.000000  -0.000018   0.000005   0.000000   0.000000
    37  H   -0.000027   0.000057   0.001846   0.000466  -0.000004  -0.000002
    38  H    0.000001  -0.000008   0.000038   0.000271  -0.000001   0.000000
    39  H    0.000000   0.000000   0.000002   0.000002   0.000000   0.000000
    40  H    0.000000   0.000000   0.000000   0.000000   0.000000   0.000000
    41  H    0.000000   0.000000   0.000000   0.000000   0.000000   0.000000
    42  H    0.000001  -0.000001  -0.000007   0.000000   0.000000   0.000000
    43  O    0.000079  -0.000001   0.000000   0.000000   0.000000   0.000000
    44  H   -0.000001   0.000000   0.000000   0.000000   0.000000   0.000000
    45  H    0.403661  -0.050543   0.002140  -0.000032  -0.000009   0.000156
    46  H   -0.000007   0.000000   0.000000   0.000000   0.000000   0.000000
              13         14         15         16         17         18
     1  O   -0.000182   0.523996   0.005624  -0.004415   0.000061  -0.000001
     2  O    0.000000   0.011470  -0.123347   0.003449  -0.000049   0.000000
     3  O    0.000000  -0.000617  -0.120633   0.006689   0.001205  -0.000005
     4  N   -0.000741  -0.053835  -0.000051  -0.000001   0.000000   0.000000
     5  N   -0.000062   0.347634   0.127366  -0.059744   0.000156  -0.000293
     6  C   -0.001792   0.332504   0.002812  -0.000233  -0.000007   0.000001
     7  C   -0.048354  -0.045717  -0.000113   0.000033  -0.000030  -0.000002
     8  C    0.562522  -0.006229   0.000032   0.000005   0.000108   0.000161
     9  C   -0.039322   0.002252   0.000134   0.000015  -0.004389  -0.001589
    10  C   -0.035150  -0.000085  -0.000020  -0.000127   0.000176  -0.002083
    11  C   -0.046035   0.000000   0.000000  -0.000004   0.000010   0.000053
    12  C    0.566390  -0.000020   0.000000   0.000001  -0.000001   0.000000
    13  C    4.903944  -0.000388   0.000001   0.000001   0.000000  -0.000002
    14  C   -0.000388   4.185285  -0.045990  -0.003889  -0.000597  -0.000045
    15  C    0.000001  -0.045990   5.351206   0.338770  -0.044783   0.002820
    16  C    0.000001  -0.003889   0.338770   5.068115   0.293395  -0.049539
    17  C    0.000000  -0.000597  -0.044783   0.293395   4.899538   0.572965
    18  C   -0.000002  -0.000045   0.002820  -0.049539   0.572965   4.914601
    19  C    0.000000   0.000000  -0.000030   0.002173  -0.037912   0.559882
    20  C    0.000000   0.000000  -0.000014   0.000224  -0.032108  -0.046405
    21  C    0.000000   0.000002   0.000020   0.003021  -0.037106  -0.036373
    22  C    0.000000   0.000141  -0.005233  -0.047814   0.562175  -0.054279
    23  C    0.000000  -0.002886   0.288896  -0.037218   0.003468  -0.000045
    24  H    0.000061  -0.001125   0.000000   0.000000   0.000000   0.000000
    25  H    0.001088   0.004892   0.000001   0.000000   0.000000   0.000000
    26  H    0.002674  -0.003843  -0.000021   0.000004   0.000000   0.000000
    27  H    0.000002  -0.025246  -0.016415   0.002754   0.000281   0.000007
    28  H   -0.000094  -0.031890  -0.000158   0.000014  -0.000002   0.000000
    29  H    0.001977  -0.003420  -0.000015   0.000003   0.000024  -0.000002
    30  H    0.003666   0.000194  -0.000603  -0.001735   0.007942   0.002452
    31  H    0.000222   0.000000   0.000001  -0.000048   0.000154   0.003397
    32  H    0.003759   0.000000   0.000000   0.000000   0.000000  -0.000001
    33  H   -0.037964   0.000000   0.000000   0.000000   0.000000   0.000000
    34  H    0.393017   0.000038   0.000000   0.000000   0.000000   0.000000
    35  H    0.000000   0.004870   0.399130  -0.047071  -0.006266  -0.000057
    36  H    0.000000   0.000285  -0.032481   0.394063  -0.033617  -0.004555
    37  H   -0.000009   0.003401  -0.032431   0.402822  -0.047261  -0.005427
    38  H    0.000000  -0.000003  -0.000048  -0.002834  -0.034545   0.395146
    39  H    0.000000   0.000000   0.000002  -0.000132   0.003355  -0.037263
    40  H    0.000000   0.000000   0.000000   0.000008   0.000226   0.003532
    41  H    0.000000   0.000000   0.000001  -0.000125   0.003501   0.000349
    42  H    0.000000  -0.000003   0.001897  -0.006057  -0.038999   0.004558
    43  O    0.000000   0.002172  -0.000006   0.000000   0.000000   0.000000
    44  H    0.000000   0.000006   0.000000   0.000000   0.000000   0.000000
    45  H   -0.001033   0.004462   0.000000  -0.000001   0.000000   0.000000
    46  H    0.000000   0.000373  -0.000113   0.000001   0.000000   0.000000
              19         20         21         22         23         24
     1  O    0.000000   0.000000   0.000000  -0.000007   0.000124   0.000197
     2  O    0.000000   0.000000   0.000000   0.000001   0.500658  -0.000006
     3  O    0.000000   0.000000   0.000000   0.000003   0.529330   0.000000
     4  N    0.000000   0.000000   0.000000   0.000000   0.000010   0.308009
     5  N    0.000002   0.000000   0.000017   0.001605  -0.034361   0.000022
     6  C    0.000000   0.000000   0.000000  -0.000008  -0.000251  -0.010820
     7  C    0.000000   0.000000  -0.000001  -0.000016  -0.000004   0.002780
     8  C    0.000012  -0.000001  -0.000003  -0.000015  -0.000001  -0.000089
     9  C    0.000345   0.000074  -0.000026  -0.001151   0.000000  -0.000006
    10  C   -0.000372  -0.000010   0.000002   0.000023   0.000000   0.000000
    11  C    0.000004   0.000000   0.000000   0.000000   0.000000   0.000000
    12  C    0.000000   0.000000   0.000000   0.000000   0.000000   0.000000
    13  C    0.000000   0.000000   0.000000   0.000000   0.000000   0.000061
    14  C    0.000000   0.000000   0.000002   0.000141  -0.002886  -0.001125
    15  C   -0.000030  -0.000014   0.000020  -0.005233   0.288896   0.000000
    16  C    0.002173   0.000224   0.003021  -0.047814  -0.037218   0.000000
    17  C   -0.037912  -0.032108  -0.037106   0.562175   0.003468   0.000000
    18  C    0.559882  -0.046405  -0.036373  -0.054279  -0.000045   0.000000
    19  C    4.845395   0.562602  -0.047341  -0.035274   0.000000   0.000000
    20  C    0.562602   4.858042   0.571755  -0.045260   0.000000   0.000000
    21  C   -0.047341   0.571755   4.838243   0.557406   0.000000   0.000000
    22  C   -0.035274  -0.045260   0.557406   4.919897   0.000015   0.000000
    23  C    0.000000   0.000000   0.000000   0.000015   3.955662   0.000000
    24  H    0.000000   0.000000   0.000000   0.000000   0.000000   0.223929
    25  H    0.000000   0.000000   0.000000   0.000000   0.000000  -0.008177
    26  H    0.000000   0.000000   0.000000   0.000000   0.000008  -0.003230
    27  H   -0.000002   0.000000   0.000013   0.001022   0.001617  -0.000007
    28  H    0.000000   0.000000   0.000000  -0.000001   0.000013  -0.001712
    29  H   -0.000001   0.000000   0.000004   0.000059   0.000000  -0.000030
    30  H   -0.000434  -0.000235   0.000052   0.002970   0.000006   0.000000
    31  H    0.001016   0.000000  -0.000013  -0.000041   0.000000   0.000000
    32  H    0.000000   0.000000   0.000000   0.000000   0.000000   0.000000
    33  H    0.000000   0.000000   0.000000   0.000000   0.000000   0.000000
    34  H    0.000000   0.000000   0.000000   0.000000   0.000000   0.000002
    35  H   -0.000004  -0.000004  -0.000010   0.000898  -0.019730   0.000000
    36  H   -0.000062   0.000027  -0.000082   0.000285   0.000159   0.000000
    37  H    0.000132  -0.000005  -0.000106   0.003513  -0.002540   0.000000
    38  H   -0.040593   0.003727   0.000081   0.005004   0.000002   0.000000
    39  H    0.397715  -0.039115   0.004092   0.000264   0.000000   0.000000
    40  H   -0.037855   0.399513  -0.037061   0.003596   0.000000   0.000000
    41  H    0.004076  -0.039168   0.397495  -0.038296   0.000000   0.000000
    42  H    0.000169   0.003770  -0.040169   0.395786   0.000047   0.000000
    43  O    0.000000   0.000000   0.000000   0.000000   0.000101   0.032545
    44  H    0.000000   0.000000   0.000000   0.000000  -0.000001  -0.001564
    45  H    0.000000   0.000000   0.000000   0.000000   0.000000  -0.000160
    46  H    0.000000   0.000000   0.000000   0.000000  -0.000071  -0.000912
              25         26         27         28         29         30
     1  O    0.000395   0.029468   0.002986   0.002055  -0.000034  -0.000522
     2  O    0.000000   0.000004  -0.000224   0.000060   0.000000   0.000000
     3  O    0.000000   0.000000  -0.000067   0.000000   0.000000  -0.000001
     4  N    0.339130   0.307900   0.000008  -0.030161   0.002993   0.000007
     5  N   -0.000076   0.001203   0.349099   0.003898   0.001366   0.003012
     6  C   -0.024386  -0.021908  -0.000158   0.394886  -0.036569  -0.000264
     7  C    0.001053  -0.001559   0.000169  -0.033163   0.404320  -0.001886
     8  C   -0.000703   0.005013   0.000030   0.005731  -0.036758  -0.042548
     9  C    0.000033  -0.000028   0.000011  -0.000043  -0.001327   0.383217
    10  C   -0.000001  -0.000038  -0.000002  -0.000001   0.000115  -0.026806
    11  C   -0.000001  -0.000024   0.000000   0.000000  -0.000003   0.004030
    12  C   -0.000005   0.000111   0.000000   0.000000  -0.000036   0.000075
    13  C    0.001088   0.002674   0.000002  -0.000094   0.001977   0.003666
    14  C    0.004892  -0.003843  -0.025246  -0.031890  -0.003420   0.000194
    15  C    0.000001  -0.000021  -0.016415  -0.000158  -0.000015  -0.000603
    16  C    0.000000   0.000004   0.002754   0.000014   0.000003  -0.001735
    17  C    0.000000   0.000000   0.000281  -0.000002   0.000024   0.007942
    18  C    0.000000   0.000000   0.000007   0.000000  -0.000002   0.002452
    19  C    0.000000   0.000000  -0.000002   0.000000  -0.000001  -0.000434
    20  C    0.000000   0.000000   0.000000   0.000000   0.000000  -0.000235
    21  C    0.000000   0.000000   0.000013   0.000000   0.000004   0.000052
    22  C    0.000000   0.000000   0.001022  -0.000001   0.000059   0.002970
    23  C    0.000000   0.000008   0.001617   0.000013   0.000000   0.000006
    24  H   -0.008177  -0.003230  -0.000007  -0.001712  -0.000030   0.000000
    25  H    0.285175  -0.009611  -0.000002  -0.001946   0.000072   0.000001
    26  H   -0.009611   0.248984  -0.000051   0.003912   0.000036   0.000003
    27  H   -0.000002  -0.000051   0.334920   0.000732   0.000741   0.000122
    28  H   -0.001946   0.003912   0.000732   0.434736  -0.002248  -0.000011
    29  H    0.000072   0.000036   0.000741  -0.002248   0.446410   0.001800
    30  H    0.000001   0.000003   0.000122  -0.000011   0.001800   0.454649
    31  H    0.000000   0.000000   0.000000   0.000000  -0.000006  -0.002985
    32  H    0.000000   0.000000   0.000000   0.000000   0.000000  -0.000165
    33  H   -0.000001  -0.000001   0.000000   0.000000   0.000003   0.000016
    34  H    0.000761  -0.000066   0.000000  -0.000003  -0.000054  -0.000164
    35  H    0.000000   0.000000  -0.006586  -0.000013  -0.000004  -0.000021
    36  H    0.000000   0.000000  -0.000076   0.000000   0.000000   0.000108
    37  H    0.000000  -0.000003  -0.000281  -0.000003  -0.000004  -0.001389
    38  H    0.000000   0.000000  -0.000001   0.000000   0.000000  -0.000184
    39  H    0.000000   0.000000   0.000000   0.000000   0.000000  -0.000003
    40  H    0.000000   0.000000   0.000000   0.000000   0.000000   0.000001
    41  H    0.000000   0.000000  -0.000001   0.000000   0.000000  -0.000001
    42  H    0.000000   0.000000   0.000414  -0.000001   0.000002   0.000013
    43  O    0.000039  -0.000096  -0.000013   0.003620   0.000000   0.000000
    44  H   -0.000002   0.000003   0.000000  -0.000073   0.000000   0.000000
    45  H    0.003960  -0.000194   0.000002  -0.003088  -0.014963  -0.000011
    46  H   -0.000003   0.000012   0.000019   0.000145   0.000000   0.000000
              31         32         33         34         35         36
     1  O   -0.000001   0.000000   0.000000  -0.000005   0.000333   0.000059
     2  O    0.000000   0.000000   0.000000   0.000000   0.002700   0.000293
     3  O    0.000000   0.000000   0.000000   0.000000   0.000794   0.016607
     4  N    0.000000   0.000000   0.000000  -0.000094   0.000001   0.000000
     5  N   -0.000003   0.000000   0.000000  -0.000001  -0.040314   0.004489
     6  C    0.000001   0.000000   0.000001  -0.000217  -0.000084   0.000006
     7  C   -0.000145   0.000009  -0.000169  -0.002073   0.000002   0.000000
     8  C    0.003838   0.000374   0.003405  -0.050127  -0.000001   0.000000
     9  C   -0.031989   0.003838   0.000320   0.003798   0.000005  -0.000018
    10  C    0.393307  -0.035485   0.003498   0.000135   0.000000   0.000005
    11  C   -0.036448   0.398797  -0.034289   0.003797   0.000000   0.000000
[...]
    18  C    3.694666   5.540208   5.363994   6.042839   3.447441
    19  C    4.917220   6.806426   6.654644   7.123292   4.523840
    20  C    5.982261   7.411342   7.063239   8.154105   5.151737
    21  C    6.060293   6.908069   6.308239   8.237439   4.891514
    22  C    5.116728   5.666016   4.929617   7.322221   3.918334
    23  C    3.202618   1.258126   1.209562   4.353921   2.480561
    24  H    2.835605   2.983120   4.862451   1.036797   3.871932
    25  H    3.462084   4.333813   6.317236   1.005910   4.464882
    26  H    2.052273   3.862472   5.453914   1.013237   3.722247
    27  H    3.075271   2.632343   3.925704   3.802512   0.997204
    28  H    3.099591   2.554761   4.693158   2.078810   2.631145
    29  H    3.713109   4.561899   6.284619   3.413752   2.921067
    30  H    3.066672   5.425402   6.538057   4.085422   3.227874
    31  H    4.652867   7.529649   8.470465   5.593293   5.519956
    32  H    5.986289   8.795303  10.064032   6.013591   7.213384
    33  H    6.138747   8.395192  10.079570   5.124463   7.301737
    34  H    5.052465   6.580491   8.529484   3.421104   5.770052
    35  H    3.895767   2.942979   2.750501   5.407404   2.046792
    36  H    3.996658   3.915270   2.540788   6.169337   3.411274
    37  H    2.510400   3.646927   3.087776   4.921894   2.830999
    38  H    2.969648   5.314513   5.352053   5.337670   3.371221
    39  H    5.242939   7.481611   7.493524   7.329534   5.156545
    40  H    6.937475   8.439648   8.128845   9.039676   6.112934
    41  H    7.059357   7.644604   6.937936   9.176013   5.722419
    42  H    5.586407   5.552698   4.552545   7.684924   4.195856
    43  O    3.819235   2.611812   4.206970   2.744104   4.552866
    44  H    4.265643   3.161382   4.315612   3.455613   5.208200
    45  H    4.269490   4.921409   6.965480   2.818674   4.095541
    46  H    3.530588   1.683416   3.301436   2.996325   3.892520
                    6          7          8          9         10
     6  C    0.000000
     7  C    1.539025   0.000000
     8  C    2.577950   1.515813   0.000000
     9  C    3.314807   2.531465   1.392199   0.000000
    10  C    4.562966   3.803703   2.409141   1.383595   0.000000
    11  C    5.144972   4.305790   2.790056   2.403909   1.387053
    12  C    4.712686   3.803125   2.415780   2.771627   2.395404
    13  C    3.510587   2.520938   1.389922   2.393796   2.761258
    14  C    1.533171   2.589858   3.211730   3.308324   4.493107
    15  C    3.660458   4.654428   5.428485   5.240553   6.369994
    16  C    4.648495   5.550591   5.976972   5.462394   6.350124
    17  C    5.265390   5.796187   6.029917   5.244882   6.007130
    18  C    5.254455   5.530798   5.421238   4.400449   4.932194
    19  C    6.256533   6.249627   5.991061   4.813370   5.136808
    20  C    7.140519   7.118072   7.033776   5.930743   6.343380
    21  C    7.153233   7.329263   7.514853   6.581053   7.209375
    22  C    6.295260   6.726306   7.067236   6.282936   7.061762
    23  C    3.785828   5.115122   6.026103   6.106163   7.244605
    24  H    2.093856   3.379111   4.008654   4.781645   5.740745
    25  H    2.098929   2.593682   2.944742   4.027658   4.884211
    26  H    2.041321   2.895301   2.910097   3.446563   4.222658
    27  H    2.442093   3.060046   4.165131   4.316980   5.650217
    28  H    1.078509   2.167718   3.492431   4.300423   5.591285
    29  H    2.127698   1.084384   2.148144   2.739547   4.080071
    30  H    3.295399   2.735772   2.143475   1.075685   2.130403
    31  H    5.313144   4.660778   3.379633   2.130587   1.074993
    32  H    6.185858   5.380885   3.865152   3.377397   2.139386
    33  H    5.539528   4.656944   3.386177   3.846893   3.372851
    34  H    3.649316   2.718577   2.142194   3.374418   3.838958
    35  H    4.323701   5.156228   6.052725   5.870455   7.046678
    36  H    5.521649   6.524357   7.023255   6.541145   7.413049
    37  H    4.485246   5.462862   5.706313   5.174954   5.935492
    38  H    4.755794   5.076375   4.797559   3.767921   4.207877
    39  H    6.563771   6.387572   5.878660   4.577170   4.621900
    40  H    8.007690   7.837769   7.662524   6.504852   6.784225
    41  H    8.030768   8.179826   8.439073   7.538686   8.182320
    42  H    6.642944   7.209450   7.728828   7.078381   7.955114
    43  O    3.432633   4.866139   5.670935   6.367574   7.355267
    44  H    4.267573   5.713750   6.402473   7.016689   7.914307
    45  H    2.141622   1.086060   2.140509   3.392918   4.534887
    46  H    3.269513   4.778722   5.704999   6.285269   7.362916
                   11         12         13         14         15
    11  C    0.000000
    12  C    1.383355   0.000000
    13  C    2.397803   1.387056   0.000000
    14  C    5.379994   5.328713   4.370044   0.000000
    15  C    7.476030   7.617007   6.695902   2.404958   0.000000
    16  C    7.539593   7.926847   7.230642   3.157683   1.531725
    17  C    7.322361   7.907334   7.340542   3.816959   2.548827
    18  C    6.273592   7.028256   6.661660   3.886059   3.470378
    19  C    6.506225   7.417977   7.193944   5.027001   4.671815
    20  C    7.721634   8.596407   8.292735   5.922095   5.118527
    21  C    8.595512   9.330852   8.850226   5.880183   4.545598
    22  C    8.417449   9.021335   8.421228   4.939814   3.300393
    23  C    8.182665   8.133594   7.133351   2.848814   1.561593
    24  H    6.036344   5.456014   4.430379   2.745750   4.541660
    25  H    4.907139   4.075338   2.989070   3.281841   5.514991
    26  H    4.525640   4.140290   3.339204   2.375394   4.605352
    27  H    6.642520   6.552293   5.438349   1.950701   2.032078
    28  H    6.159863   5.635532   4.350994   2.131090   3.657543
    29  H    4.798775   4.490733   3.312121   2.770317   4.385220
    30  H    3.374432   3.847250   3.372808   2.895199   4.452483
    31  H    2.138184   3.370453   3.836233   4.971198   6.557335
    32  H    1.075099   2.136571   3.373888   6.345826   8.379018
    33  H    2.137561   1.075329   2.136683   6.270126   8.603894
    34  H    3.369049   2.131561   1.078112   4.798762   7.136606
    35  H    8.200270   8.339561   7.367297   3.252350   1.084750
    36  H    8.592779   8.972580   8.262483   4.079388   2.102457
    37  H    7.041647   7.447343   6.852298   2.973680   2.150108
    38  H    5.482959   6.236350   5.944222   3.418334   3.584737
    39  H    5.944453   6.991503   6.958574   5.451980   5.495771
    40  H    8.131884   9.081350   8.871015   6.865625   6.160323
    41  H    9.568176  10.293605   9.785676   6.803840   5.302643
    42  H    9.287794   9.797433   9.095478   5.322228   3.293330
    43  O    7.714697   7.163537   6.140604   3.743229   4.736229
    44  H    8.249213   7.746702   6.823136   4.396311   5.203434
    45  H    4.778268   3.992860   2.615533   3.491507   5.486941
    46  H    7.888151   7.446816   6.378554   3.316998   3.903861
                   16         17         18         19         20
    16  C    0.000000
    17  C    1.513260   0.000000
    18  C    2.527087   1.390369   0.000000
    19  C    3.806230   2.416466   1.386120   0.000000
    20  C    4.313034   2.799795   2.402825   1.384940   0.000000
    21  C    3.806465   2.417437   2.762662   2.391786   1.385895
    22  C    2.527699   1.391429   2.386422   2.761021   2.401863
    23  C    2.576766   3.938393   4.841948   6.127946   6.629408
    24  H    5.380664   6.382527   6.462638   7.648736   8.632215
    25  H    6.333507   7.046779   6.857332   7.854100   8.902520
    26  H    5.105497   5.829072   5.572759   6.652211   7.785432
    27  H    3.341203   3.790261   4.260368   5.199055   5.678551
    28  H    4.903196   5.645508   5.864998   6.891828   7.634523
    29  H    5.323705   5.382952   5.183246   5.776003   6.485110
    30  H    4.606839   4.251328   3.440143   3.859738   4.922701
    31  H    6.305294   5.765160   4.539968   4.538210   5.761690
    32  H    8.313464   8.024356   6.879244   6.995099   8.224801
    33  H    8.934433   8.960449   8.076666   8.459441   9.647944
    34  H    7.836626   8.075779   7.518966   8.118810   9.173511
    35  H    2.130550   2.760959   3.867778   4.874601   5.033505
    36  H    1.081868   2.146613   3.336715   4.505461   4.802523
    37  H    1.080771   2.138692   2.640664   4.012561   4.792560
    38  H    2.715671   2.132536   1.076231   2.136884   3.376310
    39  H    4.662633   3.387522   2.136375   1.076669   2.136797
    40  H    5.388893   3.875650   3.379300   2.140476   1.075859
    41  H    4.661937   3.387870   3.838763   3.369243   2.138082
    42  H    2.721579   2.137223   3.364620   3.837997   3.374060
    43  O    5.625357   6.894044   7.264575   8.560124   9.428781
    44  H    5.920294   7.267588   7.659555   8.994916   9.884592
    45  H    6.509379   6.819864   6.605739   7.302393   8.126984
    46  H    4.876295   6.185399   6.696914   8.004469   8.777415
                   21         22         23         24         25
    21  C    0.000000
    22  C    1.385136   0.000000
    23  C    6.005928   4.688287   0.000000
    24  H    8.579495   7.540556   3.969217   0.000000
    25  H    9.055615   8.205011   5.297760   1.664974   0.000000
    26  H    7.976304   7.099291   4.517790   1.646587   1.650237
    27  H    5.336738   4.429168   2.783715   4.034940   4.525511
    28  H    7.472706   6.538404   3.532285   2.257332   2.571445
    29  H    6.647278   6.139332   5.084815   4.182879   3.628781
    30  H    5.517787   5.230700   5.508015   4.944130   4.506830
    31  H    6.765472   6.762884   7.562673   6.501337   5.812893
    32  H    9.203405   9.111887   9.105195   6.960481   5.846698
    33  H   10.401660  10.089945   9.028813   6.050160   4.571157
    34  H    9.639300   9.138176   7.400990   4.341523   2.725770
    35  H    4.242040   3.035925   2.147712   5.381913   6.293277
    36  H    4.064775   2.713682   2.717313   6.047185   7.162774
    37  H    4.535105   3.380761   2.803808   4.932736   5.901036
    38  H    3.838880   3.362152   4.764161   5.791973   6.130771
    39  H    3.369347   3.837645   6.907846   7.951836   7.974787
    40  H    2.140567   3.377965   7.684773   9.575374   9.738006
    41  H    1.076144   2.135010   6.712971   9.493481   9.989043
    42  H    2.132825   1.077052   4.488410   7.781001   8.594703
    43  O    9.154630   7.956501   3.630338   1.717058   3.274574
    44  H    9.592690   8.353235   3.980979   2.435837   3.974812
    45  H    8.306010   7.700496   5.771287   3.606101   2.558552
    46  H    8.401423   7.167181   2.703693   2.102875   3.704084
                   26         27         28         29         30
    26  H    0.000000
    27  H    4.138980   0.000000
    28  H    2.868525   2.281111   0.000000
    29  H    3.773935   2.594586   2.503212   0.000000
    30  H    3.748612   3.664623   4.194912   2.604969   0.000000
    31  H    4.955967   6.075518   6.336785   4.789474   2.444831
    32  H    5.410093   7.653919   7.212560   5.854405   4.259877
    33  H    4.832756   7.514398   6.404138   5.400130   4.922512
    34  H    3.593098   5.742626   4.294919   3.595547   4.270107
    35  H    5.544030   2.182848   4.151656   4.689548   5.006906
    36  H    5.948919   4.097695   5.649111   6.291186   5.687740
    37  H    4.505852   3.768334   4.895901   5.434011   4.453772
    38  H    4.747689   4.278983   5.499208   4.930428   2.956845
    39  H    6.778071   5.836974   7.313295   5.987237   3.765843
    40  H    8.662413   6.580997   8.522679   7.161527   5.548908
    41  H    8.968830   6.053231   8.266461   7.424385   6.471408
    42  H    7.556344   4.581757   6.724767   6.609629   6.038780
    43  O    3.217571   4.659871   3.152796   5.504253   6.376837
    44  H    3.737771   5.416227   4.068814   6.369802   7.025467
    45  H    3.429274   3.757491   2.401182   1.735725   3.743143
    46  H    3.455668   3.983647   2.874939   5.244701   6.132534
                   31         32         33         34         35
    31  H    0.000000
    32  H    2.464708   0.000000
    33  H    4.263201   2.465731   0.000000
    34  H    4.913880   4.257252   2.447848   0.000000
    35  H    7.205598   9.119806   9.343146   7.778048   0.000000
    36  H    7.338536   9.349143   9.966959   8.831267   2.410648
    37  H    5.896557   7.763837   8.414222   7.484207   3.026148
    38  H    3.866319   6.075221   7.257359   6.823152   4.236346
    39  H    3.862582   6.305319   7.993656   7.949972   5.793587
    40  H    6.112916   8.549424  10.109648   9.779587   6.026923
    41  H    7.731512  10.173029  11.364887  10.549824   4.824722
    42  H    7.731002  10.029994  10.860496   9.733168   2.785156
    43  O    8.037586   8.615159   7.724225   5.986358   5.495866
    44  H    8.545568   9.090615   8.269485   6.698343   6.001750
    45  H    5.477505   5.833112   4.662628   2.379084   5.921313
    46  H    7.974227   8.821313   8.112124   6.319398   4.604411
                   36         37         38         39         40
    36  H    0.000000
    37  H    1.739088   0.000000
    38  H    3.629953   2.411938   0.000000
    39  H    5.424709   4.690233   2.457538   0.000000
    40  H    5.858419   5.848460   4.266525   2.466123   0.000000
    41  H    4.763159   5.472377   4.914972   4.261877   2.466951
    42  H    2.545225   3.713124   4.254581   4.914599   4.262844
    43  O    6.012910   5.239272   6.698835   9.012931  10.439808
    44  H    6.195664   5.441042   7.061230   9.449725  10.915037
    45  H    7.439869   6.438910   6.161254   7.427090   8.818508
    46  H    5.203511   4.620080   6.245866   8.550034   9.804771
                   41         42         43         44         45
    41  H    0.000000
    42  H    2.450697   0.000000
    43  O    9.998795   7.983903   0.000000
    44  H   10.443770   8.351805   0.947630   0.000000
    45  H    9.113631   8.122821   5.032529   5.920176   0.000000
    46  H    9.202485   7.121840   0.977508   1.540404   5.060661
                   46
    46  H    0.000000
 Stoichiometry    C18H22N2O4
 Framework group  C1[X(C18H22N2O4)]
 Deg. of freedom   132
 Full point group                 C1      NOp   1
 Largest Abelian subgroup         C1      NOp   1
 Largest concise Abelian subgroup C1      NOp   1
                         Standard orientation:                         
 ---------------------------------------------------------------------
 Center     Atomic      Atomic             Coordinates (Angstroms)
 Number     Number       Type             X           Y           Z
 ---------------------------------------------------------------------
      1          8           0       -0.388751   -0.693469    1.072777
      2          8           0        0.600354   -3.248997   -0.401667
      3          8           0        2.609055   -3.431632    0.548020
      4          7           0       -2.500552   -1.822430    0.236587
      5          7           0        0.761793   -0.718285   -0.887518
      6          6           0       -1.625362   -1.274675   -0.840561
      7          6           0       -2.320328   -0.136868   -1.609338
      8          6           0       -2.893448    0.967742   -0.743856
      9          6           0       -2.070394    1.945367   -0.191541
     10          6           0       -2.603498    2.939844    0.609179
     11          6           0       -3.965621    2.976614    0.868376
     12          6           0       -4.794167    2.016161    0.316368
     13          6           0       -4.258357    1.020168   -0.486645
     14          6           0       -0.336249   -0.871006   -0.115404
     15          6           0        2.006396   -1.341664   -0.388015
     16          6           0        2.686383   -0.570448    0.747338
     17          6           0        3.027829    0.859950    0.390503
     18          6           0        2.216612    1.912019    0.800633
     19          6           0        2.523594    3.221974    0.467305
     20          6           0        3.650993    3.504385   -0.285872
     21          6           0        4.470491    2.465512   -0.698026
     22          6           0        4.160785    1.158421   -0.360097
     23          6           0        1.726232   -2.834026   -0.023410
     24          1           0       -2.209943   -2.786058    0.485417
     25          1           0       -3.474623   -1.825418   -0.014474
     26          1           0       -2.363656   -1.251562    1.062431
     27          1           0        0.598430   -1.031479   -1.820062
     28          1           0       -1.394894   -2.094213   -1.502696
     29          1           0       -1.593961    0.268585   -2.304958
     30          1           0       -1.012465    1.931113   -0.385655
     31          1           0       -1.955517    3.687462    1.029651
     32          1           0       -4.376058    3.752120    1.489640
     33          1           0       -5.853369    2.044023    0.499800
     34          1           0       -4.918333    0.295313   -0.935358
     35          1           0        2.679447   -1.341682   -1.238712
     36          1           0        3.583447   -1.126273    0.985610
     37          1           0        2.057746   -0.591230    1.626229
     38          1           0        1.341035    1.699538    1.389266
     39          1           0        1.885692    4.022609    0.800895
     40          1           0        3.892572    4.520751   -0.542999
     41          1           0        5.354310    2.673499   -1.275686
     42          1           0        4.811166    0.360186   -0.676112
     43          8           0       -1.497196   -4.330950    0.716914
     44          1           0       -1.359902   -4.823511    1.514746
     45          1           0       -3.109895   -0.572000   -2.214953
     46          1           0       -0.608972   -4.143203    0.354518
 ---------------------------------------------------------------------
 Rotational constants (GHZ):      0.2618685      0.1886108      0.1185774
 Standard basis: 6-31G(d) (6D, 7F)
 There are   404 symmetry adapted cartesian basis functions of A   symmetry.
 There are   404 symmetry adapted basis functions of A   symmetry.
   404 basis functions,   760 primitive gaussians,   404 cartesian basis functions
    88 alpha electrons       88 beta electrons
       nuclear repulsion energy      2103.1144621205 Hartrees.
 NAtoms=   46 NActive=   46 NUniq=   46 SFac= 1.00D+00 NAtFMM=   60 NAOKFM=F Big=F
 Integral buffers will be    131072 words long.
 Raffenetti 1 integral format.
 Two-electron integral symmetry is turned on.
 One-electron integrals computed using PRISM.
 NBasis=   404 RedAO= T EigKep=  4.26D-04  NBF=   404
 NBsUse=   404 1.00D-06 EigRej= -1.00D+00 NBFU=   404
 Initial guess from the checkpoint file:  "A02_FF.chk"
 B after Tr=     0.000000    0.000000    0.000000
         Rot=    1.000000   -0.000126    0.000482    0.000170 Ang=  -0.06 deg.
 ExpMin= 1.61D-01 ExpMax= 5.48D+03 ExpMxC= 8.25D+02 IAcc=1 IRadAn=         1 AccDes= 0.00D+00
 Harris functional with IExCor=  205 and IRadAn=       1 diagonalized for initial guess.
 HarFok:  IExCor=  205 AccDes= 0.00D+00 IRadAn=         1 IDoV= 1 UseB2=F ITyADJ=14
 ICtDFT=  3500011 ScaDFX=  1.000000  1.000000  1.000000  1.000000
 FoFCou: FMM=F IPFlag=           0 FMFlag=      100000 FMFlg1=           0
         NFxFlg=           0 DoJE=T BraDBF=F KetDBF=T FulRan=T
         wScrn=  0.000000 ICntrl=     500 IOpCl=  0 I1Cent=   200000004 NGrid=           0
         NMat0=    1 NMatS0=      1 NMatT0=    0 NMatD0=    1 NMtDS0=    0 NMtDT0=    0
 Petite list used in FoFCou.
 Requested convergence on RMS density matrix=1.00D-08 within 128 cycles.
 Requested convergence on MAX density matrix=1.00D-06.
 Requested convergence on             energy=1.00D-06.
 No special actions if energy rises.
 Integral accuracy reduced to 1.0D-05 until final iterations.
 Initial convergence to 1.0D-05 achieved.  Increase integral accuracy.
