 Entering Gaussian System, Link 0=g09
 Initial command:
 /share/sw/gaussian/D.01/g09/l1.exe "/local/scratch/epluhar/Gau-6295.inp" -scrdir="/local/scratch/epluhar/"
 Entering Link 1 = /share/sw/gaussian/D.01/g09/l1.exe PID=      6296.
  
 Copyright (c) 1988,1990,1992,1993,1995,1998,2003,2009,2013,
            Gaussian, Inc.  All Rights Reserved.
  
 This is part of the Gaussian(R) 09 program.  It is based on
 the Gaussian(R) 03 system (copyright 2003, Gaussian, Inc.),
 the Gaussian(R) 98 system (copyright 1998, Gaussian, Inc.),
 the Gaussian(R) 94 system (copyright 1995, Gaussian, Inc.),
 the Gaussian 92(TM) system (copyright 1992, Gaussian, Inc.),
 the Gaussian 90(TM) system (copyright 1990, Gaussian, Inc.),
 the Gaussian 88(TM) system (copyright 1988, Gaussian, Inc.),
 the Gaussian 86(TM) system (copyright 1986, Carnegie Mellon
 University), and the Gaussian 82(TM) system (copyright 1983,
 Carnegie Mellon University). Gaussian is a federally registered
 trademark of Gaussian, Inc.
  
 This software contains proprietary and confidential information,
 including trade secrets, belonging to Gaussian, Inc.
  
 This software is provided under written license and may be
 used, copied, transmitted, or stored only in accord with that
 written license.
  
 The following legend is applicable only to US Government
 contracts under FAR:
  
                    RESTRICTED RIGHTS LEGEND
  
 Use, reproduction and disclosure by the US Government is
 subject to restrictions as set forth in subparagraphs (a)
 and (c) of the Commercial Computer Software - Restricted
 Rights clause in FAR 52.227-19.
  
 Gaussian, Inc.
 340 Quinnipiac St., Bldg. 40, Wallingford CT 06492
  
  
 ---------------------------------------------------------------
 Warning -- This program may not be used in any manner that
 competes with the business of Gaussian, Inc. or will provide
 assistance to any competitor of Gaussian, Inc.  The licensee
 of this program is prohibited from giving any competitor of
 Gaussian, Inc. access to this program.  By using this program,
 the user acknowledges that Gaussian, Inc. is engaged in the
 business of creating and licensing software in the field of
 computational chemistry and represents and warrants to the
 licensee that it is not a competitor of Gaussian, Inc. and that
 it will not use this program in any manner prohibited above.
 ---------------------------------------------------------------
  

 Cite this work as:
 Gaussian 09, Revision D.01,
 M. J. Frisch, G. W. Trucks, H. B. Schlegel, G. E. Scuseria, 
 M. A. Robb, J. R. Cheeseman, G. Scalmani, V. Barone, B. Mennucci, 
 G. A. Petersson, H. Nakatsuji, M. Caricato, X. Li, H. P. Hratchian, 
 A. F. Izmaylov, J. Bloino, G. Zheng, J. L. Sonnenberg, M. Hada, 
 M. Ehara, K. Toyota, R. Fukuda, J. Hasegawa, M. Ishida, T. Nakajima, 
 Y. Honda, O. Kitao, H. Nakai, T. Vreven, J. A. Montgomery, Jr., 
 J. E. Peralta, F. Ogliaro, M. Bearpark, J. J. Heyd, E. Brothers, 
 K. N. Kudin, V. N. Staroverov, T. Keith, R. Kobayashi, J. Normand, 
 K. Raghavachari, A. Rendell, J. C. Burant, S. S. Iyengar, J. Tomasi, 
 M. Cossi, N. Rega, J. M. Millam, M. Klene, J. E. Knox, J. B. Cross, 
 V. Bakken, C. Adamo, J. Jaramillo, R. Gomperts, R. E. Stratmann, 
 O. Yazyev, A. J. Austin, R. Cammi, C. Pomelli, J. W. Ochterski, 
 R. L. Martin, K. Morokuma, V. G. Zakrzewski, G. A. Voth, 
 P. Salvador, J. J. Dannenberg, S. Dapprich, A. D. Daniels, 
 O. Farkas, J. B. Foresman, J. V. Ortiz, J. Cioslowski, 
 and D. J. Fox, Gaussian, Inc., Wallingford CT, 2013.
 
 ******************************************
 Gaussian 09:  ES64L-G09RevD.01 24-Apr-2013
                13-Sep-2016 
 ******************************************
 %chk=A02_mod_FF
 -----------------------------------------------
 # opt=loose freq rhf/6-31g(d) geom=connectivity
 -----------------------------------------------
 1/7=-1,18=20,19=15,38=1,57=2/1,3;
 2/9=110,12=2,17=6,18=5,40=1/2;
 3/5=1,6=6,7=1,11=1,16=1,25=1,30=1,71=1,116=1/1,2,3;
 4//1;
 5/5=2,38=5/2;
 6/7=2,8=2,9=2,10=2,28=1/1;
 7//1,2,3,16;
 1/7=-1,18=20,19=15/3(2);
 2/9=110/2;
 99//99;
 2/9=110/2;
 3/5=1,6=6,7=1,11=1,16=1,25=1,30=1,71=1,116=1/1,2,3;
 4/5=5,16=3,69=1/1;
 5/5=2,38=5/2;
 7//1,2,3,16;
 1/7=-1,18=20,19=15/3(-5);
 2/9=110/2;
 6/7=2,8=2,9=2,10=2,19=2,28=1/1;
 99/9=1/99;
 -------------------
 Title Card Required
 -------------------
 Symbolic Z-matrix:
 Charge =  0 Multiplicity = 1
 O
 O                    1     3.26276 
 O                    2     2.23299  1     73.06443 
 N                    1     2.66021  2     108.42056  3    -170.21522  0
 N                    1     2.27664  4     94.74245  2     57.31797  0
 C                    4     1.50642  1     63.94293  5    -19.80252  0
 C                    6     1.5472   4     111.82817  1    -111.7866  0
 C                    7     1.51344  6     115.42211  4     66.74263  0
 C                    8     1.40695  7     120.9328  6     87.56286  0
 C                    9     1.38881  8     121.2877  7    -178.80716  0
 C                    10    1.37322  9     119.53078  8    -0.51563  0
 C                    11    1.38528  10    120.27251  9    -0.53636  0
 C                    12    1.38419  11    120.58096  10    1.35115  0
 C                    1     1.25666  5     29.80577  6     1.39801  0
 C                    5     1.46334  1     93.23194  14   -177.30421  0
 C                    15    1.51241  5     113.04849  1    -71.93801  0
 C                    16    1.51317  15    117.95249  5    -69.25047  0
 C                    17    1.40197  16    118.57476  15    165.934  0
 C                    18    1.39227  17    121.41659  16    173.074  0
 C                    19    1.38074  18    120.35271  17    0.62194  0
 C                    20    1.38092  19    118.32243  18    1.64413  0
 C                    21    1.38073  20    121.71145  19   -1.34375  0
 C                    2     1.24909  1     60.16829  14    104.93802  0
 H                    4     0.86826  1     96.82129  14    94.47257  0
 H                    4     0.86915  1     153.37748  14   -95.81808  0
 H                    4     0.8692   1     55.02261  14   -156.41713  0
 H                    5     0.86936  1     147.38402  14    4.95745  0
 H                    6     0.95876  4     108.90515  1     127.89262  0
 H                    7     1.07     6     108.22376  4    -171.85579  0
 H                    9     0.96078  8     119.28838  7     0.95723  0
 H                    10    0.95809  9     120.2628  8     179.65521  0
 H                    11    0.95898  10    119.78817  9     179.50552  0
 H                    12    0.95786  11    119.81231  10   -178.70937  0
 H                    13    0.95825  12    119.61753  11    179.09313  0
 H                    15    0.95861  5     106.62349  1     171.72917  0
 H                    16    0.9589   15    107.82283  5     168.55107  0
 H                    16    0.95746  15    107.82653  5     53.01469  0
 H                    18    0.95891  17    119.32765  16   -6.9573   0
 H                    19    0.95764  18    120.01018  17   -179.30329  0
 H                    20    0.95862  19    120.78478  18   -178.32805  0
 H                    21    0.9591   20    119.13123  19    178.62488  0
 H                    22    0.95775  21    119.53921  20    178.84948  0
 O                    4     5.9618   1     41.30573  14    95.21368  0
 H                    43    0.96     4     105.95701  1     156.46365  0
 H                    7     1.07     6     108.22376  4    -54.65896  0
 H                    43    0.96     4     135.54372  1    -61.68333  0
 
 Add virtual bond connecting atoms O43        and O2         Dist= 4.23D+00.
 Add virtual bond connecting atoms H46        and O2         Dist= 4.51D+00.

 GradGradGradGradGradGradGradGradGradGradGradGradGradGradGradGradGradGrad
 Berny optimization.
 Initialization pass.
                           ----------------------------
                           !    Initial Parameters    !
                           ! (Angstroms and Degrees)  !
 --------------------------                            --------------------------
 ! Name  Definition              Value          Derivative Info.                !
 --------------------------------------------------------------------------------
 ! R1    R(1,14)                 1.2567         estimate D2E/DX2                !
 ! R2    R(2,23)                 1.2491         estimate D2E/DX2                !
 ! R3    R(2,43)                 2.2395         estimate D2E/DX2                !
 ! R4    R(2,46)                 2.3867         estimate D2E/DX2                !
 ! R5    R(3,23)                 1.2788         estimate D2E/DX2                !
 ! R6    R(4,6)                  1.5064         estimate D2E/DX2                !
 ! R7    R(4,24)                 0.8683         estimate D2E/DX2                !
 ! R8    R(4,25)                 0.8691         estimate D2E/DX2                !
 ! R9    R(4,26)                 0.8692         estimate D2E/DX2                !
 ! R10   R(5,14)                 1.3406         estimate D2E/DX2                !
 ! R11   R(5,15)                 1.4633         estimate D2E/DX2                !
 ! R12   R(5,27)                 0.8694         estimate D2E/DX2                !
 ! R13   R(6,7)                  1.5472         estimate D2E/DX2                !
 ! R14   R(6,14)                 1.5221         estimate D2E/DX2                !
 ! R15   R(6,28)                 0.9588         estimate D2E/DX2                !
 ! R16   R(7,8)                  1.5134         estimate D2E/DX2                !
 ! R17   R(7,29)                 1.07           estimate D2E/DX2                !
 ! R18   R(7,45)                 1.07           estimate D2E/DX2                !
 ! R19   R(8,9)                  1.407          estimate D2E/DX2                !
 ! R20   R(8,13)                 1.3966         estimate D2E/DX2                !
 ! R21   R(9,10)                 1.3888         estimate D2E/DX2                !
 ! R22   R(9,30)                 0.9608         estimate D2E/DX2                !
 ! R23   R(10,11)                1.3732         estimate D2E/DX2                !
 ! R24   R(10,31)                0.9581         estimate D2E/DX2                !
 ! R25   R(11,12)                1.3853         estimate D2E/DX2                !
 ! R26   R(11,32)                0.959          estimate D2E/DX2                !
 ! R27   R(12,13)                1.3842         estimate D2E/DX2                !
 ! R28   R(12,33)                0.9579         estimate D2E/DX2                !
 ! R29   R(13,34)                0.9582         estimate D2E/DX2                !
 ! R30   R(15,16)                1.5124         estimate D2E/DX2                !
 ! R31   R(15,23)                1.5383         estimate D2E/DX2                !
 ! R32   R(15,35)                0.9586         estimate D2E/DX2                !
 ! R33   R(16,17)                1.5132         estimate D2E/DX2                !
 ! R34   R(16,36)                0.9589         estimate D2E/DX2                !
 ! R35   R(16,37)                0.9575         estimate D2E/DX2                !
 ! R36   R(17,18)                1.402          estimate D2E/DX2                !
 ! R37   R(17,22)                1.3883         estimate D2E/DX2                !
 ! R38   R(18,19)                1.3923         estimate D2E/DX2                !
 ! R39   R(18,38)                0.9589         estimate D2E/DX2                !
 ! R40   R(19,20)                1.3807         estimate D2E/DX2                !
 ! R41   R(19,39)                0.9576         estimate D2E/DX2                !
 ! R42   R(20,21)                1.3809         estimate D2E/DX2                !
 ! R43   R(20,40)                0.9586         estimate D2E/DX2                !
 ! R44   R(21,22)                1.3807         estimate D2E/DX2                !
 ! R45   R(21,41)                0.9591         estimate D2E/DX2                !
 ! R46   R(22,42)                0.9577         estimate D2E/DX2                !
 ! R47   R(43,44)                0.96           estimate D2E/DX2                !
 ! R48   R(43,46)                0.96           estimate D2E/DX2                !
 ! A1    A(23,2,43)             96.0983         estimate D2E/DX2                !
 ! A2    A(23,2,46)             91.0099         estimate D2E/DX2                !
 ! A3    A(6,4,24)             109.4304         estimate D2E/DX2                !
 ! A4    A(6,4,25)             109.6584         estimate D2E/DX2                !
 ! A5    A(6,4,26)             109.4302         estimate D2E/DX2                !
 ! A6    A(24,4,25)            109.366          estimate D2E/DX2                !
 ! A7    A(24,4,26)            109.5386         estimate D2E/DX2                !
 ! A8    A(25,4,26)            109.4038         estimate D2E/DX2                !
 ! A9    A(14,5,15)            120.968          estimate D2E/DX2                !
 ! A10   A(14,5,27)            119.6755         estimate D2E/DX2                !
 ! A11   A(15,5,27)            119.3565         estimate D2E/DX2                !
 ! A12   A(4,6,7)              111.8282         estimate D2E/DX2                !
 ! A13   A(4,6,14)             106.4356         estimate D2E/DX2                !
 ! A14   A(4,6,28)             108.9051         estimate D2E/DX2                !
 ! A15   A(7,6,14)             111.9917         estimate D2E/DX2                !
 ! A16   A(7,6,28)             108.838          estimate D2E/DX2                !
 ! A17   A(14,6,28)            108.7493         estimate D2E/DX2                !
 ! A18   A(6,7,8)              115.4221         estimate D2E/DX2                !
 ! A19   A(6,7,29)             108.2238         estimate D2E/DX2                !
 ! A20   A(6,7,45)             108.2238         estimate D2E/DX2                !
 ! A21   A(8,7,29)             108.2238         estimate D2E/DX2                !
 ! A22   A(8,7,45)             108.2238         estimate D2E/DX2                !
 ! A23   A(29,7,45)            108.3337         estimate D2E/DX2                !
 ! A24   A(7,8,9)              120.9328         estimate D2E/DX2                !
 ! A25   A(7,8,13)             121.1788         estimate D2E/DX2                !
 ! A26   A(9,8,13)             117.8868         estimate D2E/DX2                !
 ! A27   A(8,9,10)             121.2877         estimate D2E/DX2                !
 ! A28   A(8,9,30)             119.2884         estimate D2E/DX2                !
 ! A29   A(10,9,30)            119.4235         estimate D2E/DX2                !
 ! A30   A(9,10,11)            119.5308         estimate D2E/DX2                !
 ! A31   A(9,10,31)            120.2628         estimate D2E/DX2                !
 ! A32   A(11,10,31)           120.2062         estimate D2E/DX2                !
 ! A33   A(10,11,12)           120.2725         estimate D2E/DX2                !
 ! A34   A(10,11,32)           119.7882         estimate D2E/DX2                !
 ! A35   A(12,11,32)           119.9393         estimate D2E/DX2                !
 ! A36   A(11,12,13)           120.581          estimate D2E/DX2                !
 ! A37   A(11,12,33)           119.8123         estimate D2E/DX2                !
 ! A38   A(13,12,33)           119.6067         estimate D2E/DX2                !
 ! A39   A(8,13,12)            120.4263         estimate D2E/DX2                !
 ! A40   A(8,13,34)            119.9558         estimate D2E/DX2                !
 ! A41   A(12,13,34)           119.6175         estimate D2E/DX2                !
 ! A42   A(1,14,5)             122.4238         estimate D2E/DX2                !
 ! A43   A(1,14,6)             120.2856         estimate D2E/DX2                !
 ! A44   A(5,14,6)             117.2533         estimate D2E/DX2                !
 ! A45   A(5,15,16)            113.0485         estimate D2E/DX2                !
 ! A46   A(5,15,23)            109.9524         estimate D2E/DX2                !
 ! A47   A(5,15,35)            106.6235         estimate D2E/DX2                !
 ! A48   A(16,15,23)           114.1569         estimate D2E/DX2                !
 ! A49   A(16,15,35)           106.2072         estimate D2E/DX2                !
 ! A50   A(23,15,35)           106.2655         estimate D2E/DX2                !
 ! A51   A(15,16,17)           117.9525         estimate D2E/DX2                !
 ! A52   A(15,16,36)           107.8228         estimate D2E/DX2                !
 ! A53   A(15,16,37)           107.8265         estimate D2E/DX2                !
 ! A54   A(17,16,36)           107.7359         estimate D2E/DX2                !
 ! A55   A(17,16,37)           107.7835         estimate D2E/DX2                !
 ! A56   A(36,16,37)           107.2769         estimate D2E/DX2                !
 ! A57   A(16,17,18)           118.5748         estimate D2E/DX2                !
 ! A58   A(16,17,22)           124.1652         estimate D2E/DX2                !
 ! A59   A(18,17,22)           117.1414         estimate D2E/DX2                !
 ! A60   A(17,18,19)           121.4166         estimate D2E/DX2                !
 ! A61   A(17,18,38)           119.3276         estimate D2E/DX2                !
 ! A62   A(19,18,38)           119.2558         estimate D2E/DX2                !
 ! A63   A(18,19,20)           120.3527         estimate D2E/DX2                !
 ! A64   A(18,19,39)           120.0102         estimate D2E/DX2                !
 ! A65   A(20,19,39)           119.6371         estimate D2E/DX2                !
 ! A66   A(19,20,21)           118.3224         estimate D2E/DX2                !
 ! A67   A(19,20,40)           120.7848         estimate D2E/DX2                !
 ! A68   A(21,20,40)           120.8928         estimate D2E/DX2                !
 ! A69   A(20,21,22)           121.7114         estimate D2E/DX2                !
 ! A70   A(20,21,41)           119.1312         estimate D2E/DX2                !
 ! A71   A(22,21,41)           119.1573         estimate D2E/DX2                !
 ! A72   A(17,22,21)           120.9532         estimate D2E/DX2                !
 ! A73   A(17,22,42)           119.5075         estimate D2E/DX2                !
 ! A74   A(21,22,42)           119.5392         estimate D2E/DX2                !
 ! A75   A(2,23,3)             124.0892         estimate D2E/DX2                !
 ! A76   A(2,23,15)            118.5684         estimate D2E/DX2                !
 ! A77   A(3,23,15)            117.248          estimate D2E/DX2                !
 ! A78   A(2,43,44)            129.9282         estimate D2E/DX2                !
 ! A79   A(44,43,46)           109.4712         estimate D2E/DX2                !
 ! D1    D(43,2,23,3)           10.0941         estimate D2E/DX2                !
 ! D2    D(43,2,23,15)        -173.5426         estimate D2E/DX2                !
 ! D3    D(46,2,23,3)          -13.0834         estimate D2E/DX2                !
 ! D4    D(46,2,23,15)         163.2799         estimate D2E/DX2                !
 ! D5    D(23,2,43,44)         168.6468         estimate D2E/DX2                !
 ! D6    D(24,4,6,7)           160.0637         estimate D2E/DX2                !
 ! D7    D(24,4,6,14)          -77.3387         estimate D2E/DX2                !
 ! D8    D(24,4,6,28)           39.7429         estimate D2E/DX2                !
 ! D9    D(25,4,6,7)            40.103          estimate D2E/DX2                !
 ! D10   D(25,4,6,14)          162.7007         estimate D2E/DX2                !
 ! D11   D(25,4,6,28)          -80.2178         estimate D2E/DX2                !
 ! D12   D(26,4,6,7)           -79.9039         estimate D2E/DX2                !
 ! D13   D(26,4,6,14)           42.6938         estimate D2E/DX2                !
 ! D14   D(26,4,6,28)          159.7753         estimate D2E/DX2                !
 ! D15   D(15,5,14,1)            3.1394         estimate D2E/DX2                !
 ! D16   D(15,5,14,6)         -179.0786         estimate D2E/DX2                !
 ! D17   D(27,5,14,1)         -176.9269         estimate D2E/DX2                !
 ! D18   D(27,5,14,6)            0.8552         estimate D2E/DX2                !
 ! D19   D(14,5,15,16)         -73.4025         estimate D2E/DX2                !
 ! D20   D(14,5,15,23)          55.4706         estimate D2E/DX2                !
 ! D21   D(14,5,15,35)         170.2647         estimate D2E/DX2                !
 ! D22   D(27,5,15,16)         106.6636         estimate D2E/DX2                !
 ! D23   D(27,5,15,23)        -124.4633         estimate D2E/DX2                !
 ! D24   D(27,5,15,35)          -9.6693         estimate D2E/DX2                !
 ! D25   D(4,6,7,8)             66.7426         estimate D2E/DX2                !
 ! D26   D(4,6,7,29)          -171.8558         estimate D2E/DX2                !
 ! D27   D(4,6,7,45)           -54.659          estimate D2E/DX2                !
 ! D28   D(14,6,7,8)           -52.6288         estimate D2E/DX2                !
 ! D29   D(14,6,7,29)           68.7728         estimate D2E/DX2                !
 ! D30   D(14,6,7,45)         -174.0304         estimate D2E/DX2                !
 ! D31   D(28,6,7,8)          -172.8974         estimate D2E/DX2                !
 ! D32   D(28,6,7,29)          -51.4958         estimate D2E/DX2                !
 ! D33   D(28,6,7,45)           65.7011         estimate D2E/DX2                !
 ! D34   D(4,6,14,1)           -24.3987         estimate D2E/DX2                !
 ! D35   D(4,6,14,5)           157.7694         estimate D2E/DX2                !
 ! D36   D(7,6,14,1)            98.0959         estimate D2E/DX2                !
 ! D37   D(7,6,14,5)           -79.7361         estimate D2E/DX2                !
 ! D38   D(28,6,14,1)         -141.5839         estimate D2E/DX2                !
 ! D39   D(28,6,14,5)           40.5841         estimate D2E/DX2                !
 ! D40   D(6,7,8,9)             87.5629         estimate D2E/DX2                !
 ! D41   D(6,7,8,13)           -91.9735         estimate D2E/DX2                !
 ! D42   D(29,7,8,9)           -33.8387         estimate D2E/DX2                !
 ! D43   D(29,7,8,13)          146.6249         estimate D2E/DX2                !
 ! D44   D(45,7,8,9)          -151.0356         estimate D2E/DX2                !
 ! D45   D(45,7,8,13)           29.4281         estimate D2E/DX2                !
 ! D46   D(7,8,9,10)          -178.8072         estimate D2E/DX2                !
 ! D47   D(7,8,9,30)             0.9572         estimate D2E/DX2                !
 ! D48   D(13,8,9,10)            0.7441         estimate D2E/DX2                !
 ! D49   D(13,8,9,30)         -179.4916         estimate D2E/DX2                !
 ! D50   D(7,8,13,12)          179.6173         estimate D2E/DX2                !
 ! D51   D(7,8,13,34)           -0.5841         estimate D2E/DX2                !
 ! D52   D(9,8,13,12)            0.0672         estimate D2E/DX2                !
 ! D53   D(9,8,13,34)          179.8659         estimate D2E/DX2                !
 ! D54   D(8,9,10,11)           -0.5156         estimate D2E/DX2                !
 ! D55   D(8,9,10,31)          179.6552         estimate D2E/DX2                !
 ! D56   D(30,9,10,11)         179.7203         estimate D2E/DX2                !
 ! D57   D(30,9,10,31)          -0.1089         estimate D2E/DX2                !
 ! D58   D(9,10,11,12)          -0.5364         estimate D2E/DX2                !
 ! D59   D(9,10,11,32)         179.5055         estimate D2E/DX2                !
 ! D60   D(31,10,11,12)        179.2929         estimate D2E/DX2                !
 ! D61   D(31,10,11,32)         -0.6652         estimate D2E/DX2                !
 ! D62   D(10,11,12,13)          1.3511         estimate D2E/DX2                !
 ! D63   D(10,11,12,33)       -178.7094         estimate D2E/DX2                !
 ! D64   D(32,11,12,13)       -178.6908         estimate D2E/DX2                !
 ! D65   D(32,11,12,33)          1.2487         estimate D2E/DX2                !
 ! D66   D(11,12,13,8)          -1.1075         estimate D2E/DX2                !
 ! D67   D(11,12,13,34)        179.0931         estimate D2E/DX2                !
 ! D68   D(33,12,13,8)         178.9528         estimate D2E/DX2                !
 ! D69   D(33,12,13,34)         -0.8465         estimate D2E/DX2                !
 ! D70   D(5,15,16,17)         -69.2505         estimate D2E/DX2                !
 ! D71   D(5,15,16,36)         168.5511         estimate D2E/DX2                !
 ! D72   D(5,15,16,37)          53.0147         estimate D2E/DX2                !
 ! D73   D(23,15,16,17)        164.0752         estimate D2E/DX2                !
 ! D74   D(23,15,16,36)         41.8767         estimate D2E/DX2                !
 ! D75   D(23,15,16,37)        -73.6596         estimate D2E/DX2                !
 ! D76   D(35,15,16,17)         47.3288         estimate D2E/DX2                !
 ! D77   D(35,15,16,36)        -74.8697         estimate D2E/DX2                !
 ! D78   D(35,15,16,37)        169.594          estimate D2E/DX2                !
 ! D79   D(5,15,23,2)           43.6737         estimate D2E/DX2                !
 ! D80   D(5,15,23,3)         -139.7137         estimate D2E/DX2                !
 ! D81   D(16,15,23,2)         171.9395         estimate D2E/DX2                !
 ! D82   D(16,15,23,3)         -11.4479         estimate D2E/DX2                !
 ! D83   D(35,15,23,2)         -71.3479         estimate D2E/DX2                !
 ! D84   D(35,15,23,3)         105.2647         estimate D2E/DX2                !
 ! D85   D(15,16,17,18)        165.934          estimate D2E/DX2                !
 ! D86   D(15,16,17,22)        -18.1469         estimate D2E/DX2                !
 ! D87   D(36,16,17,18)        -71.8233         estimate D2E/DX2                !
 ! D88   D(36,16,17,22)        104.0957         estimate D2E/DX2                !
 ! D89   D(37,16,17,18)         43.6469         estimate D2E/DX2                !
 ! D90   D(37,16,17,22)       -140.434          estimate D2E/DX2                !
 ! D91   D(16,17,18,19)        173.074          estimate D2E/DX2                !
 ! D92   D(16,17,18,38)         -6.9573         estimate D2E/DX2                !
 ! D93   D(22,17,18,19)         -3.1319         estimate D2E/DX2                !
 ! D94   D(22,17,18,38)        176.8368         estimate D2E/DX2                !
 ! D95   D(16,17,22,21)       -172.5362         estimate D2E/DX2                !
 ! D96   D(16,17,22,42)          7.342          estimate D2E/DX2                !
 ! D97   D(18,17,22,21)          3.4366         estimate D2E/DX2                !
 ! D98   D(18,17,22,42)       -176.6853         estimate D2E/DX2                !
 ! D99   D(17,18,19,20)          0.6219         estimate D2E/DX2                !
 ! D100  D(17,18,19,39)       -179.3033         estimate D2E/DX2                !
 ! D101  D(38,18,19,20)       -179.3468         estimate D2E/DX2                !
 ! D102  D(38,18,19,39)          0.728          estimate D2E/DX2                !
 ! D103  D(18,19,20,21)          1.6441         estimate D2E/DX2                !
 ! D104  D(18,19,20,40)       -178.328          estimate D2E/DX2                !
 ! D105  D(39,19,20,21)       -178.4304         estimate D2E/DX2                !
 ! D106  D(39,19,20,40)          1.5975         estimate D2E/DX2                !
 ! D107  D(19,20,21,22)         -1.3437         estimate D2E/DX2                !
 ! D108  D(19,20,21,41)        178.6249         estimate D2E/DX2                !
 ! D109  D(40,20,21,22)        178.6284         estimate D2E/DX2                !
 ! D110  D(40,20,21,41)         -1.403          estimate D2E/DX2                !
 ! D111  D(20,21,22,17)         -1.2724         estimate D2E/DX2                !
 ! D112  D(20,21,22,42)        178.8495         estimate D2E/DX2                !
 ! D113  D(41,21,22,17)        178.759          estimate D2E/DX2                !
 ! D114  D(41,21,22,42)         -1.1191         estimate D2E/DX2                !
 ! D115  D(2,43,44,46)         102.6263         estimate D2E/DX2                !
 --------------------------------------------------------------------------------
 Trust Radius=3.00D-01 FncErr=1.00D-07 GrdErr=1.00D-07
 Number of steps in this run=    252 maximum allowed number of steps=    276.
 GradGradGradGradGradGradGradGradGradGradGradGradGradGradGradGradGradGrad

                          Input orientation:                          
 ---------------------------------------------------------------------
 Center     Atomic      Atomic             Coordinates (Angstroms)
 Number     Number       Type             X           Y           Z
 ---------------------------------------------------------------------
      1          8           0        0.000000    0.000000    0.000000
      2          8           0        0.000000    0.000000    3.262760
      3          8           0        2.136147    0.000000    2.612300
      4          7           0       -2.487189    0.428932   -0.840597
      5          7           0       -0.530051   -1.846423    1.221830
      6          6           0       -2.186643   -0.961632   -0.345302
      7          6           0       -2.220330   -2.000377   -1.491470
      8          6           0       -1.131472   -1.854744   -2.532475
      9          6           0        0.119312   -2.476183   -2.362569
     10          6           0        1.132023   -2.327453   -3.301225
     11          6           0        0.908525   -1.568347   -4.423519
     12          6           0       -0.321713   -0.964019   -4.624237
     13          6           0       -1.331176   -1.093134   -3.685996
     14          6           0       -0.820917   -0.894812    0.323433
     15          6           0        0.751595   -1.848746    1.928042
     16          6           0        1.909726   -2.271030    1.051798
     17          6           0        1.972123   -3.715785    0.606299
     18          6           0        2.849404   -4.060166   -0.431624
     19          6           0        3.060454   -5.388079   -0.792914
     20          6           0        2.393200   -6.403921   -0.137726
     21          6           0        1.493261   -6.064250    0.853075
     22          6           0        1.272660   -4.749807    1.213620
     23          6           0        0.960301   -0.501943    2.641396
     24          1           0       -2.737304    0.925349   -0.173598
     25          1           0       -3.123997    0.397656   -1.431290
     26          1           0       -1.773359    0.767308   -1.203173
     27          1           0       -1.110203   -2.471797    1.389521
     28          1           0       -2.840283   -1.205135    0.312485
     29          1           0       -2.142914   -2.976727   -1.060602
     30          1           0        0.276007   -3.010944   -1.579898
     31          1           0        1.979919   -2.753289   -3.168309
     32          1           0        1.607553   -1.457339   -5.070580
     33          1           0       -0.476486   -0.451242   -5.418346
     34          1           0       -2.172480   -0.658478   -3.832685
     35          1           0        0.683171   -2.510417    2.618296
     36          1           0        2.721283   -2.075535    1.523642
     37          1           0        1.898245   -1.723149    0.266665
     38          1           0        3.313992   -3.366611   -0.903473
     39          1           0        3.671879   -5.601114   -1.498504
     40          1           0        2.551578   -7.321582   -0.365262
     41          1           0        1.008644   -6.759570    1.302011
     42          1           0        0.629094   -4.548361    1.893707
     43          8           0        1.014128    1.938190    3.742634
     44          1           0        0.649971    2.753243    4.095734
     45          1           0       -3.166937   -1.924135   -1.984444
     46          1           0        1.472257    1.463757    4.440223
 ---------------------------------------------------------------------
                    Distance matrix (angstroms):
                    1          2          3          4          5
     1  O    0.000000
     2  O    3.262760   0.000000
     3  O    3.374498   2.232985   0.000000
     4  N    2.660206   4.817430   5.786339   0.000000
     5  N    2.276642   2.802789   3.528640   3.641597   0.000000
     6  C    2.413582   4.327153   5.325286   1.506424   2.446028
     7  C    3.340038   5.615521   6.310415   2.529109   3.200428
     8  C    3.336725   6.189107   6.370723   3.148904   3.802180
     9  C    3.424536   6.147360   5.911719   4.189265   3.696780
    10  C    4.194831   7.055807   6.433901   5.172142   4.842717
    11  C    4.780445   7.897089   7.312285   5.325160   5.832391
    12  C    4.734596   7.952204   7.703109   4.576629   5.915956
    13  C    4.068604   7.159062   7.272262   3.427732   5.029512
    14  C    1.256663   3.180289   3.844975   2.425640   1.340628
    15  C    2.774906   2.400880   2.408953   4.831449   1.463338
    16  C    3.148159   3.700403   2.764781   5.495799   2.482280
    17  C    4.250167   4.975250   4.225873   6.257607   3.183436
    18  C    4.978991   6.184863   5.124369   6.985591   4.365236
    19  C    6.247118   7.405826   6.440591   8.038422   5.430860
    20  C    6.837878   7.635503   6.974161   8.426156   5.582524
    21  C    6.303388   6.694142   6.346913   7.802174   4.692530
    22  C    5.064900   5.327223   5.026190   6.721281   3.417525
    23  C    2.855013   1.249087   1.278831   4.987584   2.458443
    24  H    2.894692   4.489729   5.689291   0.868260   3.808137
    25  H    3.459202   5.652574   6.646644   0.869150   4.336299
    26  H    2.276223   4.866017   5.516415   0.869203   3.775982
    27  H    3.045177   3.294140   4.259550   3.909443   0.869362
    28  H    3.101162   4.268921   5.613053   2.030874   2.564241
    29  H    3.818096   5.669607   6.376635   3.430079   3.014699
    30  H    3.411457   5.709054   5.486386   4.473764   3.139349
    31  H    4.640998   7.270441   6.404720   5.958173   5.137671
    32  H    5.515328   8.611191   7.837722   6.182045   6.656962
    33  H    5.457943   8.705875   8.456994   5.076753   6.785377
    34  H    4.454519   7.449738   7.780469   3.199077   5.445815
    35  H    3.691123   2.680345   2.900581   5.536686   1.965429
    36  H    3.746293   3.838979   2.415658   6.244211   3.273341
    37  H    2.577535   3.943242   2.920247   5.008943   2.612309
    38  H    4.809665   6.298738   5.008198   6.932806   4.648069
    39  H    6.862994   8.217348   7.115452   8.644560   6.257327
    40  H    7.762057   8.560295   7.914797   9.256650   6.480174
    41  H    6.957325   7.110111   6.977098   8.275637   5.149080
    42  H    4.966838   4.791415   4.845119   6.477738   3.015876
    43  O    4.335014   2.239490   2.508618   5.961802   4.802316
    44  H    4.977735   2.949009   3.462606   6.293771   5.550559
    45  H    4.203546   6.423779   7.277022   2.703214   4.152035
    46  H    4.901603   2.386744   2.434059   6.680954   5.032354
                    6          7          8          9         10
     6  C    0.000000
     7  C    1.547200   0.000000
     8  C    2.587423   1.513444   0.000000
     9  C    3.417698   2.541482   1.406952   0.000000
    10  C    4.649355   3.823672   2.436769   1.388806   0.000000
    11  C    5.155582   4.309675   2.796366   2.386324   1.373222
    12  C    4.667682   3.806969   2.413415   2.756137   2.392209
    13  C    3.450993   2.535671   1.396618   2.401708   2.781896
    14  C    1.522130   2.544505   3.028881   3.255667   4.359424
    15  C    3.819464   4.533034   4.841713   4.382100   5.264895
    16  C    4.521797   4.857862   4.719024   3.860773   4.422308
    17  C    5.078015   4.991986   4.790373   3.712640   4.231073
    18  C    5.913555   5.573886   5.012468   3.700128   3.766470
    19  C    6.879376   6.312780   5.751762   4.426428   4.402033
    20  C    7.115937   6.519853   6.233229   5.054465   5.311862
    21  C    6.404257   5.983537   6.005923   5.010222   5.599317
    22  C    5.361650   5.203639   5.309846   4.391891   5.125564
    23  C    4.362905   5.426076   5.742345   5.444681   6.219061
    24  H    1.973172   3.250218   3.983957   4.951996   5.944280
    25  H    1.976276   2.563357   3.202510   4.432300   5.388561
    26  H    1.973824   2.818329   3.009023   3.930221   4.735042
    27  H    2.539475   3.123256   3.970297   3.948405   5.201107
    28  H    0.958761   2.066640   3.381689   4.186965   5.486139
    29  H    2.138732   1.070000   2.109092   2.657692   4.020841
    30  H    3.433446   2.694581   2.055529   0.960779   2.040317
    31  H    5.342251   4.584840   3.300367   2.046427   0.958086
    32  H    6.080288   5.268549   3.755285   3.253648   2.028261
    33  H    5.377817   4.567403   3.275222   3.713912   3.254178
    34  H    3.500563   2.698938   2.050682   3.273775   3.740010
    35  H    4.406527   5.057730   5.500297   5.012796   5.939333
    36  H    5.368564   5.789309   5.598621   4.693976   5.086114
    37  H    4.200086   4.486709   4.126946   3.262596   3.698934
    38  H    6.029301   5.730712   4.970064   3.623231   3.404416
    39  H    7.561544   6.905323   6.178719   4.809629   4.518575
    40  H    7.930958   7.235653   6.938875   5.777806   5.964590
    41  H    6.821992   6.393725   6.583364   5.706790   6.391295
    42  H    5.079977   5.105964   5.472317   4.761269   5.672098
    43  O    5.946858   7.305469   7.639826   7.586889   8.235628
    44  H    6.447440   7.877333   8.266815   8.326954   8.986704
    45  H    2.138732   1.070000   2.109092   3.353679   4.514159
    46  H    6.493945   7.798744   8.149256   7.976940   8.626648
                   11         12         13         14         15
    11  C    0.000000
    12  C    1.385275   0.000000
    13  C    2.405417   1.384190   0.000000
    14  C    5.096878   4.973271   4.046630   0.000000
    15  C    6.359684   6.698291   6.035421   2.440810   0.000000
    16  C    5.610282   6.237385   5.859827   3.143389   1.512414
    17  C    5.571517   6.339749   6.017797   3.979820   2.592784
    18  C    5.090324   6.100829   6.072188   4.905184   3.854765
    19  C    5.692314   6.759467   6.789910   6.041582   5.026063
    20  C    6.629861   7.555929   7.393622   6.394801   5.264208
    21  C    6.956832   7.701132   7.300178   5.688500   4.413174
    22  C    6.483180   7.138263   6.645108   4.476213   3.032831
    23  C    7.145133   7.392328   6.755462   2.949583   1.538281
    24  H    6.129635   5.404903   4.288170   2.689343   4.927972
    25  H    5.392573   4.461151   3.243511   3.170758   5.599254
    26  H    4.797752   4.099811   3.133876   2.449554   4.798296
    27  H    6.219560   6.249832   5.264068   1.925386   2.035802
    28  H    6.051051   5.547301   4.275254   2.043101   3.990720
    29  H    4.754369   4.479649   3.331596   2.828002   4.310744
    30  H    3.250746   3.716877   3.270578   3.050233   3.725927
    31  H    2.031631   3.258639   3.739982   4.846738   5.319753
    32  H    0.958983   2.040749   3.268921   5.942160   7.061627
    33  H    2.038593   0.957865   2.035573   5.769178   7.578300
    34  H    3.266427   2.035988   0.958247   4.376744   6.569089
    35  H    7.108125   7.473649   6.768336   3.184157   0.958614
    36  H    6.237953   6.949224   6.672920   3.921962   2.023523
    37  H    4.795971   5.424520   5.142918   2.843097   2.022562
    38  H    4.627175   5.730173   5.872709   4.971172   4.109412
    39  H    5.696933   6.871800   7.080788   6.756770   5.860849
    40  H    7.229715   8.173939   8.055843   7.290499   6.200896
    41  H    7.729199   8.395158   7.903383   6.220955   4.957235
    42  H    6.990416   7.499010   6.849405   4.232814   2.702611
    43  O    8.887801   8.956105   8.359062   4.804605   4.207440
    44  H    9.556184   9.528908   8.903643   5.449961   5.087977
    45  H    4.762884   3.998203   2.637396   3.448132   5.537881
    46  H    9.384955   9.553893   8.968409   5.269674   4.219370
                   16         17         18         19         20
    16  C    0.000000
    17  C    1.513168   0.000000
    18  C    2.506900   1.401965   0.000000
    19  C    3.800412   2.436972   1.392273   0.000000
    20  C    4.327759   2.820807   2.405760   1.380737   0.000000
    21  C    3.821185   2.409460   2.739695   2.371199   1.380924
    22  C    2.564445   1.388269   2.380873   2.762206   2.412019
    23  C    2.560840   3.936265   5.066865   6.330833   6.679076
    24  H    5.771769   6.657858   7.492213   8.594005   8.946594
    25  H    6.214980   6.858761   7.520175   8.492920   8.852922
    26  H    5.280294   6.115632   6.728279   7.837273   8.361933
    27  H    3.045379   3.414920   4.638747   5.537337   5.483421
    28  H    4.923952   5.435894   6.409168   7.316941   7.390494
    29  H    4.624297   4.500921   5.147105   5.741194   5.759660
    30  H    3.184703   2.855358   3.006954   3.744764   4.251430
    31  H    4.248152   3.895398   3.154897   3.708392   4.762599
    32  H    6.183600   6.120493   5.462308   5.988326   7.029862
    33  H    7.132209   7.276626   6.996662   7.633933   8.458986
    34  H    6.566803   6.799223   6.953993   7.680685   8.216341
    35  H    2.003911   2.676274   4.049235   5.056557   5.067468
    36  H    0.958896   2.023161   2.788951   4.056405   4.647871
    37  H    0.957465   2.022723   2.618007   3.988126   4.724207
    38  H    2.644871   2.049865   0.958907   2.040303   3.264886
    39  H    4.549581   3.297550   2.046758   0.957644   2.032545
    40  H    5.284704   3.779083   3.275658   2.044572   0.958623
    41  H    4.584926   3.267558   3.698739   3.237225   2.028872
    42  H    2.745008   2.038218   3.251966   3.719486   3.268316
    43  O    5.075454   6.536190   7.534783   8.856233   9.303217
    44  H    6.007982   7.468103   8.470952   9.797470  10.237904
    45  H    5.925504   6.027594   6.570406   7.224890   7.375226
    46  H    5.061763   6.463474   7.493008   8.766742   9.149104
                   21         22         23         24         25
    21  C    0.000000
    22  C    1.380731   0.000000
    23  C    5.866975   4.492267   0.000000
    24  H    8.234454   7.086013   4.861444   0.000000
    25  H    8.263996   7.267911   5.837598   1.417667   0.000000
    26  H    7.846601   6.749644   4.885142   1.419222   1.418768
    27  H    4.468950   3.301258   3.120017   4.078162   4.499567
    28  H    6.533210   5.503912   4.512510   2.187657   2.385411
    29  H    5.139720   4.470128   5.427641   4.045525   3.533610
    30  H    4.089467   3.438125   4.958091   5.152875   4.816707
    31  H    5.231714   4.866991   6.313545   6.689758   6.244650
    32  H    7.505090   7.102370   7.797839   6.966736   6.250840
    33  H    8.643870   8.094452   8.186964   5.874835   4.860716
    34  H    8.038431   7.353445   7.193925   4.026965   2.790610
    35  H    4.049936   2.708410   2.027634   5.594534   6.273003
    36  H    4.227003   3.057182   2.612781   6.456168   7.001115
    37  H    4.399210   3.232451   2.830271   5.356929   5.709972
    38  H    3.698349   3.249977   5.129550   7.454651   7.476363
    39  H    3.238950   3.719758   7.105841   9.242712   9.064971
    40  H    2.045791   3.277579   7.620998   9.799024   9.640291
    41  H    0.959096   2.028956   6.399545   8.675686   8.704915
    42  H    2.031655   0.957746   4.128224   6.750399   7.043038
    43  O    8.521630   7.154863   2.677662   5.516880   6.801971
    44  H    9.432612   8.061643   3.578776   5.748219   7.095042
    45  H    6.849052   6.158089   6.360434   3.403426   2.387161
    46  H    8.339003   7.004227   2.713274   6.268783   7.532383
                   26         27         28         29         30
    26  H    0.000000
    27  H    4.201624   0.000000
    28  H    2.706673   2.399503   0.000000
    29  H    3.764930   2.706390   2.347388   0.000000
    30  H    4.314744   3.321100   4.068577   2.474271   0.000000
    31  H    5.508490   5.513792   6.143863   4.635742   2.343662
    32  H    5.597898   7.081541   6.987434   5.696881   4.046179
    33  H    4.575416   7.129607   6.244863   5.305185   4.674613
    34  H    3.017698   5.629209   4.234055   3.613806   4.074829
    35  H    5.601932   2.174298   4.408543   4.662455   4.247486
    36  H    5.976545   3.854258   5.758083   5.581297   4.060336
    37  H    4.673700   3.297278   4.766979   4.434417   2.774863
    38  H    6.562031   5.062807   6.635181   5.473072   3.132635
    39  H    8.384190   6.403251   8.063037   6.394606   4.271716
    40  H    9.210717   6.325212   8.181835   6.434245   5.023461
    41  H    8.406508   4.783530   6.829725   5.461149   4.784804
    42  H    6.604452   2.755263   5.070898   4.345343   3.815004
    43  O    5.796728   5.431198   6.041763   7.562698   7.305347
    44  H    6.155881   6.141893   6.493351   8.198815   8.098055
    45  H    3.129906   3.989201   2.428898   1.734952   3.632998
    46  H    6.547289   5.609321   6.539053   7.940179   7.595777
                   31         32         33         34         35
    31  H    0.000000
    32  H    2.331690   0.000000
    33  H    4.049200   2.340170   0.000000
    34  H    4.698090   4.056995   2.331022   0.000000
    35  H    5.935093   7.815514   8.376910   7.293804   0.000000
    36  H    4.798268   6.716124   7.813787   7.392375   2.353995
    37  H    3.587046   5.351760   6.290982   5.874436   2.761587
    38  H    2.699147   4.891015   6.576563   6.783483   4.478520
    39  H    3.709593   5.847395   7.687346   8.002161   5.952548
    40  H    5.390099   7.577634   9.050106   8.873370   5.961532
    41  H    6.080906   8.311573   9.336156   8.585334   4.460251
    42  H    5.538142   7.681998   8.454279   7.468037   2.163601
    43  O    8.408559   9.463324   9.584095   8.618736   4.600410
    44  H    9.211784  10.132485  10.102245   9.081073   5.467178
    45  H    5.345947   5.704198   4.604305   2.450882   6.029284
    46  H    8.713837   9.950200  10.230162   9.285958   4.442537
                   36         37         38         39         40
    36  H    0.000000
    37  H    1.543231   0.000000
    38  H    2.812307   2.464656   0.000000
    39  H    4.739906   4.615215   2.339904   0.000000
    40  H    5.578330   5.671739   4.063587   2.345064   0.000000
    41  H    4.992238   5.218128   4.657355   4.034567   2.340150
    42  H    3.260227   3.498548   4.053323   4.676958   4.060743
    43  O    4.893699   5.125371   7.417317   9.558990  10.246069
    44  H    5.850050   6.021465   8.339165  10.498700  11.181175
    45  H    6.855708   5.546526   6.726936   7.779827   8.028424
    46  H    4.753220   5.268437   7.435021   9.487847  10.071733
                   41         42         43         44         45
    41  H    0.000000
    42  H    2.320260   0.000000
    43  O    9.033698   6.755896   0.000000
    44  H    9.921045   7.626453   0.960000   0.000000
    45  H    7.184545   6.027974   8.074545   8.568268   0.000000
    46  H    8.813990   6.583406   0.960000   1.567673   8.618369
                   46
    46  H    0.000000
 Stoichiometry    C18H22N2O4
 Framework group  C1[X(C18H22N2O4)]
 Deg. of freedom   132
 Full point group                 C1      NOp   1
 Largest Abelian subgroup         C1      NOp   1
 Largest concise Abelian subgroup C1      NOp   1
                         Standard orientation:                         
 ---------------------------------------------------------------------
 Center     Atomic      Atomic             Coordinates (Angstroms)
 Number     Number       Type             X           Y           Z
 ---------------------------------------------------------------------
      1          8           0       -1.129394   -1.474953   -0.574557
      2          8           0       -3.888996   -0.036954    0.406440
      3          8           0       -3.307847    0.920343   -1.525417
      4          7           0       -0.683278   -3.586837    0.980313
      5          7           0       -1.185755    0.016171    1.144883
      6          6           0       -0.356212   -2.243624    1.578746
      7          6           0        1.166699   -2.058823    1.779782
      8          6           0        1.985300   -1.983017    0.509089
      9          6           0        2.191173   -0.755239   -0.146420
     10          6           0        2.920452   -0.680785   -1.325992
     11          6           0        3.461583   -1.824116   -1.860510
     12          6           0        3.291194   -3.041821   -1.222426
     13          6           0        2.551852   -3.127965   -0.055407
     14          6           0       -0.937638   -1.199213    0.636393
     15          6           0       -1.763224    1.075368    0.316638
     16          6           0       -0.780088    1.652075   -0.677469
     17          6           0        0.368134    2.478984   -0.141292
     18          6           0        1.442394    2.767667   -0.994599
     19          6           0        2.459236    3.638441   -0.612228
     20          6           0        2.437174    4.232557    0.633957
     21          6           0        1.404954    3.913128    1.493863
     22          6           0        0.395787    3.045665    1.125751
     23          6           0       -3.081822    0.591298   -0.310488
     24          1           0       -1.515797   -3.777627    1.136473
     25          1           0       -0.176238   -4.196651    1.335923
     26          1           0       -0.546721   -3.562086    0.122262
     27          1           0       -1.002479    0.179425    1.978878
     28          1           0       -0.792180   -2.168023    2.429298
     29          1           0        1.324109   -1.156895    2.333539
     30          1           0        1.816673    0.046256    0.228349
     31          1           0        3.047444    0.162453   -1.762744
     32          1           0        3.959799   -1.778050   -2.678622
     33          1           0        3.687120   -3.832220   -1.591229
     34          1           0        2.431900   -3.979460    0.367447
     35          1           0       -1.995142    1.791727    0.909920
     36          1           0       -1.271654    2.199094   -1.292785
     37          1           0       -0.408396    0.925097   -1.177556
     38          1           0        1.478331    2.356489   -1.860130
     39          1           0        3.178504    3.829052   -1.215057
     40          1           0        3.121328    4.851363    0.894667
     41          1           0        1.389046    4.303749    2.369665
     42          1           0       -0.296197    2.833014    1.752819
     43          8           0       -5.313831   -0.558871   -1.240606
     44          1           0       -6.052448   -1.172079   -1.245110
     45          1           0        1.529253   -2.879425    2.362935
     46          1           0       -5.644170    0.339454   -1.166527
 ---------------------------------------------------------------------
 Rotational constants (GHZ):      0.2363862      0.2104658      0.1343043
 Standard basis: 6-31G(d) (6D, 7F)
 There are   404 symmetry adapted cartesian basis functions of A   symmetry.
 There are   404 symmetry adapted basis functions of A   symmetry.
   404 basis functions,   760 primitive gaussians,   404 cartesian basis functions
    88 alpha electrons       88 beta electrons
       nuclear repulsion energy      2128.3600105089 Hartrees.
 NAtoms=   46 NActive=   46 NUniq=   46 SFac= 1.00D+00 NAtFMM=   60 NAOKFM=F Big=F
 Integral buffers will be    131072 words long.
 Raffenetti 1 integral format.
 Two-electron integral symmetry is turned on.
 One-electron integrals computed using PRISM.
 NBasis=   404 RedAO= T EigKep=  3.91D-04  NBF=   404
 NBsUse=   404 1.00D-06 EigRej= -1.00D+00 NBFU=   404
 ExpMin= 1.61D-01 ExpMax= 5.48D+03 ExpMxC= 8.25D+02 IAcc=1 IRadAn=         1 AccDes= 0.00D+00
 Harris functional with IExCor=  205 and IRadAn=       1 diagonalized for initial guess.
 HarFok:  IExCor=  205 AccDes= 0.00D+00 IRadAn=         1 IDoV= 1 UseB2=F ITyADJ=14
 ICtDFT=  3500011 ScaDFX=  1.000000  1.000000  1.000000  1.000000
 FoFCou: FMM=F IPFlag=           0 FMFlag=      100000 FMFlg1=           0
         NFxFlg=           0 DoJE=T BraDBF=F KetDBF=T FulRan=T
         wScrn=  0.000000 ICntrl=     500 IOpCl=  0 I1Cent=   200000004 NGrid=           0
         NMat0=    1 NMatS0=      1 NMatT0=    0 NMatD0=    1 NMtDS0=    0 NMtDT0=    0
 Petite list used in FoFCou.
 Requested convergence on RMS density matrix=1.00D-08 within 128 cycles.
 Requested convergence on MAX density matrix=1.00D-06.
 Requested convergence on             energy=1.00D-06.
 No special actions if energy rises.
 Integral accuracy reduced to 1.0D-05 until final iterations.
 Initial convergence to 1.0D-05 achieved.  Increase integral accuracy.
 SCF Done:  E(RHF) =  -1102.37880277     A.U. after   16 cycles
            NFock= 16  Conv=0.36D-08     -V/T= 1.9975

 **********************************************************************

            Population analysis using the SCF density.

 **********************************************************************

 Orbital symmetries:
       Occupied  (A) (A) (A) (A) (A) (A) (A) (A) (A) (A) (A) (A)
                 (A) (A) (A) (A) (A) (A) (A) (A) (A) (A) (A) (A)
                 (A) (A) (A) (A) (A) (A) (A) (A) (A) (A) (A) (A)
                 (A) (A) (A) (A) (A) (A) (A) (A) (A) (A) (A) (A)
                 (A) (A) (A) (A) (A) (A) (A) (A) (A) (A) (A) (A)
                 (A) (A) (A) (A) (A) (A) (A) (A) (A) (A) (A) (A)
                 (A) (A) (A) (A) (A) (A) (A) (A) (A) (A) (A) (A)
                 (A) (A) (A) (A)
       Virtual   (A) (A) (A) (A) (A) (A) (A) (A) (A) (A) (A) (A)
                 (A) (A) (A) (A) (A) (A) (A) (A) (A) (A) (A) (A)
                 (A) (A) (A) (A) (A) (A) (A) (A) (A) (A) (A) (A)
                 (A) (A) (A) (A) (A) (A) (A) (A) (A) (A) (A) (A)
                 (A) (A) (A) (A) (A) (A) (A) (A) (A) (A) (A) (A)
                 (A) (A) (A) (A) (A) (A) (A) (A) (A) (A) (A) (A)
                 (A) (A) (A) (A) (A) (A) (A) (A) (A) (A) (A) (A)
                 (A) (A) (A) (A) (A) (A) (A) (A) (A) (A) (A) (A)
                 (A) (A) (A) (A) (A) (A) (A) (A) (A) (A) (A) (A)
                 (A) (A) (A) (A) (A) (A) (A) (A) (A) (A) (A) (A)
                 (A) (A) (A) (A) (A) (A) (A) (A) (A) (A) (A) (A)
                 (A) (A) (A) (A) (A) (A) (A) (A) (A) (A) (A) (A)
                 (A) (A) (A) (A) (A) (A) (A) (A) (A) (A) (A) (A)
                 (A) (A) (A) (A) (A) (A) (A) (A) (A) (A) (A) (A)
                 (A) (A) (A) (A) (A) (A) (A) (A) (A) (A) (A) (A)
                 (A) (A) (A) (A) (A) (A) (A) (A) (A) (A) (A) (A)
                 (A) (A) (A) (A) (A) (A) (A) (A) (A) (A) (A) (A)
                 (A) (A) (A) (A) (A) (A) (A) (A) (A) (A) (A) (A)
                 (A) (A) (A) (A) (A) (A) (A) (A) (A) (A) (A) (A)
                 (A) (A) (A) (A) (A) (A) (A) (A) (A) (A) (A) (A)
                 (A) (A) (A) (A) (A) (A) (A) (A) (A) (A) (A) (A)
                 (A) (A) (A) (A) (A) (A) (A) (A) (A) (A) (A) (A)
                 (A) (A) (A) (A) (A) (A) (A) (A) (A) (A) (A) (A)
                 (A) (A) (A) (A) (A) (A) (A) (A) (A) (A) (A) (A)
                 (A) (A) (A) (A) (A) (A) (A) (A) (A) (A) (A) (A)
                 (A) (A) (A) (A) (A) (A) (A) (A) (A) (A) (A) (A)
                 (A) (A) (A) (A)
 The electronic state is 1-A.
 Alpha  occ. eigenvalues --  -20.54635 -20.43231 -20.36891 -20.36795 -15.75122
 Alpha  occ. eigenvalues --  -15.58767 -11.38488 -11.36755 -11.30969 -11.27733
 Alpha  occ. eigenvalues --  -11.25407 -11.24456 -11.24365 -11.23947 -11.23792
 Alpha  occ. eigenvalues --  -11.22613 -11.22006 -11.20972 -11.20665 -11.20537
 Alpha  occ. eigenvalues --  -11.19982 -11.19931 -11.19894 -11.15328  -1.48790
 Alpha  occ. eigenvalues --   -1.38445  -1.26815  -1.24368  -1.21188  -1.19604
 Alpha  occ. eigenvalues --   -1.15095  -1.14590  -1.13293  -1.07128  -1.05795
 Alpha  occ. eigenvalues --   -1.05188  -1.01667  -0.99189  -0.97445  -0.94271
 Alpha  occ. eigenvalues --   -0.93207  -0.89564  -0.88355  -0.85272  -0.84188
 Alpha  occ. eigenvalues --   -0.83934  -0.80137  -0.77807  -0.76653  -0.75073
 Alpha  occ. eigenvalues --   -0.72076  -0.70146  -0.68475  -0.67032  -0.66390
 Alpha  occ. eigenvalues --   -0.65373  -0.63988  -0.63568  -0.62071  -0.61001
 Alpha  occ. eigenvalues --   -0.60219  -0.59815  -0.59586  -0.59208  -0.58072
 Alpha  occ. eigenvalues --   -0.57026  -0.53912  -0.53424  -0.53073  -0.52229
 Alpha  occ. eigenvalues --   -0.51791  -0.51281  -0.48857  -0.47833  -0.46790
 Alpha  occ. eigenvalues --   -0.45704  -0.45336  -0.44063  -0.40404  -0.39188
 Alpha  occ. eigenvalues --   -0.37583  -0.36288  -0.35383  -0.32250  -0.30977
 Alpha  occ. eigenvalues --   -0.27602  -0.26535  -0.25786
 Alpha virt. eigenvalues --    0.09940   0.10946   0.12874   0.14804   0.15195
 Alpha virt. eigenvalues --    0.16163   0.18339   0.19193   0.23356   0.24788
 Alpha virt. eigenvalues --    0.25284   0.26254   0.26847   0.27347   0.27995
 Alpha virt. eigenvalues --    0.29652   0.30461   0.31598   0.31853   0.32079
 Alpha virt. eigenvalues --    0.32709   0.33125   0.33566   0.34589   0.35027
 Alpha virt. eigenvalues --    0.35579   0.36714   0.36904   0.37668   0.39477
 Alpha virt. eigenvalues --    0.40771   0.41206   0.42653   0.43338   0.44947
 Alpha virt. eigenvalues --    0.45671   0.46716   0.47302   0.47405   0.49042
 Alpha virt. eigenvalues --    0.50028   0.50537   0.51478   0.53699   0.53768
 Alpha virt. eigenvalues --    0.55871   0.58293   0.58547   0.60192   0.64638
 Alpha virt. eigenvalues --    0.65662   0.68282   0.69422   0.69914   0.71684
 Alpha virt. eigenvalues --    0.72311   0.73255   0.74175   0.76099   0.76341
 Alpha virt. eigenvalues --    0.77458   0.77672   0.78068   0.79201   0.79594
 Alpha virt. eigenvalues --    0.80879   0.81059   0.81472   0.81689   0.82428
 Alpha virt. eigenvalues --    0.82628   0.82770   0.83893   0.85543   0.86063
 Alpha virt. eigenvalues --    0.86285   0.86584   0.87309   0.87849   0.88515
 Alpha virt. eigenvalues --    0.89407   0.90342   0.91611   0.93126   0.94090
 Alpha virt. eigenvalues --    0.94958   0.96454   0.97481   0.98653   0.99219
 Alpha virt. eigenvalues --    1.00362   1.01362   1.02525   1.03917   1.05388
 Alpha virt. eigenvalues --    1.06431   1.07159   1.08915   1.10302   1.11083
 Alpha virt. eigenvalues --    1.12060   1.12617   1.13842   1.14309   1.15020
 Alpha virt. eigenvalues --    1.15337   1.15859   1.16738   1.17569   1.18282
 Alpha virt. eigenvalues --    1.18483   1.19241   1.20015   1.20603   1.21361
 Alpha virt. eigenvalues --    1.21596   1.21811   1.22245   1.22820   1.23461
 Alpha virt. eigenvalues --    1.24267   1.24578   1.25858   1.26988   1.27398
 Alpha virt. eigenvalues --    1.28291   1.28785   1.29269   1.30681   1.31350
 Alpha virt. eigenvalues --    1.32371   1.32928   1.33211   1.33589   1.34448
 Alpha virt. eigenvalues --    1.36263   1.36640   1.38607   1.38856   1.39852
 Alpha virt. eigenvalues --    1.40162   1.42133   1.43332   1.44126   1.44788
 Alpha virt. eigenvalues --    1.46055   1.47497   1.48257   1.49238   1.49669
 Alpha virt. eigenvalues --    1.50722   1.52592   1.53869   1.54510   1.55529
 Alpha virt. eigenvalues --    1.56120   1.57708   1.59042   1.60398   1.62771
 Alpha virt. eigenvalues --    1.65239   1.66390   1.68084   1.70616   1.71480
 Alpha virt. eigenvalues --    1.72488   1.73405   1.74179   1.75101   1.75606
 Alpha virt. eigenvalues --    1.76075   1.77315   1.78284   1.78879   1.79846
 Alpha virt. eigenvalues --    1.80285   1.82730   1.83231   1.85819   1.87120
 Alpha virt. eigenvalues --    1.88787   1.92756   1.97828   2.01542   2.04090
 Alpha virt. eigenvalues --    2.04437   2.06228   2.07944   2.08355   2.09464
 Alpha virt. eigenvalues --    2.10222   2.11570   2.12359   2.12600   2.13648
 Alpha virt. eigenvalues --    2.14949   2.16298   2.17014   2.17536   2.18694
 Alpha virt. eigenvalues --    2.19734   2.20476   2.23788   2.25080   2.26653
 Alpha virt. eigenvalues --    2.27385   2.28876   2.30047   2.30271   2.32040
 Alpha virt. eigenvalues --    2.33709   2.34091   2.35229   2.36512   2.37230
 Alpha virt. eigenvalues --    2.39099   2.39345   2.41312   2.42343   2.43155
 Alpha virt. eigenvalues --    2.43681   2.44296   2.44590   2.46001   2.46717
 Alpha virt. eigenvalues --    2.47207   2.47970   2.48739   2.49782   2.51040
 Alpha virt. eigenvalues --    2.51731   2.52580   2.54096   2.54750   2.55742
 Alpha virt. eigenvalues --    2.56928   2.58692   2.59044   2.61723   2.63052
 Alpha virt. eigenvalues --    2.63739   2.64815   2.66997   2.67172   2.68060
 Alpha virt. eigenvalues --    2.70072   2.72732   2.76307   2.77209   2.78873
 Alpha virt. eigenvalues --    2.81618   2.83183   2.85694   2.87692   2.89791
 Alpha virt. eigenvalues --    2.92329   2.93269   2.94906   2.95215   2.96598
 Alpha virt. eigenvalues --    2.98436   2.98719   2.99510   2.99710   3.01751
 Alpha virt. eigenvalues --    3.04445   3.07050   3.08495   3.11147   3.12103
 Alpha virt. eigenvalues --    3.12835   3.13836   3.14494   3.15533   3.16058
 Alpha virt. eigenvalues --    3.18066   3.18754   3.19496   3.23561   3.24539
 Alpha virt. eigenvalues --    3.25715   3.32760   3.35592   3.36644   3.40160
 Alpha virt. eigenvalues --    3.43449   3.47486   3.49627   3.59956   3.69256
 Alpha virt. eigenvalues --    3.88915   3.93822   4.18713   4.22741   4.45858
 Alpha virt. eigenvalues --    4.49861   4.53228   4.54080   4.55460   4.57450
 Alpha virt. eigenvalues --    4.58753   4.63118   4.65765   4.71815   4.78394
 Alpha virt. eigenvalues --    4.78803   4.80826   4.83549   4.85266   4.88545
 Alpha virt. eigenvalues --    4.94692   4.96363   5.01983   5.15323   5.16454
 Alpha virt. eigenvalues --    5.22543
          Condensed to atoms (all electrons):
               1          2          3          4          5          6
     1  O    8.246286  -0.002304  -0.000013  -0.007482  -0.090581  -0.078694
     2  O   -0.002304   8.494956  -0.097178   0.000000   0.000203  -0.000305
     3  O   -0.000013  -0.097178   8.454820   0.000000   0.001346  -0.000010
     4  N   -0.007482   0.000000   0.000000   6.681227   0.001741   0.206710
     5  N   -0.090581   0.000203   0.001346   0.001741   7.255140  -0.118578
     6  C   -0.078694  -0.000305  -0.000010   0.206710  -0.118578   5.341262
     7  C   -0.004460   0.000000   0.000000  -0.052141   0.003865   0.305028
     8  C    0.003673   0.000000   0.000000  -0.001359  -0.003258  -0.059475
     9  C   -0.000424   0.000000   0.000000   0.000202  -0.000264  -0.004968
    10  C   -0.000307   0.000000   0.000000   0.000005   0.000127  -0.000109
    11  C    0.000008   0.000000   0.000000   0.000001   0.000000   0.000026
    12  C    0.000005   0.000000   0.000000  -0.000050   0.000001  -0.000001
    13  C   -0.000180   0.000000   0.000000  -0.000806  -0.000065  -0.001635
    14  C    0.523562   0.013827  -0.000651  -0.054559   0.354000   0.318931
    15  C    0.006269  -0.111636  -0.113900  -0.000045   0.125807   0.002799
    16  C   -0.004045   0.003320   0.007300  -0.000001  -0.058662  -0.000262
    17  C    0.000071  -0.000036   0.001316   0.000000   0.000237  -0.000006
    18  C    0.000000   0.000000  -0.000004   0.000000  -0.000284   0.000001
    19  C    0.000000   0.000000   0.000000   0.000000   0.000002   0.000000
    20  C    0.000000   0.000000   0.000000   0.000000   0.000000   0.000000
    21  C    0.000000   0.000000   0.000000   0.000000   0.000021   0.000000
    22  C   -0.000007   0.000001   0.000005   0.000000   0.001669  -0.000009
    23  C   -0.002123   0.509886   0.498796   0.000010  -0.036596  -0.000342
    24  H    0.001038   0.000017   0.000000   0.337048   0.000100  -0.013574
    25  H    0.000412   0.000000   0.000000   0.337757  -0.000072  -0.023589
    26  H    0.030707   0.000004   0.000000   0.303815   0.001254  -0.022461
    27  H    0.002969  -0.000244  -0.000069   0.000009   0.348898   0.000063
    28  H    0.002007   0.000086   0.000000  -0.032769   0.004295   0.396766
    29  H   -0.000041   0.000000   0.000000   0.002940   0.001429  -0.036440
    30  H   -0.000542   0.000000  -0.000001   0.000008   0.003093  -0.000268
    31  H   -0.000001   0.000000   0.000000   0.000000  -0.000003   0.000001
    32  H    0.000000   0.000000   0.000000   0.000000   0.000000   0.000000
    33  H    0.000000   0.000000   0.000000   0.000000   0.000000   0.000001
    34  H   -0.000006   0.000000   0.000000  -0.000121  -0.000001  -0.000211
    35  H    0.000310   0.002065   0.000438   0.000001  -0.040539  -0.000099
    36  H    0.000058   0.000323   0.018544   0.000000   0.004614   0.000006
    37  H    0.005149   0.000049   0.001448   0.000001  -0.007140   0.000188
    38  H   -0.000005   0.000000   0.000005   0.000000   0.000015   0.000000
    39  H    0.000000   0.000000   0.000000   0.000000   0.000000   0.000000
    40  H    0.000000   0.000000   0.000000   0.000000   0.000000   0.000000
    41  H    0.000000   0.000000   0.000000   0.000000  -0.000001   0.000000
    42  H   -0.000002  -0.000003   0.000009   0.000000   0.000314  -0.000002
    43  O   -0.000003  -0.083418  -0.017123   0.000000   0.000004   0.000000
    44  H    0.000000   0.005064   0.001210   0.000000  -0.000001   0.000000
    45  H   -0.000094   0.000000   0.000000  -0.002961  -0.000028  -0.048519
    46  H    0.000001   0.006986   0.007588   0.000000  -0.000005   0.000000
               7          8          9         10         11         12
     1  O   -0.004460   0.003673  -0.000424  -0.000307   0.000008   0.000005
     2  O    0.000000   0.000000   0.000000   0.000000   0.000000   0.000000
     3  O    0.000000   0.000000   0.000000   0.000000   0.000000   0.000000
     4  N   -0.052141  -0.001359   0.000202   0.000005   0.000001  -0.000050
     5  N    0.003865  -0.003258  -0.000264   0.000127   0.000000   0.000001
     6  C    0.305028  -0.059475  -0.004968  -0.000109   0.000026  -0.000001
     7  C    5.181988   0.308735  -0.039874   0.002685   0.000334   0.002575
     8  C    0.308735   4.915332   0.557168  -0.039273  -0.031088  -0.044241
     9  C   -0.039874   0.557168   4.864175   0.563760  -0.045678  -0.035931
    10  C    0.002685  -0.039273   0.563760   4.824369   0.557029  -0.041540
    11  C    0.000334  -0.031088  -0.045678   0.557029   4.838356   0.567035
    12  C    0.002575  -0.044241  -0.035931  -0.041540   0.567035   4.819553
    13  C   -0.048767   0.560807  -0.039207  -0.035194  -0.046100   0.566612
    14  C   -0.044133  -0.006739   0.002289  -0.000072   0.000000  -0.000019
    15  C   -0.000103   0.000039   0.000136  -0.000020   0.000000   0.000000
    16  C    0.000038   0.000002   0.000072  -0.000123  -0.000004   0.000001
    17  C   -0.000033   0.000113  -0.004522   0.000176   0.000011  -0.000001
    18  C   -0.000002   0.000165  -0.001646  -0.002109   0.000055   0.000000
    19  C    0.000000   0.000012   0.000348  -0.000377   0.000004   0.000000
    20  C    0.000000  -0.000001   0.000077  -0.000010   0.000000   0.000000
    21  C   -0.000001  -0.000003  -0.000026   0.000002   0.000000   0.000000
    22  C   -0.000016  -0.000015  -0.001184   0.000023   0.000000   0.000000
    23  C   -0.000005  -0.000002  -0.000001   0.000000   0.000000   0.000000
    24  H    0.002881  -0.000001  -0.000003   0.000000   0.000000   0.000000
    25  H    0.001219  -0.000714   0.000038  -0.000001  -0.000001  -0.000007
    26  H   -0.001730   0.005185  -0.000038  -0.000039  -0.000026   0.000115
    27  H    0.000128   0.000016   0.000012  -0.000002   0.000000   0.000000
    28  H   -0.032818   0.005911  -0.000047  -0.000001   0.000000   0.000000
    29  H    0.404249  -0.035905  -0.001216   0.000111  -0.000003  -0.000035
    30  H   -0.001790  -0.042842   0.382499  -0.026148   0.004040   0.000065
    31  H   -0.000146   0.003857  -0.031619   0.393163  -0.036215   0.003589
    32  H    0.000009   0.000376   0.003829  -0.035178   0.398797  -0.036301
    33  H   -0.000170   0.003392   0.000320   0.003478  -0.033963   0.399015
    34  H   -0.002044  -0.051235   0.003755   0.000132   0.003803  -0.030812
    35  H    0.000001  -0.000001   0.000005   0.000000   0.000000   0.000000
    36  H    0.000000   0.000000  -0.000018   0.000005   0.000000   0.000000
    37  H   -0.000025   0.000056   0.001799   0.000450  -0.000004  -0.000002
    38  H    0.000001  -0.000009   0.000038   0.000254   0.000000   0.000000
    39  H    0.000000   0.000000   0.000003   0.000002   0.000000   0.000000
    40  H    0.000000   0.000000   0.000000   0.000000   0.000000   0.000000
    41  H    0.000000   0.000000   0.000000   0.000000   0.000000   0.000000
    42  H    0.000001  -0.000001  -0.000006   0.000000   0.000000   0.000000
    43  O    0.000000   0.000000   0.000000   0.000000   0.000000   0.000000
    44  H    0.000000   0.000000   0.000000   0.000000   0.000000   0.000000
    45  H    0.403311  -0.050494   0.002088  -0.000030  -0.000009   0.000154
    46  H    0.000000   0.000000   0.000000   0.000000   0.000000   0.000000
              13         14         15         16         17         18
     1  O   -0.000180   0.523562   0.006269  -0.004045   0.000071   0.000000
     2  O    0.000000   0.013827  -0.111636   0.003320  -0.000036   0.000000
     3  O    0.000000  -0.000651  -0.113900   0.007300   0.001316  -0.000004
     4  N   -0.000806  -0.054559  -0.000045  -0.000001   0.000000   0.000000
     5  N   -0.000065   0.354000   0.125807  -0.058662   0.000237  -0.000284
     6  C   -0.001635   0.318931   0.002799  -0.000262  -0.000006   0.000001
     7  C   -0.048767  -0.044133  -0.000103   0.000038  -0.000033  -0.000002
     8  C    0.560807  -0.006739   0.000039   0.000002   0.000113   0.000165
     9  C   -0.039207   0.002289   0.000136   0.000072  -0.004522  -0.001646
    10  C   -0.035194  -0.000072  -0.000020  -0.000123   0.000176  -0.002109
    11  C   -0.046100   0.000000   0.000000  -0.000004   0.000011   0.000055
    12  C    0.566612  -0.000019   0.000000   0.000001  -0.000001   0.000000
    13  C    4.907152  -0.000444   0.000001   0.000001   0.000000  -0.000002
    14  C   -0.000444   4.204878  -0.047711  -0.004193  -0.000642  -0.000047
    15  C    0.000001  -0.047711   5.322011   0.333727  -0.045967   0.002871
    16  C    0.000001  -0.004193   0.333727   5.082141   0.289174  -0.050508
    17  C    0.000000  -0.000642  -0.045967   0.289174   4.906476   0.572677
    18  C   -0.000002  -0.000047   0.002871  -0.050508   0.572677   4.917736
    19  C    0.000000   0.000000  -0.000036   0.002243  -0.037949   0.559423
    20  C    0.000000   0.000000  -0.000012   0.000206  -0.032141  -0.046478
    21  C    0.000000   0.000002   0.000041   0.003011  -0.037205  -0.036383
    22  C    0.000000   0.000153  -0.005461  -0.047691   0.561123  -0.054555
    23  C    0.000000  -0.002655   0.298514  -0.039035   0.003828  -0.000044
    24  H    0.000078  -0.000773  -0.000007   0.000000   0.000000   0.000000
    25  H    0.001145   0.004907   0.000001   0.000000   0.000000   0.000000
    26  H    0.002775  -0.003376  -0.000020   0.000003   0.000000   0.000000
    27  H    0.000002  -0.026680  -0.015926   0.002768   0.000275   0.000006
    28  H   -0.000105  -0.033795  -0.000189   0.000015  -0.000002   0.000000
    29  H    0.001942  -0.003547  -0.000014   0.000002   0.000025  -0.000002
    30  H    0.003622   0.000322  -0.000614  -0.001777   0.008249   0.002640
    31  H    0.000224  -0.000001   0.000001  -0.000047   0.000151   0.003475
    32  H    0.003762   0.000000   0.000000   0.000000   0.000000  -0.000001
    33  H   -0.037966   0.000000   0.000000   0.000000   0.000000   0.000000
    34  H    0.392930   0.000036   0.000000   0.000000   0.000000   0.000000
    35  H    0.000000   0.004994   0.403245  -0.049062  -0.006210  -0.000056
    36  H    0.000000   0.000302  -0.032947   0.391927  -0.033672  -0.004386
    37  H   -0.000009   0.003410  -0.031800   0.402646  -0.048377  -0.005504
    38  H    0.000000  -0.000003  -0.000054  -0.003031  -0.034165   0.395052
    39  H    0.000000   0.000000   0.000002  -0.000131   0.003345  -0.037358
    40  H    0.000000   0.000000   0.000000   0.000008   0.000217   0.003540
    41  H    0.000000   0.000000   0.000000  -0.000123   0.003519   0.000346
    42  H    0.000000   0.000010   0.002293  -0.006137  -0.038775   0.004584
    43  O    0.000000   0.000001  -0.000597   0.000025   0.000000   0.000000
    44  H    0.000000  -0.000001   0.000053  -0.000001   0.000000   0.000000
    45  H   -0.000940   0.004473   0.000000  -0.000001   0.000000   0.000000
    46  H    0.000000  -0.000001   0.000435  -0.000020   0.000000   0.000000
              19         20         21         22         23         24
     1  O    0.000000   0.000000   0.000000  -0.000007  -0.002123   0.001038
     2  O    0.000000   0.000000   0.000000   0.000001   0.509886   0.000017
     3  O    0.000000   0.000000   0.000000   0.000005   0.498796   0.000000
     4  N    0.000000   0.000000   0.000000   0.000000   0.000010   0.337048
     5  N    0.000002   0.000000   0.000021   0.001669  -0.036596   0.000100
     6  C    0.000000   0.000000   0.000000  -0.000009  -0.000342  -0.013574
     7  C    0.000000   0.000000  -0.000001  -0.000016  -0.000005   0.002881
     8  C    0.000012  -0.000001  -0.000003  -0.000015  -0.000002  -0.000001
     9  C    0.000348   0.000077  -0.000026  -0.001184  -0.000001  -0.000003
    10  C   -0.000377  -0.000010   0.000002   0.000023   0.000000   0.000000
    11  C    0.000004   0.000000   0.000000   0.000000   0.000000   0.000000
    12  C    0.000000   0.000000   0.000000   0.000000   0.000000   0.000000
    13  C    0.000000   0.000000   0.000000   0.000000   0.000000   0.000078
    14  C    0.000000   0.000000   0.000002   0.000153  -0.002655  -0.000773
    15  C   -0.000036  -0.000012   0.000041  -0.005461   0.298514  -0.000007
    16  C    0.002243   0.000206   0.003011  -0.047691  -0.039035   0.000000
    17  C   -0.037949  -0.032141  -0.037205   0.561123   0.003828   0.000000
    18  C    0.559423  -0.046478  -0.036383  -0.054555  -0.000044   0.000000
    19  C    4.846752   0.562723  -0.047411  -0.035345   0.000000   0.000000
    20  C    0.562723   4.859123   0.571693  -0.045168   0.000000   0.000000
    21  C   -0.047411   0.571693   4.839726   0.556743   0.000000   0.000000
    22  C   -0.035345  -0.045168   0.556743   4.923091   0.000024   0.000000
    23  C    0.000000   0.000000   0.000000   0.000024   3.975739   0.000003
    24  H    0.000000   0.000000   0.000000   0.000000   0.000003   0.248019
    25  H    0.000000   0.000000   0.000000   0.000000   0.000000  -0.009723
    26  H    0.000000   0.000000   0.000000   0.000000   0.000011  -0.004387
    27  H   -0.000002   0.000000   0.000012   0.001052   0.001825  -0.000003
    28  H    0.000000   0.000000   0.000000  -0.000001   0.000034  -0.002206
    29  H   -0.000001   0.000000   0.000004   0.000060   0.000000  -0.000036
    30  H   -0.000436  -0.000244   0.000050   0.003064   0.000008   0.000000
    31  H    0.001030   0.000000  -0.000013  -0.000042   0.000000   0.000000
    32  H    0.000000   0.000000   0.000000   0.000000   0.000000   0.000000
    33  H    0.000000   0.000000   0.000000   0.000000   0.000000   0.000000
    34  H    0.000000   0.000000   0.000000   0.000000   0.000000   0.000006
    35  H   -0.000005  -0.000003  -0.000002   0.000800  -0.020212   0.000000
    36  H   -0.000065   0.000026  -0.000079   0.000356   0.000414   0.000000
    37  H    0.000128  -0.000005  -0.000106   0.003645  -0.002920   0.000000
    38  H   -0.040991   0.003732   0.000078   0.005056   0.000002   0.000000
    39  H    0.397633  -0.039251   0.004104   0.000259   0.000000   0.000000
    40  H   -0.037982   0.399522  -0.037169   0.003601   0.000000   0.000000
    41  H    0.004088  -0.039341   0.397445  -0.038355   0.000000   0.000000
    42  H    0.000169   0.003760  -0.040445   0.395657   0.000069   0.000000
    43  O    0.000000   0.000000   0.000000   0.000000   0.005111   0.000000
    44  H    0.000000   0.000000   0.000000   0.000000   0.000274   0.000000
    45  H    0.000000   0.000000   0.000000   0.000000   0.000000  -0.000164
    46  H    0.000000   0.000000   0.000000   0.000000  -0.000288   0.000000
              25         26         27         28         29         30
     1  O    0.000412   0.030707   0.002969   0.002007  -0.000041  -0.000542
     2  O    0.000000   0.000004  -0.000244   0.000086   0.000000   0.000000
     3  O    0.000000   0.000000  -0.000069   0.000000   0.000000  -0.000001
     4  N    0.337757   0.303815   0.000009  -0.032769   0.002940   0.000008
     5  N   -0.000072   0.001254   0.348898   0.004295   0.001429   0.003093
     6  C   -0.023589  -0.022461   0.000063   0.396766  -0.036440  -0.000268
     7  C    0.001219  -0.001730   0.000128  -0.032818   0.404249  -0.001790
     8  C   -0.000714   0.005185   0.000016   0.005911  -0.035905  -0.042842
     9  C    0.000038  -0.000038   0.000012  -0.000047  -0.001216   0.382499
    10  C   -0.000001  -0.000039  -0.000002  -0.000001   0.000111  -0.026148
    11  C   -0.000001  -0.000026   0.000000   0.000000  -0.000003   0.004040
    12  C   -0.000007   0.000115   0.000000   0.000000  -0.000035   0.000065
    13  C    0.001145   0.002775   0.000002  -0.000105   0.001942   0.003622
    14  C    0.004907  -0.003376  -0.026680  -0.033795  -0.003547   0.000322
    15  C    0.000001  -0.000020  -0.015926  -0.000189  -0.000014  -0.000614
    16  C    0.000000   0.000003   0.002768   0.000015   0.000002  -0.001777
    17  C    0.000000   0.000000   0.000275  -0.000002   0.000025   0.008249
    18  C    0.000000   0.000000   0.000006   0.000000  -0.000002   0.002640
    19  C    0.000000   0.000000  -0.000002   0.000000  -0.000001  -0.000436
    20  C    0.000000   0.000000   0.000000   0.000000   0.000000  -0.000244
    21  C    0.000000   0.000000   0.000012   0.000000   0.000004   0.000050
    22  C    0.000000   0.000000   0.001052  -0.000001   0.000060   0.003064
    23  C    0.000000   0.000011   0.001825   0.000034   0.000000   0.000008
    24  H   -0.009723  -0.004387  -0.000003  -0.002206  -0.000036   0.000000
    25  H    0.277856  -0.008250  -0.000002  -0.002030   0.000074   0.000001
    26  H   -0.008250   0.244163  -0.000054   0.004057   0.000045   0.000002
    27  H   -0.000002  -0.000054   0.336922   0.000602   0.000751   0.000126
    28  H   -0.002030   0.004057   0.000602   0.441417  -0.002316  -0.000013
    29  H    0.000074   0.000045   0.000751  -0.002316   0.439278   0.001807
    30  H    0.000001   0.000002   0.000126  -0.000013   0.001807   0.451909
    31  H    0.000000   0.000000   0.000000   0.000000  -0.000006  -0.002959
    32  H    0.000000   0.000000   0.000000   0.000000   0.000000  -0.000163
    33  H   -0.000001  -0.000001   0.000000   0.000000   0.000003   0.000016
    34  H    0.000790  -0.000079   0.000000  -0.000004  -0.000051  -0.000162
    35  H    0.000000   0.000000  -0.006726  -0.000014  -0.000004  -0.000020
    36  H    0.000000   0.000000  -0.000081   0.000000   0.000000   0.000106
    37  H    0.000000  -0.000003  -0.000288  -0.000003  -0.000005  -0.001406
    38  H    0.000000   0.000000  -0.000001   0.000000   0.000000  -0.000191
    39  H    0.000000   0.000000   0.000000   0.000000   0.000000  -0.000003
    40  H    0.000000   0.000000   0.000000   0.000000   0.000000   0.000001
    41  H    0.000000   0.000000  -0.000001   0.000000   0.000000  -0.000001
    42  H    0.000000   0.000000   0.000366  -0.000001   0.000001   0.000012
    43  O    0.000000   0.000000   0.000000   0.000000   0.000000   0.000000
    44  H    0.000000   0.000000   0.000000   0.000000   0.000000   0.000000
[...]
    17  C    3.802938   4.906769   4.286818   5.977177   3.065844
    18  C    3.642273   5.652517   5.298290   6.148569   3.406853
    19  C    4.873840   6.894044   6.603995   7.293178   4.506049
    20  C    5.967563   7.448600   7.050392   8.170598   5.188495
    21  C    6.071006   6.907011   6.331141   8.050268   4.974345
    22  C    5.132616   5.669797   4.954967   7.029981   4.005987
    23  C    3.316393   1.267702   1.207597   3.501377   2.466848
    24  H    3.166143   1.601319   3.614513   1.049668   2.718428
    25  H    3.955767   3.270821   5.258083   1.006274   3.928285
    26  H    2.881841   2.857806   4.325003   1.015993   3.575549
    27  H    3.088830   2.632582   3.983689   3.014043   0.995080
    28  H    3.219053   3.594894   5.391183   2.067608   2.537698
    29  H    2.609304   5.230936   6.372660   3.353240   3.726927
    30  H    2.499197   5.128737   5.720180   3.568651   4.590823
    31  H    4.805932   6.683104   7.144293   5.098054   6.830919
    32  H    6.541728   7.783626   8.727220   5.756428   8.221501
    33  H    6.741677   7.616917   9.103198   5.185437   7.917653
    34  H    5.351280   6.309161   8.044515   3.702357   6.098797
    35  H    3.912582   2.812832   2.891722   4.574788   2.036630
    36  H    4.002889   3.952493   2.520378   5.723748   3.412993
    37  H    2.502576   3.859033   2.950181   4.853399   2.819680
    38  H    2.872548   5.479994   5.251486   5.613833   3.268231
    39  H    5.178900   7.590781   7.423806   7.665122   5.107065
    40  H    6.922079   8.469841   8.119360   9.103636   6.151255
    41  H    7.082288   7.611311   6.986544   8.913293   5.830140
    42  H    5.620969   5.516405   4.618363   7.230917   4.317699
    43  O    3.994371   2.813869   3.556763   2.794703   4.624565
    44  H    4.349119   3.501208   3.708691   3.650287   5.232639
    45  H    3.873790   5.432808   7.056361   3.124845   4.335513
    46  H    3.905509   2.019806   2.708228   2.852128   4.133003
                    6          7          8          9         10
     6  C    0.000000
     7  C    1.548295   0.000000
     8  C    2.602434   1.517194   0.000000
     9  C    3.343311   2.535310   1.392778   0.000000
    10  C    4.598332   3.807672   2.409992   1.385038   0.000000
    11  C    5.182122   4.307876   2.790748   2.405019   1.386286
    12  C    4.743607   3.802110   2.415133   2.771999   2.394865
    13  C    3.534691   2.519773   1.390390   2.395303   2.762223
    14  C    1.539487   2.595829   3.543799   3.766020   5.052053
    15  C    3.696979   5.016661   5.882771   5.919264   7.051172
    16  C    4.659394   5.711925   6.505086   6.283157   7.378693
    17  C    5.259903   6.161867   7.164237   7.049443   8.247613
    18  C    5.165798   5.748706   6.793708   6.686328   7.925244
    19  C    6.173065   6.628232   7.773105   7.753207   9.017363
    20  C    7.120170   7.741273   8.950827   8.988208  10.265341
    21  C    7.194738   8.058542   9.242237   9.268426  10.523977
    22  C    6.350966   7.350495   8.433188   8.393687   9.601983
    23  C    3.888958   5.264466   5.801605   5.736562   6.662186
    24  H    2.093043   3.439506   3.857716   4.264890   5.190752
    25  H    2.100069   2.841902   2.981421   3.786748   4.582874
    26  H    2.112271   2.781365   2.607654   2.796159   3.597842
    27  H    2.454251   3.871294   5.031180   5.544032   6.793863
    28  H    1.081629   2.166168   3.401355   4.335135   5.569262
    29  H    2.135089   1.081867   2.138022   2.732892   4.071163
    30  H    3.305509   2.731468   2.137619   1.074433   2.136773
    31  H    5.348130   4.665285   3.380392   2.131362   1.075161
    32  H    6.224758   5.382974   3.865847   3.378810   2.139147
    33  H    5.568388   4.655104   3.385591   3.847314   3.372077
    34  H    3.657172   2.712686   2.140706   3.374410   3.839345
    35  H    4.347021   5.743001   6.724999   6.889858   8.043613
    36  H    5.544852   6.665016   7.363229   7.060732   8.058343
    37  H    4.486090   5.337057   5.950959   5.542087   6.570692
    38  H    4.596859   4.983476   5.922264   5.731932   6.952128
    39  H    6.430094   6.640481   7.766681   7.753929   9.004823
    40  H    7.983576   8.517919   9.765686   9.844589  11.131471
    41  H    8.104231   9.028975  10.239852  10.298825  11.555441
    42  H    6.747081   7.892967   8.923812   8.876751  10.038151
    43  O    4.027050   4.806986   4.404723   4.091696   4.401017
    44  H    4.768846   5.426311   4.887999   4.317038   4.427771
    45  H    2.145291   1.083664   2.129284   3.386178   4.524068
    46  H    4.015358   5.052768   4.923663   4.704013   5.193115
                   11         12         13         14         15
    11  C    0.000000
    12  C    1.384066   0.000000
    13  C    2.399013   1.386604   0.000000
    14  C    5.948984   5.815988   4.737504   0.000000
    15  C    8.010399   7.989767   7.007665   2.452015   0.000000
    16  C    8.510581   8.680975   7.768314   3.167850   1.531752
    17  C    9.391758   9.484248   8.460205   3.806219   2.544733
    18  C    9.086862   9.171651   8.122325   3.797741   3.432574
    19  C   10.152487  10.173687   9.069567   4.948207   4.639600
    20  C   11.384058  11.361495  10.219750   5.896674   5.109078
    21  C   11.637490  11.624009  10.498253   5.906578   4.562850
    22  C   10.718167  10.756091   9.690061   4.981370   3.329089
    23  C    7.534548   7.589474   6.788025   2.966948   1.555669
    24  H    5.703596   5.411240   4.525874   2.429774   3.254267
    25  H    4.726126   4.113887   3.196883   3.285544   4.805580
    26  H    4.138779   4.015664   3.310941   2.657665   4.206109
    27  H    7.508743   7.146261   5.966563   1.972970   2.050112
    28  H    6.017224   5.390857   4.098017   2.166737   3.895447
    29  H    4.785311   4.475016   3.299207   2.580558   4.991931
    30  H    3.377939   3.846426   3.369654   3.271798   5.291586
    31  H    2.137831   3.370462   3.837370   5.549682   7.349876
    32  H    1.075100   2.137199   3.374715   6.952514   8.927645
    33  H    2.137732   1.075350   2.135937   6.750159   8.896380
    34  H    3.370641   2.132410   1.077279   5.052426   7.297499
    35  H    8.940111   8.821076   7.780103   3.281814   1.084991
    36  H    9.195735   9.435109   8.596015   4.102058   2.104832
    37  H    7.776145   8.076468   7.261446   2.970864   2.150216
    38  H    8.136329   8.275937   7.278272   3.262275   3.527702
    39  H   10.123727  10.138967   9.043854   5.334387   5.450156
    40  H   12.234666  12.178410  11.012160   6.837260   6.150189
    41  H   12.654229  12.614151  11.471567   6.854694   5.332985
    42  H   11.128821  11.173581  10.140351   5.404589   3.351224
    43  O    4.969212   5.229968   4.968791   4.033762   4.594695
    44  H    5.082649   5.574077   5.483399   4.609883   5.049599
    45  H    4.761783   3.972029   2.595875   3.396939   5.719268
    46  H    5.830463   6.011048   5.590354   3.810944   3.896989
                   16         17         18         19         20
    16  C    0.000000
    17  C    1.513957   0.000000
    18  C    2.531749   1.390170   0.000000
    19  C    3.808732   2.415113   1.386011   0.000000
    20  C    4.312484   2.798593   2.403303   1.385030   0.000000
    21  C    3.804102   2.417874   2.764472   2.392275   1.385691
    22  C    2.523481   1.391548   2.387038   2.760101   2.400652
    23  C    2.586192   3.937765   4.838011   6.118718   6.617572
    24  H    4.522360   5.565552   5.966875   7.154246   7.898939
    25  H    6.006185   6.906362   7.060291   8.150550   9.008283
    26  H    5.124999   6.187045   6.341224   7.562620   8.516986
    27  H    3.346843   3.783497   4.165360   5.112018   5.657141
    28  H    5.019352   5.452294   5.396232   6.261756   7.075735
    29  H    5.425110   5.685009   5.068535   5.860761   7.055723
    30  H    5.449483   6.182892   5.794561   6.888346   8.137854
    31  H    7.496637   8.406810   8.099920   9.217340  10.475779
    32  H    9.390065  10.322423  10.036874  11.119394  12.361008
    33  H    9.665255  10.472795  10.173529  11.153690  12.324024
    34  H    8.186996   8.793677   8.456855   9.323580  10.412952
    35  H    2.132709   2.734023   3.788448   4.792461   4.981757
    36  H    1.081473   2.143291   3.354062   4.514546   4.794175
    37  H    1.079905   2.146996   2.675669   4.041902   4.806694
    38  H    2.724765   2.133129   1.075651   2.136025   3.375935
    39  H    4.665895   3.385630   2.135169   1.076290   2.136931
    40  H    5.388323   3.874431   3.379431   2.140270   1.075841
    41  H    4.658303   3.388477   3.840489   3.369733   2.138187
    42  H    2.713824   2.137382   3.365144   3.837327   3.373286
    43  O    5.366732   6.735024   7.193520   8.537978   9.382548
    44  H    5.597390   7.012767   7.474612   8.844350   9.709818
    45  H    6.516806   6.840613   6.382230   7.118213   8.175269
    46  H    4.749754   6.157255   6.767261   8.113330   8.849661
                   21         22         23         24         25
    21  C    0.000000
    22  C    1.385116   0.000000
    23  C    5.996703   4.683936   0.000000
    24  H    7.608148   6.504845   2.634412   0.000000
    25  H    8.896630   7.910159   4.324075   1.698521   0.000000
    26  H    8.411030   7.331712   3.598777   1.608437   1.627344
    27  H    5.385906   4.498630   2.808004   2.580050   3.669498
    28  H    7.124115   6.376892   4.236820   2.435923   2.357054
    29  H    7.514948   6.912483   5.481581   4.111099   3.824366
    30  H    8.424693   7.553581   5.239451   4.244031   4.179056
    31  H   10.722371   9.775352   6.914259   5.793142   5.414353
    32  H   12.602998  11.656627   8.356058   6.594631   5.628516
    33  H   12.581378  11.719624   8.446551   6.142699   4.697280
    34  H   10.696197   9.948614   7.151145   4.721315   3.207379
    35  H    4.236855   3.058467   2.134049   3.812920   5.351225
    36  H    4.039566   2.680557   2.713306   5.076473   6.668444
    37  H    4.534150   3.370762   2.838683   4.489908   5.855045
    38  H    3.840096   3.362822   4.765679   5.581426   6.532916
    39  H    3.369526   3.836350   6.897079   7.664164   8.487467
    40  H    2.140129   3.376895   7.670947   8.868973   9.909689
    41  H    1.076061   2.135451   6.702779   8.406745   9.731144
    42  H    2.132888   1.077326   4.487041   6.570747   8.089214
    43  O    9.044873   7.788137   3.381527   2.595582   3.227034
    44  H    9.367906   8.086645   3.813731   3.481346   4.117669
    45  H    8.543475   7.939416   6.031513   4.015390   3.127592
    46  H    8.401056   7.109945   2.545817   2.306296   3.396865
                   26         27         28         29         30
    26  H    0.000000
    27  H    3.735127   0.000000
    28  H    2.946078   2.149684   0.000000
    29  H    3.496391   4.050476   2.733416   0.000000
    30  H    2.953104   5.195293   4.353787   2.598268   0.000000
    31  H    4.222249   7.371267   6.374917   4.782506   2.454143
    32  H    5.026519   8.515031   7.061048   5.840557   4.265371
    33  H    4.847835   7.941479   6.094533   5.383968   4.921746
    34  H    3.802567   5.985664   3.938898   3.583299   4.263881
    35  H    5.010496   2.183804   4.294777   5.754545   6.311591
    36  H    5.746075   4.115019   5.901036   6.437674   6.228313
    37  H    4.746661   3.766561   5.058013   4.985381   4.632765
    38  H    5.704178   4.125185   4.991752   4.229789   4.815421
    39  H    7.912372   5.706688   6.540165   5.762598   6.909796
    40  H    9.481163   6.556759   7.878935   7.789643   9.008764
    41  H    9.313630   6.139246   7.958857   8.522201   9.468395
    42  H    7.532369   4.713791   6.750438   7.571261   8.067042
    43  O    2.072850   4.877947   4.777874   5.387925   4.090805
    44  H    2.826165   5.604420   5.596371   5.904491   4.232987
    45  H    3.554880   4.261745   2.258815   1.739037   3.734467
    46  H    2.397591   4.358821   4.650449   5.583099   4.561178
                   31         32         33         34         35
    31  H    0.000000
    32  H    2.465026   0.000000
    33  H    4.262993   2.465674   0.000000
    34  H    4.914482   4.258802   2.449367   0.000000
    35  H    8.389265   9.871365   9.680557   7.957590   0.000000
    36  H    8.093319  10.019592  10.410108   9.044461   2.434443
    37  H    6.596419   8.617481   9.097405   7.797383   3.027870
    38  H    7.110956   9.073592   9.295795   7.685028   4.139855
    39  H    9.210000  11.084695  11.108862   9.291205   5.692240
    40  H   11.354586  13.219208  13.126162  11.161582   5.972063
    41  H   11.759026  13.622074  13.556365  11.631270   4.843636
    42  H   10.197309  12.042638  12.117562  10.396608   2.875118
    43  O    4.628090   5.557587   5.971888   5.575646   5.379396
    44  H    4.433509   5.543768   6.332659   6.202553   5.886963
    45  H    5.468683   5.815733   4.640315   2.356982   6.313162
    46  H    5.423451   6.473482   6.764510   6.105860   4.598114
                   36         37         38         39         40
    36  H    0.000000
    37  H    1.734252   0.000000
    38  H    3.664130   2.467493   0.000000
    39  H    5.441485   4.727379   2.455293   0.000000
    40  H    5.849729   5.863340   4.265604   2.466158   0.000000
    41  H    4.728669   5.464337   4.916100   4.262156   2.466879
    42  H    2.487868   3.686592   4.255300   4.913551   4.262289
    43  O    5.622413   4.963034   6.652393   9.039518  10.421792
    44  H    5.752593   5.079979   6.903379   9.340620  10.760624
    45  H    7.490487   6.248143   5.691248   7.068583   8.873068
    46  H    4.916778   4.497334   6.352831   8.708391   9.900866
                   41         42         43         44         45
    41  H    0.000000
    42  H    2.451367   0.000000
    43  O    9.878170   7.757725   0.000000
    44  H   10.208724   8.041957   0.947052   0.000000
    45  H    9.473046   8.498076   5.625459   6.313251   0.000000
    46  H    9.180897   6.991565   0.959482   1.531929   5.858944
                   46
    46  H    0.000000
 Stoichiometry    C18H22N2O4
 Framework group  C1[X(C18H22N2O4)]
 Deg. of freedom   132
 Full point group                 C1      NOp   1
 Largest Abelian subgroup         C1      NOp   1
 Largest concise Abelian subgroup C1      NOp   1
                         Standard orientation:                         
 ---------------------------------------------------------------------
 Center     Atomic      Atomic             Coordinates (Angstroms)
 Number     Number       Type             X           Y           Z
 ---------------------------------------------------------------------
      1          8           0        0.088802    0.513058   -0.680252
      2          8           0        0.000251   -2.642434    0.919964
      3          8           0       -1.207248   -3.255741   -0.831500
      4          7           0        1.875501   -0.868089    1.299030
      5          7           0       -1.141486   -0.264795    1.059343
      6          6           0        1.167497    0.441757    1.421736
      7          6           0        2.058604    1.663708    1.090105
      8          6           0        3.317879    1.377703    0.293673
      9          6           0        3.266547    1.156426   -1.080457
     10          6           0        4.426094    0.893945   -1.791009
     11          6           0        5.651300    0.851379   -1.143827
     12          6           0        5.712766    1.074271    0.220790
     13          6           0        4.552024    1.336100    0.932686
     14          6           0       -0.040114    0.261400    0.484099
     15          6           0       -1.906741   -1.324841    0.374913
     16          6           0       -2.681290   -0.856806   -0.860920
     17          6           0       -3.700864    0.220393   -0.557313
     18          6           0       -3.397319    1.567402   -0.718555
     19          6           0       -4.332777    2.547737   -0.427197
     20          6           0       -5.591487    2.197680    0.032607
     21          6           0       -5.909204    0.858420    0.192533
     22          6           0       -4.972154   -0.117708   -0.103534
     23          6           0       -0.963972   -2.532353    0.104351
     24          1           0        1.178109   -1.650313    1.358792
     25          1           0        2.610692   -0.979187    1.977071
     26          1           0        2.288031   -1.016330    0.382468
     27          1           0       -1.024826   -0.483106    2.023145
     28          1           0        0.838192    0.500668    2.450332
     29          1           0        1.442925    2.372148    0.552063
     30          1           0        2.319082    1.184490   -1.586351
     31          1           0        4.371179    0.724512   -2.851315
     32          1           0        6.549216    0.649169   -1.699433
     33          1           0        6.659181    1.050845    0.730817
     34          1           0        4.613504    1.525973    1.991316
     35          1           0       -2.627022   -1.656885    1.115282
     36          1           0       -3.172314   -1.735667   -1.255997
     37          1           0       -1.987974   -0.521610   -1.617988
     38          1           0       -2.423651    1.846861   -1.080352
     39          1           0       -4.079121    3.584821   -0.563268
     40          1           0       -6.319028    2.957973    0.256373
     41          1           0       -6.887447    0.574191    0.539179
     42          1           0       -5.233845   -1.156521    0.010560
     43          8           0        2.316757   -2.802225   -0.669414
     44          1           0        2.419465   -3.047299   -1.578424
     45          1           0        2.337092    2.136049    2.024806
     46          1           0        1.461224   -3.131523   -0.386162
 ---------------------------------------------------------------------
 Rotational constants (GHZ):      0.4287342      0.1226824      0.1063107
 Standard basis: 6-31G(d) (6D, 7F)
 There are   404 symmetry adapted cartesian basis functions of A   symmetry.
 There are   404 symmetry adapted basis functions of A   symmetry.
   404 basis functions,   760 primitive gaussians,   404 cartesian basis functions
    88 alpha electrons       88 beta electrons
       nuclear repulsion energy      2076.6737683172 Hartrees.
 NAtoms=   46 NActive=   46 NUniq=   46 SFac= 1.00D+00 NAtFMM=   60 NAOKFM=F Big=F
 Integral buffers will be    131072 words long.
 Raffenetti 1 integral format.
 Two-electron integral symmetry is turned on.
 One-electron integrals computed using PRISM.
 NBasis=   404 RedAO= T EigKep=  4.28D-04  NBF=   404
 NBsUse=   404 1.00D-06 EigRej= -1.00D+00 NBFU=   404
 Initial guess from the checkpoint file:  "A02_mod_FF.chk"
 B after Tr=     0.000000    0.000000    0.000000
         Rot=    0.999970   -0.007674   -0.000495   -0.000772 Ang=  -0.89 deg.
 ExpMin= 1.61D-01 ExpMax= 5.48D+03 ExpMxC= 8.25D+02 IAcc=1 IRadAn=         1 AccDes= 0.00D+00
 Harris functional with IExCor=  205 and IRadAn=       1 diagonalized for initial guess.
 HarFok:  IExCor=  205 AccDes= 0.00D+00 IRadAn=         1 IDoV= 1 UseB2=F ITyADJ=14
 ICtDFT=  3500011 ScaDFX=  1.000000  1.000000  1.000000  1.000000
 FoFCou: FMM=F IPFlag=           0 FMFlag=      100000 FMFlg1=           0
         NFxFlg=           0 DoJE=T BraDBF=F KetDBF=T FulRan=T
         wScrn=  0.000000 ICntrl=     500 IOpCl=  0 I1Cent=   200000004 NGrid=           0
         NMat0=    1 NMatS0=      1 NMatT0=    0 NMatD0=    1 NMtDS0=    0 NMtDT0=    0
 Petite list used in FoFCou.
 Requested convergence on RMS density matrix=1.00D-08 within 128 cycles.
 Requested convergence on MAX density matrix=1.00D-06.
 Requested convergence on             energy=1.00D-06.
 No special actions if energy rises.
 Integral accuracy reduced to 1.0D-05 until final iterations.
