 Entering Gaussian System, Link 0=g09
 Initial command:
 /share/sw/gaussian/D.01/g09/l1.exe "/local/scratch/epluhar/Gau-77081.inp" -scrdir="/local/scratch/epluhar/"
 Entering Link 1 = /share/sw/gaussian/D.01/g09/l1.exe PID=     77082.
  
 Copyright (c) 1988,1990,1992,1993,1995,1998,2003,2009,2013,
            Gaussian, Inc.  All Rights Reserved.
  
 This is part of the Gaussian(R) 09 program.  It is based on
 the Gaussian(R) 03 system (copyright 2003, Gaussian, Inc.),
 the Gaussian(R) 98 system (copyright 1998, Gaussian, Inc.),
 the Gaussian(R) 94 system (copyright 1995, Gaussian, Inc.),
 the Gaussian 92(TM) system (copyright 1992, Gaussian, Inc.),
 the Gaussian 90(TM) system (copyright 1990, Gaussian, Inc.),
 the Gaussian 88(TM) system (copyright 1988, Gaussian, Inc.),
 the Gaussian 86(TM) system (copyright 1986, Carnegie Mellon
 University), and the Gaussian 82(TM) system (copyright 1983,
 Carnegie Mellon University). Gaussian is a federally registered
 trademark of Gaussian, Inc.
  
 This software contains proprietary and confidential information,
 including trade secrets, belonging to Gaussian, Inc.
  
 This software is provided under written license and may be
 used, copied, transmitted, or stored only in accord with that
 written license.
  
 The following legend is applicable only to US Government
 contracts under FAR:
  
                    RESTRICTED RIGHTS LEGEND
  
 Use, reproduction and disclosure by the US Government is
 subject to restrictions as set forth in subparagraphs (a)
 and (c) of the Commercial Computer Software - Restricted
 Rights clause in FAR 52.227-19.
  
 Gaussian, Inc.
 340 Quinnipiac St., Bldg. 40, Wallingford CT 06492
  
  
 ---------------------------------------------------------------
 Warning -- This program may not be used in any manner that
 competes with the business of Gaussian, Inc. or will provide
 assistance to any competitor of Gaussian, Inc.  The licensee
 of this program is prohibited from giving any competitor of
 Gaussian, Inc. access to this program.  By using this program,
 the user acknowledges that Gaussian, Inc. is engaged in the
 business of creating and licensing software in the field of
 computational chemistry and represents and warrants to the
 licensee that it is not a competitor of Gaussian, Inc. and that
 it will not use this program in any manner prohibited above.
 ---------------------------------------------------------------
  

 Cite this work as:
 Gaussian 09, Revision D.01,
 M. J. Frisch, G. W. Trucks, H. B. Schlegel, G. E. Scuseria, 
 M. A. Robb, J. R. Cheeseman, G. Scalmani, V. Barone, B. Mennucci, 
 G. A. Petersson, H. Nakatsuji, M. Caricato, X. Li, H. P. Hratchian, 
 A. F. Izmaylov, J. Bloino, G. Zheng, J. L. Sonnenberg, M. Hada, 
 M. Ehara, K. Toyota, R. Fukuda, J. Hasegawa, M. Ishida, T. Nakajima, 
 Y. Honda, O. Kitao, H. Nakai, T. Vreven, J. A. Montgomery, Jr., 
 J. E. Peralta, F. Ogliaro, M. Bearpark, J. J. Heyd, E. Brothers, 
 K. N. Kudin, V. N. Staroverov, T. Keith, R. Kobayashi, J. Normand, 
 K. Raghavachari, A. Rendell, J. C. Burant, S. S. Iyengar, J. Tomasi, 
 M. Cossi, N. Rega, J. M. Millam, M. Klene, J. E. Knox, J. B. Cross, 
 V. Bakken, C. Adamo, J. Jaramillo, R. Gomperts, R. E. Stratmann, 
 O. Yazyev, A. J. Austin, R. Cammi, C. Pomelli, J. W. Ochterski, 
 R. L. Martin, K. Morokuma, V. G. Zakrzewski, G. A. Voth, 
 P. Salvador, J. J. Dannenberg, S. Dapprich, A. D. Daniels, 
 O. Farkas, J. B. Foresman, J. V. Ortiz, J. Cioslowski, 
 and D. J. Fox, Gaussian, Inc., Wallingford CT, 2013.
 
 ******************************************
 Gaussian 09:  ES64L-G09RevD.01 24-Apr-2013
                26-Sep-2016 
 ******************************************
 %mem=6GB
 %nprocshared=8
 Will use up to    8 processors via shared memory.
 %chk=ang-HNC
 ------------------------------------------------
 # opt=(modredundant,tight) RHF/6-31g* gfp scf=qc
 ------------------------------------------------
 1/7=10,18=120,19=15,38=1/1,3;
 2/9=110,12=2,17=6,18=5,40=1/2;
 3/5=1,6=6,7=1,11=1,16=1,24=100,25=1,30=1,71=1,116=1/1,2,3;
 4//1;
 5/5=2,8=3,38=5/8;
 6/7=2,8=2,9=2,10=2,28=1/1;
 7//1,2,3,16;
 1/7=10,18=20,19=15/3(2);
 2/9=110/2;
 99//99;
 2/9=110/2;
 3/5=1,6=6,7=1,11=1,16=1,25=1,30=1,71=1,116=1/1,2,3;
 4/5=5,16=3,69=1/1;
 5/5=2,8=3,38=5/8;
 7//1,2,3,16;
 1/7=10,18=20,19=15/3(-5);
 2/9=110/2;
 6/7=2,8=2,9=2,10=2,19=2,28=1/1;
 99/9=1/99;
 -------
 HNC-HCN
 -------
 Symbolic Z-matrix:
 Charge =  0 Multiplicity = 1
 N
 C                    1    B1
 H                    1    B2       2    A1
       Variables:
  B1                    1.                       
  B2                    1.                       
  A1                  175.                       
 
 The following ModRedundant input section has been read:
 A       1       2       3 S   8 -10.00                                        
 

 GradGradGradGradGradGradGradGradGradGradGradGradGradGradGradGradGradGrad
 Berny optimization.
 Initialization pass.
                           ----------------------------
                           !    Initial Parameters    !
                           ! (Angstroms and Degrees)  !
 --------------------------                            --------------------------
 ! Name  Definition              Value          Derivative Info.                !
 --------------------------------------------------------------------------------
 ! R1    R(1,2)                  1.0            estimate D2E/DX2                !
 ! R2    R(1,3)                  1.0            estimate D2E/DX2                !
 ! A1    A(1,2,3)                2.5            Scan                            !
 ! A2    L(2,1,3,-2,-1)        185.0            estimate D2E/DX2                !
 ! A3    L(2,1,3,-1,-2)        180.0            estimate D2E/DX2                !
 --------------------------------------------------------------------------------
 Trust Radius=3.00D-01 FncErr=1.00D-07 GrdErr=1.00D-07
 Number of optimizations in scan=   9
 Number of steps in this run=     20 maximum allowed number of steps=    100.
 GradGradGradGradGradGradGradGradGradGradGradGradGradGradGradGradGradGrad

                          Input orientation:                          
 ---------------------------------------------------------------------
 Center     Atomic      Atomic             Coordinates (Angstroms)
 Number     Number       Type             X           Y           Z
 ---------------------------------------------------------------------
      1          7           0        0.000000    0.000000    0.000000
      2          6           0        0.000000    0.000000    1.000000
      3          1           0        0.087156    0.000000   -0.996195
 ---------------------------------------------------------------------
                    Distance matrix (angstroms):
                    1          2          3
     1  N    0.000000
     2  C    1.000000   0.000000
     3  H    1.000000   1.998096   0.000000
 Stoichiometry    CHN
 Framework group  CS[SG(CHN)]
 Deg. of freedom     3
 Full point group                 CS      NOp   2
 Largest Abelian subgroup         CS      NOp   2
 Largest concise Abelian subgroup C1      NOp   1
                         Standard orientation:                         
 ---------------------------------------------------------------------
 Center     Atomic      Atomic             Coordinates (Angstroms)
 Number     Number       Type             X           Y           Z
 ---------------------------------------------------------------------
      1          7           0        0.006225    0.357415    0.000000
      2          6           0        0.006225   -0.642585    0.000000
      3          1           0       -0.080930    1.353609    0.000000
 ---------------------------------------------------------------------
 Rotational constants (GHZ):  90468.1664201     59.2783154     59.2394994
 Standard basis: 6-31G(d) (6D, 7F)
 AO basis set (Overlap normalization):
 Atom N1       Shell     1 S   6     bf    1 -     1          0.011764320336          0.675415831635          0.000000000000
      0.4173511460D+04  0.1834772160D-02
      0.6274579110D+03  0.1399462700D-01
      0.1429020930D+03  0.6858655181D-01
      0.4023432930D+02  0.2322408730D+00
      0.1282021290D+02  0.4690699481D+00
      0.4390437010D+01  0.3604551991D+00
 Atom N1       Shell     2 SP   3    bf    2 -     5          0.011764320336          0.675415831635          0.000000000000
      0.1162636186D+02 -0.1149611817D+00  0.6757974388D-01
      0.2716279807D+01 -0.1691174786D+00  0.3239072959D+00
      0.7722183966D+00  0.1145851947D+01  0.7408951398D+00
 Atom N1       Shell     3 SP   1    bf    6 -     9          0.011764320336          0.675415831635          0.000000000000
      0.2120314975D+00  0.1000000000D+01  0.1000000000D+01
 Atom N1       Shell     4 D   1     bf   10 -    15          0.011764320336          0.675415831635          0.000000000000
      0.8000000000D+00  0.1000000000D+01
 Atom C2       Shell     5 S   6     bf   16 -    16          0.011764320336         -1.214310301251          0.000000000000
      0.3047524880D+04  0.1834737132D-02
      0.4573695180D+03  0.1403732281D-01
      0.1039486850D+03  0.6884262226D-01
      0.2921015530D+02  0.2321844432D+00
      0.9286662960D+01  0.4679413484D+00
      0.3163926960D+01  0.3623119853D+00
 Atom C2       Shell     6 SP   3    bf   17 -    20          0.011764320336         -1.214310301251          0.000000000000
      0.7868272350D+01 -0.1193324198D+00  0.6899906659D-01
      0.1881288540D+01 -0.1608541517D+00  0.3164239610D+00
      0.5442492580D+00  0.1143456438D+01  0.7443082909D+00
 Atom C2       Shell     7 SP   1    bf   21 -    24          0.011764320336         -1.214310301251          0.000000000000
      0.1687144782D+00  0.1000000000D+01  0.1000000000D+01
 Atom C2       Shell     8 D   1     bf   25 -    30          0.011764320336         -1.214310301251          0.000000000000
      0.8000000000D+00  0.1000000000D+01
 Atom H3       Shell     9 S   3     bf   31 -    31         -0.152936164366          2.557950986061          0.000000000000
      0.1873113696D+02  0.3349460434D-01
      0.2825394365D+01  0.2347269535D+00
      0.6401216923D+00  0.8137573261D+00
 Atom H3       Shell    10 S   1     bf   32 -    32         -0.152936164366          2.557950986061          0.000000000000
      0.1612777588D+00  0.1000000000D+01
 There are    24 symmetry adapted cartesian basis functions of A'  symmetry.
 There are     8 symmetry adapted cartesian basis functions of A"  symmetry.
 There are    24 symmetry adapted basis functions of A'  symmetry.
 There are     8 symmetry adapted basis functions of A"  symmetry.
    32 basis functions,    60 primitive gaussians,    32 cartesian basis functions
     7 alpha electrons        7 beta electrons
       nuclear repulsion energy        27.5187272645 Hartrees.
 NAtoms=    3 NActive=    3 NUniq=    3 SFac= 1.00D+00 NAtFMM=   60 NAOKFM=F Big=F
 Integral buffers will be    131072 words long.
 Raffenetti 1 integral format.
 Two-electron integral symmetry is turned on.
 One-electron integrals computed using PRISM.
 NBasis=    32 RedAO= T EigKep=  4.12D-03  NBF=    24     8
 NBsUse=    32 1.00D-06 EigRej= -1.00D+00 NBFU=    24     8
 ExpMin= 1.61D-01 ExpMax= 4.17D+03 ExpMxC= 6.27D+02 IAcc=1 IRadAn=         1 AccDes= 0.00D+00
 Harris functional with IExCor=  205 and IRadAn=       1 diagonalized for initial guess.
 HarFok:  IExCor=  205 AccDes= 0.00D+00 IRadAn=         1 IDoV= 1 UseB2=F ITyADJ=14
 ICtDFT=  3500011 ScaDFX=  1.000000  1.000000  1.000000  1.000000
 FoFCou: FMM=F IPFlag=           0 FMFlag=      100000 FMFlg1=           0
         NFxFlg=           0 DoJE=T BraDBF=F KetDBF=T FulRan=T
         wScrn=  0.000000 ICntrl=     500 IOpCl=  0 I1Cent=   200000004 NGrid=           0
         NMat0=    1 NMatS0=      1 NMatT0=    0 NMatD0=    1 NMtDS0=    0 NMtDT0=    0
 Petite list used in FoFCou.
 Initial guess orbital symmetries:
       Occupied  (A') (A') (A') (A') (A") (A') (A')
       Virtual   (A') (A") (A') (A') (A") (A') (A') (A') (A') (A")
                 (A') (A') (A') (A") (A') (A") (A') (A") (A') (A')
                 (A") (A') (A') (A') (A')
 The electronic state of the initial guess is 1-A'.
 Keep R1 ints in memory in symmetry-blocked form, NReq=978837.
 Gradient too large for Newton-Raphson -- use scaled steepest descent instead.
 Gradient too large for Newton-Raphson -- use scaled steepest descent instead.
 Gradient too large for Newton-Raphson -- use scaled steepest descent instead.
     Minimum is close to point  2 DX=  5.85D-02 DF= -3.38D-07 DXR=  6.10D-02 DFR=  3.74D-03 which will be used.
 LinEq1:  Iter=  0 NonCon=     1 RMS=1.45D-04 Max=8.71D-04 NDo=     1
 AX will form     1 AO Fock derivatives at one time.
 LinEq1:  Iter=  1 NonCon=     1 RMS=3.38D-05 Max=2.03D-04 NDo=     1
 LinEq1:  Iter=  2 NonCon=     1 RMS=7.01D-06 Max=4.88D-05 NDo=     1
 LinEq1:  Iter=  3 NonCon=     1 RMS=3.05D-06 Max=1.91D-05 NDo=     1
 LinEq1:  Iter=  4 NonCon=     1 RMS=6.13D-07 Max=4.43D-06 NDo=     1
 LinEq1:  Iter=  5 NonCon=     1 RMS=4.79D-08 Max=2.77D-07 NDo=     1
 LinEq1:  Iter=  6 NonCon=     1 RMS=6.23D-09 Max=2.91D-08 NDo=     1
 LinEq1:  Iter=  7 NonCon=     0 RMS=1.09D-09 Max=6.83D-09 NDo=     1
 Linear equations converged to 1.871D-09 1.871D-08 after     7 iterations.
     Minimum is close to point  2 DX=  5.91D-04 DF= -3.95D-12 DXR=  5.91D-04 DFR=  3.49D-07 which will be used.
 LinEq1:  Iter=  0 NonCon=     1 RMS=1.20D-07 Max=8.17D-07 NDo=     1
 LinEq1:  Iter=  1 NonCon=     1 RMS=3.41D-08 Max=2.50D-07 NDo=     1
 LinEq1:  Iter=  2 NonCon=     1 RMS=9.83D-09 Max=5.36D-08 NDo=     1
 LinEq1:  Iter=  3 NonCon=     1 RMS=2.31D-09 Max=1.36D-08 NDo=     1
 LinEq1:  Iter=  4 NonCon=     1 RMS=2.38D-10 Max=1.10D-09 NDo=     1
 LinEq1:  Iter=  5 NonCon=     1 RMS=4.82D-11 Max=3.11D-10 NDo=     1
 LinEq1:  Iter=  6 NonCon=     0 RMS=1.09D-11 Max=5.01D-11 NDo=     1
 Linear equations converged to 2.653D-11 2.653D-10 after     6 iterations.
 SCF Done:  E(RHF) =  -92.7733846586     a.u. after    6 cycles
            Convg  =    0.7648D-09                    28 Fock formations.
              S**2 =  0.0000                  -V/T =  1.9895

 **********************************************************************

            Population analysis using the SCF density.

 **********************************************************************

 Orbital symmetries:
       Occupied  (A') (A') (A') (A') (A') (A") (A')
       Virtual   (A') (A") (A') (A') (A') (A") (A') (A') (A') (A")
                 (A') (A') (A') (A") (A') (A") (A') (A") (A') (A')
                 (A") (A') (A') (A') (A')
 The electronic state is 1-A'.
 Alpha  occ. eigenvalues --  -15.58912 -11.21853  -1.33552  -0.88129  -0.57395
 Alpha  occ. eigenvalues --   -0.57385  -0.44289
 Alpha virt. eigenvalues --    0.21083   0.27472   0.27482   0.47062   0.74233
 Alpha virt. eigenvalues --    0.74265   0.80568   0.85376   1.03241   1.03286
 Alpha virt. eigenvalues --    1.20441   1.64692   1.73345   1.73353   1.80753
 Alpha virt. eigenvalues --    1.97803   2.00815   2.36703   2.36706   3.02081
 Alpha virt. eigenvalues --    3.06577   3.07659   3.95945   4.49131   4.60154
          Condensed to atoms (all electrons):
               1          2          3
     1  N    6.330835   0.720040   0.317398
     2  C    0.720040   5.361423  -0.032317
     3  H    0.317398  -0.032317   0.297499
 Mulliken charges:
               1
     1  N   -0.368273
     2  C   -0.049147
     3  H    0.417420
 Sum of Mulliken charges =   0.00000
 Mulliken charges with hydrogens summed into heavy atoms:
               1
     1  N    0.049147
     2  C   -0.049147
 Electronic spatial extent (au):  <R**2>=             42.5698
 Charge=              0.0000 electrons
 Dipole moment (field-independent basis, Debye):
    X=             -0.1777    Y=              3.4641    Z=              0.0000  Tot=              3.4687
 Quadrupole moment (field-independent basis, Debye-Ang):
   XX=            -11.0888   YY=            -10.0342   ZZ=            -11.1051
   XY=             -0.2300   XZ=              0.0000   YZ=              0.0000
 Traceless Quadrupole moment (field-independent basis, Debye-Ang):
   XX=             -0.3461   YY=              0.7085   ZZ=             -0.3624
   XY=             -0.2300   XZ=              0.0000   YZ=              0.0000
 Octapole moment (field-independent basis, Debye-Ang**2):
  XXX=             -0.1461  YYY=             12.8997  ZZZ=              0.0000  XYY=             -0.4037
  XXY=              1.2413  XXZ=              0.0000  XZZ=             -0.0483  YZZ=              1.2227
  YYZ=              0.0000  XYZ=              0.0000
 Hexadecapole moment (field-independent basis, Debye-Ang**3):
 XXXX=             -9.6993 YYYY=            -32.2912 ZZZZ=             -9.6856 XXXY=              0.1380
 XXXZ=              0.0000 YYYX=             -0.3032 YYYZ=              0.0000 ZZZX=              0.0000
 ZZZY=              0.0000 XXYY=             -7.5073 XXZZ=             -3.2308 YYZZ=             -7.5348
 XXYZ=              0.0000 YYXZ=              0.0000 ZZXY=              0.0466
 N-N= 2.751872726451D+01 E-N=-2.731079904376D+02  KE= 9.375405239058D+01
 Symmetry A'   KE= 9.069117803821D+01
 Symmetry A"   KE= 3.062874352371D+00
 Calling FoFJK, ICntrl=      2127 FMM=F ISym2X=1 I1Cent= 0 IOpClX= 0 NMat=1 NMatS=1 NMatT=0.
 ***** Axes restored to original set *****
 -------------------------------------------------------------------
 Center     Atomic                   Forces (Hartrees/Bohr)
 Number     Number              X              Y              Z
 -------------------------------------------------------------------
      1        7           0.008550370    0.000000000   -0.676399724
      2        6          -0.003412950    0.000000000    0.656837951
      3        1          -0.005137420    0.000000000    0.019561773
 -------------------------------------------------------------------
 Cartesian Forces:  Max     0.676399724 RMS     0.314368237

 GradGradGradGradGradGradGradGradGradGradGradGradGradGradGradGradGradGrad
 Berny optimization.
 FormGI is forming the generalized inverse of G from B-inverse, IUseBI=4.
 Internal  Forces:  Max     0.339887943 RMS     0.214389199
 Search for a local minimum.
 Step number   1 out of a maximum of   20 on scan point     1 out of     9
 All quantities printed in internal units (Hartrees-Bohrs-Radians)
 Mixed Optimization -- RFO/linear search
 Second derivative matrix not updated -- first step.
 The second derivative matrix:
                          R1        R2        A1        A2        A3
           R1           3.32740
           R2           0.00000   0.47688
           A1           0.00000   0.00000   0.16000
           A2           0.00000   0.00000   0.00000   0.01028
           A3           0.00000   0.00000   0.00000   0.00000   0.01028
 ITU=  0
     Eigenvalues ---    0.01028   1.907721000.000001000.000001000.00000
 RFO step:  Lambda=-1.13642751D-01 EMin= 1.02838210D-02
 Linear search not attempted -- first point.
 Iteration  1 RMS(Cart)=  0.06128588 RMS(Int)=  0.00023817
 Iteration  2 RMS(Cart)=  0.00013408 RMS(Int)=  0.00013958
 Iteration  3 RMS(Cart)=  0.00000002 RMS(Int)=  0.00013958
 Iteration  1 RMS(Cart)=  0.00003672 RMS(Int)=  0.00011556
 Iteration  2 RMS(Cart)=  0.00003040 RMS(Int)=  0.00012351
 Iteration  3 RMS(Cart)=  0.00002517 RMS(Int)=  0.00014039
 Iteration  4 RMS(Cart)=  0.00002084 RMS(Int)=  0.00015928
 Iteration  5 RMS(Cart)=  0.00001725 RMS(Int)=  0.00017723
 Iteration  6 RMS(Cart)=  0.00001428 RMS(Int)=  0.00019323
 Iteration  7 RMS(Cart)=  0.00001182 RMS(Int)=  0.00020708
 Iteration  8 RMS(Cart)=  0.00000979 RMS(Int)=  0.00021887
 Iteration  9 RMS(Cart)=  0.00000810 RMS(Int)=  0.00022883
 Iteration 10 RMS(Cart)=  0.00000671 RMS(Int)=  0.00023719
 Iteration 11 RMS(Cart)=  0.00000555 RMS(Int)=  0.00024418
 Iteration 12 RMS(Cart)=  0.00000460 RMS(Int)=  0.00025002
 Iteration 13 RMS(Cart)=  0.00000381 RMS(Int)=  0.00025487
 Iteration 14 RMS(Cart)=  0.00000315 RMS(Int)=  0.00025891
 Iteration 15 RMS(Cart)=  0.00000261 RMS(Int)=  0.00026227
 Iteration 16 RMS(Cart)=  0.00000216 RMS(Int)=  0.00026505
 Iteration 17 RMS(Cart)=  0.00000179 RMS(Int)=  0.00026737
 Iteration 18 RMS(Cart)=  0.00000148 RMS(Int)=  0.00026928
 Iteration 19 RMS(Cart)=  0.00000123 RMS(Int)=  0.00027087
 Iteration 20 RMS(Cart)=  0.00000102 RMS(Int)=  0.00027219
 Iteration 21 RMS(Cart)=  0.00000084 RMS(Int)=  0.00027328
 ClnCor:  largest displacement from symmetrization is 2.78D-17 for atom     1.
 Variable       Old X    -DE/DX   Delta X   Delta X   Delta X     New X
                                 (Linear)    (Quad)   (Total)
    R1        1.88973   0.33989   0.00000   0.16802   0.16800   2.05773
    R2        1.88973  -0.33714   0.00000  -0.16712  -0.16710   1.72262
    A1        0.04363   0.00448   0.00000   0.00000  -0.00001   0.04363
    A2        3.22886   0.02459   0.00000   0.00774   0.00848   3.23734
    A3        3.14159   0.00000   0.00000   0.00000   0.00000   3.14159
         Item               Value     Threshold  Converged?
 Maximum Force            0.339627     0.000015     NO 
 RMS     Force            0.239642     0.000010     NO 
 Maximum Displacement     0.111863     0.000060     NO 
 RMS     Displacement     0.061290     0.000040     NO 
 Predicted change in Energy=-6.003238D-02
 GradGradGradGradGradGradGradGradGradGradGradGradGradGradGradGradGradGrad

                          Input orientation:                          
 ---------------------------------------------------------------------
 Center     Atomic      Atomic             Coordinates (Angstroms)
 Number     Number       Type             X           Y           Z
 ---------------------------------------------------------------------
      1          7           0       -0.000076    0.000000   -0.059196
      2          6           0        0.001322    0.000000    1.029705
      3          1           0        0.085909    0.000000   -0.966704
 ---------------------------------------------------------------------
                    Distance matrix (angstroms):
                    1          2          3
     1  N    0.000000
     2  C    1.088902   0.000000
     3  H    0.911573   1.998201   0.000000
 Stoichiometry    CHN
 Framework group  CS[SG(CHN)]
 Deg. of freedom     3
 Full point group                 CS      NOp   2
 Largest Abelian subgroup         CS      NOp   2
 Largest concise Abelian subgroup C1      NOp   1
                         Standard orientation:                         
 ---------------------------------------------------------------------
 Center     Atomic      Atomic             Coordinates (Angstroms)
 Number     Number       Type             X           Y           Z
 ---------------------------------------------------------------------
      1          7           0        0.006225    0.401858    0.000000
      2          6           0        0.006225   -0.687044    0.000000
      3          1           0       -0.080925    1.309256    0.000000
 ---------------------------------------------------------------------
 Rotational constants (GHZ):  85858.9982991     52.6853701     52.6530608
 Standard basis: 6-31G(d) (6D, 7F)
 There are    24 symmetry adapted cartesian basis functions of A'  symmetry.
 There are     8 symmetry adapted cartesian basis functions of A"  symmetry.
 There are    24 symmetry adapted basis functions of A'  symmetry.
 There are     8 symmetry adapted basis functions of A"  symmetry.
    32 basis functions,    60 primitive gaussians,    32 cartesian basis functions
     7 alpha electrons        7 beta electrons
       nuclear repulsion energy        26.0634088545 Hartrees.
 NAtoms=    3 NActive=    3 NUniq=    3 SFac= 1.00D+00 NAtFMM=   60 NAOKFM=F Big=F
 Integral buffers will be    131072 words long.
 Raffenetti 1 integral format.
 Two-electron integral symmetry is turned on.
 One-electron integrals computed using PRISM.
 NBasis=    32 RedAO= T EigKep=  5.80D-03  NBF=    24     8
 NBsUse=    32 1.00D-06 EigRej= -1.00D+00 NBFU=    24     8
 Initial guess from the checkpoint file:  "ang-HNC.chk"
 B after Tr=     0.000000    0.000000    0.000000
         Rot=    1.000000    0.000000    0.000000   -0.000355 Ang=  -0.04 deg.
 Initial guess orbital symmetries:
       Occupied  (A') (A') (A') (A') (A') (A") (A')
       Virtual   (A') (A') (A') (A') (A') (A') (A') (A') (A') (A')
                 (A') (A') (A') (A') (A') (A') (A') (A') (A") (A")
                 (A") (A") (A") (A") (A")
 ExpMin= 1.61D-01 ExpMax= 4.17D+03 ExpMxC= 6.27D+02 IAcc=1 IRadAn=         1 AccDes= 0.00D+00
 Harris functional with IExCor=  205 and IRadAn=       1 diagonalized for initial guess.
 HarFok:  IExCor=  205 AccDes= 0.00D+00 IRadAn=         1 IDoV= 1 UseB2=F ITyADJ=14
 ICtDFT=  3500011 ScaDFX=  1.000000  1.000000  1.000000  1.000000
 FoFCou: FMM=F IPFlag=           0 FMFlag=      100000 FMFlg1=           0
         NFxFlg=           0 DoJE=T BraDBF=F KetDBF=T FulRan=T
         wScrn=  0.000000 ICntrl=     500 IOpCl=  0 I1Cent=   200000004 NGrid=           0
         NMat0=    1 NMatS0=      1 NMatT0=    0 NMatD0=    1 NMtDS0=    0 NMtDT0=    0
 Petite list used in FoFCou.
 Keep R1 ints in memory in symmetry-blocked form, NReq=978764.
 Gradient too large for Newton-Raphson -- use scaled steepest descent instead.
     Accept linear search using points  3 and  4.
 Gradient too large for Newton-Raphson -- use scaled steepest descent instead.
     Minimum is close to point  3 DX=  6.71D-02 DF= -3.23D-06 DXR=  5.75D-02 DFR=  3.32D-03 which will be used.
 Gradient too large for Newton-Raphson -- use scaled steepest descent instead.
     Accept linear search using points  1 and  2.
 Gradient too large for Newton-Raphson -- use scaled steepest descent instead.
     Accept linear search using points  1 and  2.
 LinEq1:  Iter=  0 NonCon=     1 RMS=2.40D-04 Max=1.71D-03 NDo=     1
 AX will form     1 AO Fock derivatives at one time.
 LinEq1:  Iter=  1 NonCon=     1 RMS=6.16D-05 Max=4.50D-04 NDo=     1
 LinEq1:  Iter=  2 NonCon=     1 RMS=1.77D-05 Max=7.24D-05 NDo=     1
 LinEq1:  Iter=  3 NonCon=     1 RMS=3.56D-06 Max=2.03D-05 NDo=     1
 LinEq1:  Iter=  4 NonCon=     1 RMS=1.03D-06 Max=6.14D-06 NDo=     1
 LinEq1:  Iter=  5 NonCon=     1 RMS=2.21D-07 Max=1.39D-06 NDo=     1
 LinEq1:  Iter=  6 NonCon=     1 RMS=3.19D-08 Max=1.61D-07 NDo=     1
 LinEq1:  Iter=  7 NonCon=     1 RMS=6.58D-09 Max=3.70D-08 NDo=     1
 LinEq1:  Iter=  8 NonCon=     0 RMS=9.43D-10 Max=4.10D-09 NDo=     1
 Linear equations converged to 1.871D-09 1.871D-08 after     8 iterations.
     Minimum is close to point  2 DX=  5.18D-04 DF= -1.01D-11 DXR=  5.17D-04 DFR=  2.68D-07 which will be used.
 LinEq1:  Iter=  0 NonCon=     1 RMS=2.94D-07 Max=1.66D-06 NDo=     1
 LinEq1:  Iter=  1 NonCon=     1 RMS=1.02D-07 Max=5.16D-07 NDo=     1
 LinEq1:  Iter=  2 NonCon=     1 RMS=2.31D-08 Max=1.43D-07 NDo=     1
 LinEq1:  Iter=  3 NonCon=     1 RMS=3.24D-09 Max=1.61D-08 NDo=     1
 LinEq1:  Iter=  4 NonCon=     1 RMS=5.22D-10 Max=2.76D-09 NDo=     1
 LinEq1:  Iter=  5 NonCon=     1 RMS=8.25D-11 Max=5.26D-10 NDo=     1
 LinEq1:  Iter=  6 NonCon=     0 RMS=1.31D-11 Max=8.89D-11 NDo=     1
 Linear equations converged to 7.195D-11 7.195D-10 after     6 iterations.
 SCF Done:  E(RHF) =  -92.8367570302     a.u. after    7 cycles
            Convg  =    0.1251D-08                    29 Fock formations.
              S**2 =  0.0000                  -V/T =  1.9955
 Calling FoFJK, ICntrl=      2127 FMM=F ISym2X=1 I1Cent= 0 IOpClX= 0 NMat=1 NMatS=1 NMatT=0.
 ***** Axes restored to original set *****
 -------------------------------------------------------------------
 Center     Atomic                   Forces (Hartrees/Bohr)
 Number     Number              X              Y              Z
 -------------------------------------------------------------------
      1        7          -0.004481606    0.000000000   -0.105676528
      2        6          -0.002156007    0.000000000    0.206389989
      3        1           0.006637614    0.000000000   -0.100713461
 -------------------------------------------------------------------
 Cartesian Forces:  Max     0.206389989 RMS     0.084311821

 GradGradGradGradGradGradGradGradGradGradGradGradGradGradGradGradGradGrad
 Berny optimization.
 Using GEDIIS/GDIIS optimizer.
 FormGI is forming the generalized inverse of G from B-inverse, IUseBI=4.
 Internal  Forces:  Max     0.053447758 RMS     0.033806525
 Search for a local minimum.
 Step number   2 out of a maximum of   20 on scan point     1 out of     9
 All quantities printed in internal units (Hartrees-Bohrs-Radians)
 Mixed Optimization -- RFO/linear search
 Update second derivatives using D2CorX and points    1    2
 DE= -6.34D-02 DEPred=-6.00D-02 R= 1.06D+00
 TightC=F SS=  1.41D+00  RLast= 2.37D-01 DXNew= 5.0454D-01 7.1132D-01
 Trust test= 1.06D+00 RLast= 2.37D-01 DXMaxT set to 5.05D-01
 The second derivative matrix:
                          R1        R2        A1        A2        A3
           R1           1.26915
           R2          -0.43618   1.26498
           A1           0.00218  -0.00216   0.16001
           A2           0.03968  -0.03987   0.00010   0.01217
           A3           0.00000   0.00000   0.00000   0.00000   0.01028
 ITU=  1  0
 Use linear search instead of GDIIS.
     Eigenvalues ---    0.01028   1.705051000.000001000.000001000.00000
 RFO step:  Lambda= 0.00000000D+00 EMin= 1.02838210D-02
 Quartic linear search produced a step of  0.22446.
 Iteration  1 RMS(Cart)=  0.01375752 RMS(Int)=  0.00004423
 Iteration  2 RMS(Cart)=  0.00000943 RMS(Int)=  0.00004209
 Iteration  3 RMS(Cart)=  0.00000000 RMS(Int)=  0.00004209
 Iteration  1 RMS(Cart)=  0.00001174 RMS(Int)=  0.00003780
 Iteration  2 RMS(Cart)=  0.00000979 RMS(Int)=  0.00004033
 Iteration  3 RMS(Cart)=  0.00000817 RMS(Int)=  0.00004576
 Iteration  4 RMS(Cart)=  0.00000681 RMS(Int)=  0.00005191
 Iteration  5 RMS(Cart)=  0.00000568 RMS(Int)=  0.00005781
 Iteration  6 RMS(Cart)=  0.00000474 RMS(Int)=  0.00006311
 Iteration  7 RMS(Cart)=  0.00000395 RMS(Int)=  0.00006774
 Iteration  8 RMS(Cart)=  0.00000330 RMS(Int)=  0.00007172
 Iteration  9 RMS(Cart)=  0.00000275 RMS(Int)=  0.00007511
 Iteration 10 RMS(Cart)=  0.00000229 RMS(Int)=  0.00007797
 Iteration 11 RMS(Cart)=  0.00000191 RMS(Int)=  0.00008039
 Iteration 12 RMS(Cart)=  0.00000160 RMS(Int)=  0.00008242
 Iteration 13 RMS(Cart)=  0.00000133 RMS(Int)=  0.00008412
 Iteration 14 RMS(Cart)=  0.00000111 RMS(Int)=  0.00008555
 Iteration 15 RMS(Cart)=  0.00000093 RMS(Int)=  0.00008674
 ClnCor:  largest displacement from symmetrization is 2.22D-16 for atom     3.
 Variable       Old X    -DE/DX   Delta X   Delta X   Delta X     New X
                                 (Linear)    (Quad)   (Total)
    R1        2.05773   0.05345   0.03771   0.00000   0.03770   2.09543
    R2        1.72262  -0.05214  -0.03751   0.00000  -0.03750   1.68512
    A1        0.04363   0.00375   0.00000   0.00000   0.00000   0.04363
    A2        3.23734   0.01116   0.00190   0.00000   0.00214   3.23948
    A3        3.14159   0.00000   0.00000   0.00000   0.00000   3.14159
         Item               Value     Threshold  Converged?
 Maximum Force            0.053198     0.000015     NO 
 RMS     Force            0.037524     0.000010     NO 
 Maximum Displacement     0.025112     0.000060     NO 
 RMS     Displacement     0.013759     0.000040     NO 
 Predicted change in Energy=-1.579769D-03
 GradGradGradGradGradGradGradGradGradGradGradGradGradGradGradGradGradGrad

                          Input orientation:                          
 ---------------------------------------------------------------------
 Center     Atomic      Atomic             Coordinates (Angstroms)
 Number     Number       Type             X           Y           Z
 ---------------------------------------------------------------------
      1          7           0       -0.000114    0.000000   -0.072484
      2          6           0        0.001629    0.000000    1.036369
      3          1           0        0.085641    0.000000   -0.960079
 ---------------------------------------------------------------------
                    Distance matrix (angstroms):
                    1          2          3
     1  N    0.000000
     2  C    1.108854   0.000000
     3  H    0.891728   1.998215   0.000000
 Stoichiometry    CHN
 Framework group  CS[SG(CHN)]
 Deg. of freedom     3
 Full point group                 CS      NOp   2
 Largest Abelian subgroup         CS      NOp   2
 Largest concise Abelian subgroup C1      NOp   1
                         Standard orientation:                         
 ---------------------------------------------------------------------
 Center     Atomic      Atomic             Coordinates (Angstroms)
 Number     Number       Type             X           Y           Z
 ---------------------------------------------------------------------
      1          7           0        0.006225    0.411833    0.000000
      2          6           0        0.006225   -0.697021    0.000000
      3          1           0       -0.080924    1.299293    0.000000
 ---------------------------------------------------------------------
 Rotational constants (GHZ):  84991.4790896     51.3259462     51.2949694
 Standard basis: 6-31G(d) (6D, 7F)
 There are    24 symmetry adapted cartesian basis functions of A'  symmetry.
 There are     8 symmetry adapted cartesian basis functions of A"  symmetry.
 There are    24 symmetry adapted basis functions of A'  symmetry.
 There are     8 symmetry adapted basis functions of A"  symmetry.
    32 basis functions,    60 primitive gaussians,    32 cartesian basis functions
     7 alpha electrons        7 beta electrons
       nuclear repulsion energy        25.7865625228 Hartrees.
 NAtoms=    3 NActive=    3 NUniq=    3 SFac= 1.00D+00 NAtFMM=   60 NAOKFM=F Big=F
 Integral buffers will be    131072 words long.
 Raffenetti 1 integral format.
 Two-electron integral symmetry is turned on.
 One-electron integrals computed using PRISM.
 NBasis=    32 RedAO= T EigKep=  6.26D-03  NBF=    24     8
 NBsUse=    32 1.00D-06 EigRej= -1.00D+00 NBFU=    24     8
 Initial guess from the checkpoint file:  "ang-HNC.chk"
 B after Tr=     0.000000    0.000000    0.000000
         Rot=    1.000000    0.000000    0.000000   -0.000076 Ang=  -0.01 deg.
 Initial guess orbital symmetries:
       Occupied  (A') (A') (A') (A') (A') (A") (A')
       Virtual   (A') (A') (A') (A') (A') (A') (A') (A') (A') (A')
                 (A') (A') (A') (A') (A') (A') (A') (A') (A") (A")
                 (A") (A") (A") (A") (A")
 ExpMin= 1.61D-01 ExpMax= 4.17D+03 ExpMxC= 6.27D+02 IAcc=1 IRadAn=         1 AccDes= 0.00D+00
 Harris functional with IExCor=  205 and IRadAn=       1 diagonalized for initial guess.
 HarFok:  IExCor=  205 AccDes= 0.00D+00 IRadAn=         1 IDoV= 1 UseB2=F ITyADJ=14
 ICtDFT=  3500011 ScaDFX=  1.000000  1.000000  1.000000  1.000000
 FoFCou: FMM=F IPFlag=           0 FMFlag=      100000 FMFlg1=           0
         NFxFlg=           0 DoJE=T BraDBF=F KetDBF=T FulRan=T
         wScrn=  0.000000 ICntrl=     500 IOpCl=  0 I1Cent=   200000004 NGrid=           0
         NMat0=    1 NMatS0=      1 NMatT0=    0 NMatD0=    1 NMtDS0=    0 NMtDT0=    0
 Petite list used in FoFCou.
 Keep R1 ints in memory in symmetry-blocked form, NReq=978750.
 Gradient too large for Newton-Raphson -- use scaled steepest descent instead.
     Accept linear search using points  3 and  4.
 Gradient too large for Newton-Raphson -- use scaled steepest descent instead.
     Minimum is close to point  3 DX=  4.08D-02 DF= -6.13D-08 DXR=  3.58D-02 DFR=  1.28D-03 which will be used.
 LinEq1:  Iter=  0 NonCon=     1 RMS=1.63D-04 Max=9.95D-04 NDo=     1
 AX will form     1 AO Fock derivatives at one time.
 LinEq1:  Iter=  1 NonCon=     1 RMS=5.87D-05 Max=4.35D-04 NDo=     1
 LinEq1:  Iter=  2 NonCon=     1 RMS=1.38D-05 Max=6.95D-05 NDo=     1
 LinEq1:  Iter=  3 NonCon=     1 RMS=3.45D-06 Max=1.79D-05 NDo=     1
 LinEq1:  Iter=  4 NonCon=     1 RMS=9.47D-07 Max=6.15D-06 NDo=     1
 LinEq1:  Iter=  5 NonCon=     1 RMS=1.62D-07 Max=7.24D-07 NDo=     1
                                                                                                                                                                                                                                                                                                                                                                                                                                                                                                                                                                                                                                                                                                                                                                                                                                                                                                                                                                                                                                                                                                                                                                                                                                                                                                                                                                                                                                                                                                                                                                                                                                                                                                                                                                                                                                                                                                                                                                                                                                                                                                                                                                                                                                                                                                                                                                                                                                                                                                                                                                                                                                                                                                                                                                                                                                                                                                                                                                                                                                                                                                                                                                                                                                                                                                                                                                                                                                                                                                                                                                                                                                                                                                                                                                                                                                                                                                                                                                                                                                                                                                                                                                                                                                                                                                                                                                                                                                                                                                                                                                                                                                                                                                                                                                                                                                                                                                                                                                                                                                                                                                                                                                                                                                                                                                                                                                                                                                                                                                                                                                                                                                                                                                                                                                                                                                                                                                                                                                                                                                                                                                                                                                                                                                                                                                                                                                                                                                                                                                                                                                                                                                                                                                                                                                                                                                                                                                                                                                                                                                                                                                                                                                                                                                                                                                                                                                                                                                                                                                                                                                                                                                                                                                                                                                                                                                                                                                                                                                                                                                                                                                                                                                                                                                                                                                                                                                                                                                                                                                                                                                                                                                                                                                                                                                                                                                                                                                                                                                                                                                                                                                                                                                                                                                                                                                                                                                                                                                                                                                                                                                                                                                                                                                                                                                                                                                                                                                                                                                                                                                                                                                                                                                                                                                                                                                                                                                                                                                                                                                                                                                                                                                                                                                                                                                                                                                                                                                                                                                                                                                                                                                                                                                                                                                                                                                                                                                                                                                                                                                                                                                                                                                                                                                                                                                                                                                                                                                                                                                                                                                                                                                                                                                                                                                                                                                                                                                                                                                                                                                                                                                                                                                                                                                                                                                                                                                                                                                                                                                                                                                                                                                                                                                                                                                                                                                                                                                                                                                                                                                                                                                                                                                                                                                                                                                                                                                                                                                                                                                                                                                                                                                                                                                                                                                                                                                                                                                                                                                                                                                                                                                                                                                                                                                                                                                                                                                                                                                                                                                                                                                                                                                                                                                                                                                                                                                                                                                                                                                                                                                                                                                                                                                                                                                                                                                                                                                                                                                                                                                                                                                                                                                                                                                                                                                                                                                                                                                                                                                                                                                                                                                                                                                                                                                                                                                                                                                                                                                                                                                                                                                                                                                                                                                                                                                                                                                                                                                                                                                                                                                                                                                                                                                                                                                                                                                                                                                                                                                                                                                                                                                                                                                                                                                                                                                                                                                                                                                                                                                                                                                                                                                                                                                                                                                                                                                                                                                                                                                                                                                                                                                                                                                                                                                                                                                                                                                                                                                                                                                                                                                                                                                                                                                                                                                                                                                                                                                                                                                                                                                                                                                                                                                                                                                                                                                                                                                                                                                                                                                                                                                                                                                                                                                                                                                                                                                                                                                                                                                                                                                                                                                                                                                                                                                                                                                                                                                                                                                                                                                                                                                                                                                                                                                                                                                                                                                                                                                                                                                                                                                                                                                                                                                                                                                                                                                                                                                                                                                                                                                                                                                                                                                                                                                                                                                                                                                                                                                                                                                                                                                                                                                                                                                                                                                                                                                                                                                                                                                                                                                                                                                                                                                                                                                                                                                                                                                                                                                                                                                                                                                                                                                                                                                                                                                                                                                                                                                                                                                                                                                                                                                                                                                                                                                                                                                                                                                                                                                                                                                                                                                                                                                                                                                                                                                                                                                                                                                                                                                                                                                                                                                                                                                                                                                                                                                                                                                                                                                                                                                                                                                                                                                                                                                                                                                                                                                                                                                                                                                                                                                                                                                                                                                                                                                                                                                                                                                                                                                                                                                                                                                                                                                                                                                                                                                                                                                                                                                                                                                                                                                                                                                                                                                                                                                                                                                                                                                                                                                                                                                                                                                                                                                                                                                                                                                                                                                                                                                                                                                                                                                                                                                                                                                                                                                                                                                                                                                                                                                                                                                                                                                                                                                                                                                                                                                                                                                                                                                                                                                                                                                                                                                                                                                                                                                                                                                                                                                                                                                                                                                                                                                                                                                                                                                                                                                                                                                                                                                                                                                                                                                                                                                                                                                                                                                                                                                                                                                                                                                                                                                                                                                                                                                                                                                                                                                                                                                                                                                                                                                                                                                                                                                                                                                                                                                                                                                                                                                                                                                                                                                                                                                                                                                                                                                                                                                                                                                                                                                                                                                                                                                                                                                                                                                                                                                                                                                                                                                                                                                                                                                                                                                                                                                                                                                                                                                                                                                                                                                                                                                                                                                                                                                                                                                                                                                                                                                                                                                                                                                                                                                                                                                                                                                                                                                                                                                                                                                                                                                                                                                                                                                                                                                                                                                                                                                                                                                                                                                                                                                                                                                                                                                                                                                                                                                                                                                                                                                                                                                                                                                                                                                                                                                                                                                                                                                                                                                                                                                                                                                                                                                                                                                                                                                                                                                                                                                                                                                                                                                                                                                                                                                                                                                                                                                                                                                                                                                                                                                                                                                                                                                                                                                                                                                                                                                                                                                                                                                                                                                                                                                                                                                                                                                                                                                                                                                                                                                                                                                                                                                                                                                                                                                                                                                                                                                                                                                                                                                                                                                                                                                                                                                                                                                                                                                                                                                                                                                                                                                                                                                                                                                                                                                                                                                                                                                                                                                                                                                                                                                                                                                                                                                                                                                                                                                                                                                                                                                                                                                                                                                                                                                                                                                                                                                                                                                                                                                                                                                                                                                                                                                                                                                                                                                                                                                                                                                                                                                                                                                                                                                                                                                                                                                                                                                                                                                                                                                                                                                                                                                                                                                                                                                                                                                                                                                                                                                                                                                                                                                                                                                                                                                                                                                                                                                                                                                                                                                                                                                                                                                                                                                                                                                                                                                                                                                                                                                                                                                                                                                                                                                                                                                                                                                                                                                                                                                                                                                                                                                                                                                                                                                                                                                                                                                                                                                                                                                                                                                                                                                                                                                                                                                                                                                                                                                                                                                                                                                                                                                                                                                                                                                                                                                                                                                                                                                                                                                                                                                                                                                                                                                                                                                                                                                                                                                                                                                                                                                                                                                                                                                                                                                                                                                                                                                                                                                                           
[...]
                                                                                                                                                                                                                                                                                                                                                                                                                                                                                                                                                                                                                                                                                                                                                                                                                                                                                                                                                                                                                                                                                                                                                                                                                                                                                                                                                                                                                                                                                                                                                                                                                                                                                                                                                                                                                                                                                                                                                                                                                                                                                                                                                                                                                                                                                                                                                                                                                                                                                                                                                                                                                                                                                                                                                                                                                                                                                                                                                                                                                                                                                                                                                                                                                                                                                                                                                                                                                                                                                                                                                                                                                                                                                                                                                                                                                                                                                                                                                                                                                                                                                                                                                                                                                                                                                                                                                                                                                                                                                                                                                                                                                                                                                                                                                                                                                                                                                                                                                                                                                                                                                                                                                                                                                                                                                                                                                                                                                                                                                                                                                                                                                                                                                                                                                                                                                                                                                                                                                                                                                                                                                                                                                                                                                                                                                                                                                                                                                                                                                                                                                                                                                                                                                                                                                                                                                                                                                                                                                                                                                                                                                                                                                                                                                                                                                                                                                                                                                                                                                                                                                                                                                                                                                                                                                                                                                                                                                                                                                                                                                                                                                                                                                                                                                                                                                                                                                                                                                                                                                                                                                                                                                                                                                                                                                                                                                                                                                                                                                                                                                                                                                                                                                                                                                                                                                                                                                                                                                                                                                                                                                                                                                                                                                                                                                                                                                                                                                                                                                                                                                                                                                                                                                                                                                                                                                                                                                                                                                                                                                                                                                                                                                                                                                                                                                                                                                                                                                                                                                                                                                                                                                                                                                                                                                                                                                                                                                                                                                                                                                                                                                                                                                                                                                                                                                                                                                                                                                                                                                                                                                                                                                                                                                                                                                                                                                                                                                                                                                                                                                                                                                                                                                                                                                                                                                                                                                                                                                                                                                                                                                                                                                                                                                                                                                                                                                                                                                                                                                                                                                                                                                                                                                                                                                                                                                                                                                                                                                                                                                                                                                                                                                                                                                                                                                                                                                                                                                                                                                                                                                                                                                                                                                                                                                                                                                                                                                                                                                                                                                                                                                                                                                                                                                                                                                                                                                                                                                                                                                                                                                                                                                                                                                                                                                                                                                                                                                                                                                                                                                                                                                                                                                                                                                                                                                                                                                                                                                                                                                                                                                                                                                                                                                                                                                                                                                                                                                                                                                                                                                                                                                                                                                                                                                                                                                                                                                                                                                                                                                                                                                                                                                                                                                                                                                                                                                                                                                                                                                                                                                                                                                                                                                                                                                                                                                                                                                                                                                                                                                                                                                                                                                                                                                                                                                                                                                                                                                                                                                                                                                                                                                                                                                                                                                                                                                                                                                                                                                                                                                                                                                                                                                                                                                                                                                                                                                                                                                                                                                                                                                                                                                                                                                                                                                       Lowest energy guess from the checkpoint file:  "ang-HNC.chk"
 B after Tr=     0.000000    0.000000    0.000000
         Rot=    1.000000    0.000000    0.000000    0.000000 Ang=   0.00 deg.
 B after Tr=     0.000000    0.000000    0.000000
         Rot=    1.000000    0.000000    0.000000    0.000000 Ang=   0.00 deg.
 Initial guess orbital symmetries:
       Occupied  (SG) (SG) (SG) (PI) (PI) (SG) (SG)
       Virtual   (SG) (SG) (SG) (PI) (PI) (SG) (SG) (?A) (?A) (?A)
                 (DLTA) (?A) (?A) (?A) (DLTA) (?A) (?A) (?A) (?A)
                 (?A) (?A) (?A) (?A) (?A) (?A)
 Keep R1 ints in memory in symmetry-blocked form, NReq=979986.
