 Entering Gaussian System, Link 0=g09
 Initial command:
 /share/sw/gaussian/D.01/g09/l1.exe "/local/scratch/epluhar/Gau-32469.inp" -scrdir="/local/scratch/epluhar/"
 Entering Link 1 = /share/sw/gaussian/D.01/g09/l1.exe PID=     32470.
  
 Copyright (c) 1988,1990,1992,1993,1995,1998,2003,2009,2013,
            Gaussian, Inc.  All Rights Reserved.
  
 This is part of the Gaussian(R) 09 program.  It is based on
 the Gaussian(R) 03 system (copyright 2003, Gaussian, Inc.),
 the Gaussian(R) 98 system (copyright 1998, Gaussian, Inc.),
 the Gaussian(R) 94 system (copyright 1995, Gaussian, Inc.),
 the Gaussian 92(TM) system (copyright 1992, Gaussian, Inc.),
 the Gaussian 90(TM) system (copyright 1990, Gaussian, Inc.),
 the Gaussian 88(TM) system (copyright 1988, Gaussian, Inc.),
 the Gaussian 86(TM) system (copyright 1986, Carnegie Mellon
 University), and the Gaussian 82(TM) system (copyright 1983,
 Carnegie Mellon University). Gaussian is a federally registered
 trademark of Gaussian, Inc.
  
 This software contains proprietary and confidential information,
 including trade secrets, belonging to Gaussian, Inc.
  
 This software is provided under written license and may be
 used, copied, transmitted, or stored only in accord with that
 written license.
  
 The following legend is applicable only to US Government
 contracts under FAR:
  
                    RESTRICTED RIGHTS LEGEND
  
 Use, reproduction and disclosure by the US Government is
 subject to restrictions as set forth in subparagraphs (a)
 and (c) of the Commercial Computer Software - Restricted
 Rights clause in FAR 52.227-19.
  
 Gaussian, Inc.
 340 Quinnipiac St., Bldg. 40, Wallingford CT 06492
  
  
 ---------------------------------------------------------------
 Warning -- This program may not be used in any manner that
 competes with the business of Gaussian, Inc. or will provide
 assistance to any competitor of Gaussian, Inc.  The licensee
 of this program is prohibited from giving any competitor of
 Gaussian, Inc. access to this program.  By using this program,
 the user acknowledges that Gaussian, Inc. is engaged in the
 business of creating and licensing software in the field of
 computational chemistry and represents and warrants to the
 licensee that it is not a competitor of Gaussian, Inc. and that
 it will not use this program in any manner prohibited above.
 ---------------------------------------------------------------
  

 Cite this work as:
 Gaussian 09, Revision D.01,
 M. J. Frisch, G. W. Trucks, H. B. Schlegel, G. E. Scuseria, 
 M. A. Robb, J. R. Cheeseman, G. Scalmani, V. Barone, B. Mennucci, 
 G. A. Petersson, H. Nakatsuji, M. Caricato, X. Li, H. P. Hratchian, 
 A. F. Izmaylov, J. Bloino, G. Zheng, J. L. Sonnenberg, M. Hada, 
 M. Ehara, K. Toyota, R. Fukuda, J. Hasegawa, M. Ishida, T. Nakajima, 
 Y. Honda, O. Kitao, H. Nakai, T. Vreven, J. A. Montgomery, Jr., 
 J. E. Peralta, F. Ogliaro, M. Bearpark, J. J. Heyd, E. Brothers, 
 K. N. Kudin, V. N. Staroverov, T. Keith, R. Kobayashi, J. Normand, 
 K. Raghavachari, A. Rendell, J. C. Burant, S. S. Iyengar, J. Tomasi, 
 M. Cossi, N. Rega, J. M. Millam, M. Klene, J. E. Knox, J. B. Cross, 
 V. Bakken, C. Adamo, J. Jaramillo, R. Gomperts, R. E. Stratmann, 
 O. Yazyev, A. J. Austin, R. Cammi, C. Pomelli, J. W. Ochterski, 
 R. L. Martin, K. Morokuma, V. G. Zakrzewski, G. A. Voth, 
 P. Salvador, J. J. Dannenberg, S. Dapprich, A. D. Daniels, 
 O. Farkas, J. B. Foresman, J. V. Ortiz, J. Cioslowski, 
 and D. J. Fox, Gaussian, Inc., Wallingford CT, 2013.
 
 ******************************************
 Gaussian 09:  ES64L-G09RevD.01 24-Apr-2013
                26-Sep-2016 
 ******************************************
 %mem=8GB
 %nprocshared=12
 Will use up to   12 processors via shared memory.
 %chk=ang-HNC
 ------------------------------------------------
 # opt=(modredundant,tight) RHF/6-31g* gfp scf=qc
 ------------------------------------------------
 1/7=10,18=120,19=15,38=1/1,3;
 2/9=110,12=2,17=6,18=5,40=1/2;
 3/5=1,6=6,7=1,11=1,16=1,24=100,25=1,30=1,71=1,116=1/1,2,3;
 4//1;
 5/5=2,8=3,38=5/8;
 6/7=2,8=2,9=2,10=2,28=1/1;
 7//1,2,3,16;
 1/7=10,18=20,19=15/3(2);
 2/9=110/2;
 99//99;
 2/9=110/2;
 3/5=1,6=6,7=1,11=1,16=1,25=1,30=1,71=1,116=1/1,2,3;
 4/5=5,16=3,69=1/1;
 5/5=2,8=3,38=5/8;
 7//1,2,3,16;
 1/7=10,18=20,19=15/3(-5);
 2/9=110/2;
 6/7=2,8=2,9=2,10=2,19=2,28=1/1;
 99/9=1/99;
 -------
 HNC-HCN
 -------
 Symbolic Z-matrix:
 Charge =  0 Multiplicity = 1
 N
 C                    1    B1
 H                    2    B2       1    A1
       Variables:
  B1                    1.                       
  B2                    2.2                      
  A1                    2.5                      
 
 The following ModRedundant input section has been read:
 A       1       2       3 S  17 10.000                                        
 

 GradGradGradGradGradGradGradGradGradGradGradGradGradGradGradGradGradGrad
 Berny optimization.
 Initialization pass.
                           ----------------------------
                           !    Initial Parameters    !
                           ! (Angstroms and Degrees)  !
 --------------------------                            --------------------------
 ! Name  Definition              Value          Derivative Info.                !
 --------------------------------------------------------------------------------
 ! R1    R(1,2)                  1.0            estimate D2E/DX2                !
 ! R2    R(1,3)                  1.2017         estimate D2E/DX2                !
 ! A1    A(1,2,3)                2.5            Scan                            !
 ! A2    L(2,1,3,-2,-1)        184.5801         estimate D2E/DX2                !
 ! A3    L(2,1,3,-1,-2)        180.0            estimate D2E/DX2                !
 --------------------------------------------------------------------------------
 Trust Radius=3.00D-01 FncErr=1.00D-07 GrdErr=1.00D-07
 Number of optimizations in scan=  18
 Number of steps in this run=     20 maximum allowed number of steps=    100.
 GradGradGradGradGradGradGradGradGradGradGradGradGradGradGradGradGradGrad

                          Input orientation:                          
 ---------------------------------------------------------------------
 Center     Atomic      Atomic             Coordinates (Angstroms)
 Number     Number       Type             X           Y           Z
 ---------------------------------------------------------------------
      1          7           0        0.000000    0.000000    0.000000
      2          6           0        0.000000    0.000000    1.000000
      3          1           0        0.095963    0.000000   -1.197906
 ---------------------------------------------------------------------
                    Distance matrix (angstroms):
                    1          2          3
     1  N    0.000000
     2  C    1.000000   0.000000
     3  H    1.201744   2.200000   0.000000
 Stoichiometry    CHN
 Framework group  CS[SG(CHN)]
 Deg. of freedom     3
 Full point group                 CS      NOp   2
 Largest Abelian subgroup         CS      NOp   2
 Largest concise Abelian subgroup C1      NOp   1
                         Standard orientation:                         
 ---------------------------------------------------------------------
 Center     Atomic      Atomic             Coordinates (Angstroms)
 Number     Number       Type             X           Y           Z
 ---------------------------------------------------------------------
      1          7           0        0.006854    0.343007    0.000000
      2          6           0        0.006854   -0.656993    0.000000
      3          1           0       -0.089108    1.540913    0.000000
 ---------------------------------------------------------------------
 Rotational constants (GHZ):  79971.7121833     55.3149825     55.2767486
 Standard basis: 6-31G(d) (6D, 7F)
 AO basis set (Overlap normalization):
 Atom N1       Shell     1 S   6     bf    1 -     1          0.012953080832          0.648188739933          0.000000000000
      0.4173511460D+04  0.1834772160D-02
      0.6274579110D+03  0.1399462700D-01
      0.1429020930D+03  0.6858655181D-01
      0.4023432930D+02  0.2322408730D+00
      0.1282021290D+02  0.4690699481D+00
      0.4390437010D+01  0.3604551991D+00
 Atom N1       Shell     2 SP   3    bf    2 -     5          0.012953080832          0.648188739933          0.000000000000
      0.1162636186D+02 -0.1149611817D+00  0.6757974388D-01
      0.2716279807D+01 -0.1691174786D+00  0.3239072959D+00
      0.7722183966D+00  0.1145851947D+01  0.7408951398D+00
 Atom N1       Shell     3 SP   1    bf    6 -     9          0.012953080832          0.648188739933          0.000000000000
      0.2120314975D+00  0.1000000000D+01  0.1000000000D+01
 Atom N1       Shell     4 D   1     bf   10 -    15          0.012953080832          0.648188739933          0.000000000000
      0.8000000000D+00  0.1000000000D+01
 Atom C2       Shell     5 S   6     bf   16 -    16          0.012953080832         -1.241537392953          0.000000000000
      0.3047524880D+04  0.1834737132D-02
      0.4573695180D+03  0.1403732281D-01
      0.1039486850D+03  0.6884262226D-01
      0.2921015530D+02  0.2321844432D+00
      0.9286662960D+01  0.4679413484D+00
      0.3163926960D+01  0.3623119853D+00
 Atom C2       Shell     6 SP   3    bf   17 -    20          0.012953080832         -1.241537392953          0.000000000000
      0.7868272350D+01 -0.1193324198D+00  0.6899906659D-01
      0.1881288540D+01 -0.1608541517D+00  0.3164239610D+00
      0.5442492580D+00  0.1143456438D+01  0.7443082909D+00
 Atom C2       Shell     7 SP   1    bf   21 -    24          0.012953080832         -1.241537392953          0.000000000000
      0.1687144782D+00  0.1000000000D+01  0.1000000000D+01
 Atom C2       Shell     8 D   1     bf   25 -    30          0.012953080832         -1.241537392953          0.000000000000
      0.8000000000D+00  0.1000000000D+01
 Atom H3       Shell     9 S   3     bf   31 -    31         -0.168390050818          2.911903178187          0.000000000000
      0.1873113696D+02  0.3349460434D-01
      0.2825394365D+01  0.2347269535D+00
      0.6401216923D+00  0.8137573261D+00
 Atom H3       Shell    10 S   1     bf   32 -    32         -0.168390050818          2.911903178187          0.000000000000
      0.1612777588D+00  0.1000000000D+01
 There are    24 symmetry adapted cartesian basis functions of A'  symmetry.
 There are     8 symmetry adapted cartesian basis functions of A"  symmetry.
 There are    24 symmetry adapted basis functions of A'  symmetry.
 There are     8 symmetry adapted basis functions of A"  symmetry.
    32 basis functions,    60 primitive gaussians,    32 cartesian basis functions
     7 alpha electrons        7 beta electrons
       nuclear repulsion energy        26.7510415149 Hartrees.
 NAtoms=    3 NActive=    3 NUniq=    3 SFac= 1.00D+00 NAtFMM=   60 NAOKFM=F Big=F
 Integral buffers will be    131072 words long.
 Raffenetti 1 integral format.
 Two-electron integral symmetry is turned on.
 One-electron integrals computed using PRISM.
 NBasis=    32 RedAO= T EigKep=  4.17D-03  NBF=    24     8
 NBsUse=    32 1.00D-06 EigRej= -1.00D+00 NBFU=    24     8
 ExpMin= 1.61D-01 ExpMax= 4.17D+03 ExpMxC= 6.27D+02 IAcc=1 IRadAn=         1 AccDes= 0.00D+00
 Harris functional with IExCor=  205 and IRadAn=       1 diagonalized for initial guess.
 HarFok:  IExCor=  205 AccDes= 0.00D+00 IRadAn=         1 IDoV= 1 UseB2=F ITyADJ=14
 ICtDFT=  3500011 ScaDFX=  1.000000  1.000000  1.000000  1.000000
 FoFCou: FMM=F IPFlag=           0 FMFlag=      100000 FMFlg1=           0
         NFxFlg=           0 DoJE=T BraDBF=F KetDBF=T FulRan=T
         wScrn=  0.000000 ICntrl=     500 IOpCl=  0 I1Cent=   200000004 NGrid=           0
         NMat0=    1 NMatS0=      1 NMatT0=    0 NMatD0=    1 NMtDS0=    0 NMtDT0=    0
 Petite list used in FoFCou.
 Initial guess orbital symmetries:
       Occupied  (A') (A') (A') (A') (A") (A') (A')
       Virtual   (A') (A") (A') (A') (A') (A") (A') (A') (A') (A")
                 (A') (A') (A') (A") (A') (A") (A') (A') (A") (A')
                 (A") (A') (A') (A') (A')
 The electronic state of the initial guess is 1-A'.
 Keep R1 ints in memory in symmetry-blocked form, NReq=978779.
 Gradient too large for Newton-Raphson -- use scaled steepest descent instead.
 Gradient too large for Newton-Raphson -- use scaled steepest descent instead.
     Accept linear search using points  2 and  3.
 Gradient too large for Newton-Raphson -- use scaled steepest descent instead.
 Gradient too large for Newton-Raphson -- use scaled steepest descent instead.
     Accept linear search using points  1 and  2.
 LinEq1:  Iter=  0 NonCon=     1 RMS=2.59D-04 Max=2.06D-03 NDo=     1
 AX will form     1 AO Fock derivatives at one time.
 LinEq1:  Iter=  1 NonCon=     1 RMS=1.02D-04 Max=6.68D-04 NDo=     1
 LinEq1:  Iter=  2 NonCon=     1 RMS=1.88D-05 Max=1.12D-04 NDo=     1
 LinEq1:  Iter=  3 NonCon=     1 RMS=3.24D-06 Max=2.05D-05 NDo=     1
 LinEq1:  Iter=  4 NonCon=     1 RMS=1.03D-06 Max=3.99D-06 NDo=     1
 LinEq1:  Iter=  5 NonCon=     1 RMS=1.50D-07 Max=7.81D-07 NDo=     1
 LinEq1:  Iter=  6 NonCon=     1 RMS=3.05D-08 Max=1.54D-07 NDo=     1
 LinEq1:  Iter=  7 NonCon=     1 RMS=4.82D-09 Max=2.05D-08 NDo=     1
 LinEq1:  Iter=  8 NonCon=     0 RMS=8.59D-10 Max=4.87D-09 NDo=     1
 Linear equations converged to 1.871D-09 1.871D-08 after     8 iterations.
     Minimum is close to point  2 DX=  3.52D-04 DF= -3.64D-12 DXR=  3.52D-04 DFR=  1.23D-07 which will be used.
 LinEq1:  Iter=  0 NonCon=     1 RMS=4.06D-07 Max=3.01D-06 NDo=     1
 LinEq1:  Iter=  1 NonCon=     1 RMS=1.53D-07 Max=1.12D-06 NDo=     1
 LinEq1:  Iter=  2 NonCon=     1 RMS=4.02D-08 Max=2.28D-07 NDo=     1
 LinEq1:  Iter=  3 NonCon=     1 RMS=1.02D-08 Max=4.26D-08 NDo=     1
 LinEq1:  Iter=  4 NonCon=     1 RMS=1.17D-09 Max=7.56D-09 NDo=     1
 LinEq1:  Iter=  5 NonCon=     1 RMS=2.40D-10 Max=1.10D-09 NDo=     1
 LinEq1:  Iter=  6 NonCon=     0 RMS=4.85D-11 Max=2.56D-10 NDo=     1
 Linear equations converged to 9.180D-11 9.180D-10 after     6 iterations.
 SCF Done:  E(RHF) =  -92.7398165749     a.u. after    7 cycles
            Convg  =    0.3400D-08                    31 Fock formations.
              S**2 =  0.0000                  -V/T =  1.9922

 **********************************************************************

            Population analysis using the SCF density.

 **********************************************************************

 Orbital symmetries:
       Occupied  (A') (A') (A') (A') (A') (A") (A')
       Virtual   (A') (A") (A') (A') (A') (A") (A') (A') (A') (A")
                 (A') (A') (A') (A") (A') (A") (A') (A") (A') (A')
                 (A") (A') (A') (A') (A')
 The electronic state is 1-A'.
 Alpha  occ. eigenvalues --  -15.59712 -11.21121  -1.32169  -0.79543  -0.56514
 Alpha  occ. eigenvalues --   -0.56506  -0.43589
 Alpha virt. eigenvalues --    0.14148   0.28323   0.28338   0.47698   0.74835
 Alpha virt. eigenvalues --    0.74863   0.77067   0.82811   1.03679   1.03775
 Alpha virt. eigenvalues --    1.19699   1.57011   1.69975   1.74301   1.74304
 Alpha virt. eigenvalues --    1.99778   2.00461   2.37707   2.37708   3.00988
 Alpha virt. eigenvalues --    3.08862   3.09171   3.94104   4.28327   4.51846
          Condensed to atoms (all electrons):
               1          2          3
     1  N    6.352726   0.750441   0.274006
     2  C    0.750441   5.336000  -0.011120
     3  H    0.274006  -0.011120   0.284620
 Mulliken charges:
               1
     1  N   -0.377173
     2  C   -0.075320
     3  H    0.452494
 Sum of Mulliken charges =   0.00000
 Mulliken charges with hydrogens summed into heavy atoms:
               1
     1  N    0.075320
     2  C   -0.075320
 Electronic spatial extent (au):  <R**2>=             44.2107
 Charge=              0.0000 electrons
 Dipole moment (field-independent basis, Debye):
    X=             -0.2035    Y=              3.9364    Z=              0.0000  Tot=              3.9416
 Quadrupole moment (field-independent basis, Debye-Ang):
   XX=            -11.3171   YY=             -8.9694   ZZ=            -11.3372
   XY=             -0.3039   XZ=              0.0000   YZ=              0.0000
 Traceless Quadrupole moment (field-independent basis, Debye-Ang):
   XX=             -0.7759   YY=              1.5718   ZZ=             -0.7959
   XY=             -0.3039   XZ=              0.0000   YZ=              0.0000
 Octapole moment (field-independent basis, Debye-Ang**2):
  XXX=             -0.1245  YYY=             15.7600  ZZZ=              0.0000  XYY=             -0.5830
  XXY=              1.1269  XXZ=              0.0000  XZZ=             -0.0409  YZZ=              1.0975
  YYZ=              0.0000  XYZ=              0.0000
 Hexadecapole moment (field-independent basis, Debye-Ang**3):
 XXXX=            -10.0125 YYYY=            -29.3292 ZZZZ=             -9.9918 XXXY=              0.2081
 XXXZ=              0.0000 YYYX=             -0.6026 YYYZ=              0.0000 ZZZX=              0.0000
 ZZZY=              0.0000 XXYY=             -8.0965 XXZZ=             -3.3341 YYZZ=             -8.1440
 XXYZ=              0.0000 YYXZ=              0.0000 ZZXY=              0.0704
 N-N= 2.675104151488D+01 E-N=-2.714709190924D+02  KE= 9.347228701100D+01
 Symmetry A'   KE= 9.041269967836D+01
 Symmetry A"   KE= 3.059587332645D+00
 Calling FoFJK, ICntrl=      2127 FMM=F ISym2X=1 I1Cent= 0 IOpClX= 0 NMat=1 NMatS=1 NMatT=0.
 ***** Axes restored to original set *****
 -------------------------------------------------------------------
 Center     Atomic                   Forces (Hartrees/Bohr)
 Number     Number              X              Y              Z
 -------------------------------------------------------------------
      1        7           0.015037668    0.000000000   -0.792780289
      2        6          -0.002497059    0.000000000    0.662256449
      3        1          -0.012540610    0.000000000    0.130523840
 -------------------------------------------------------------------
 Cartesian Forces:  Max     0.792780289 RMS     0.347132747

 GradGradGradGradGradGradGradGradGradGradGradGradGradGradGradGradGradGrad
 Berny optimization.
 FormGI is forming the generalized inverse of G from B-inverse, IUseBI=4.
 Internal  Forces:  Max     0.398458364 RMS     0.251232993
 Search for a local minimum.
 Step number   1 out of a maximum of   20 on scan point     1 out of    18
 All quantities printed in internal units (Hartrees-Bohrs-Radians)
 Mixed Optimization -- RFO/linear search
 Second derivative matrix not updated -- first step.
 The second derivative matrix:
                          R1        R2        A1        A2        A3
           R1           3.32740
           R2           0.00000   0.24538
           A1           0.00000   0.00000   0.16000
           A2           0.00000   0.00000   0.00000   0.00230
           A3           0.00000   0.00000   0.00000   0.00000   0.00230
 ITU=  0
     Eigenvalues ---    0.00230   1.793171000.000001000.000001000.00000
 RFO step:  Lambda=-1.61398204D-01 EMin= 2.30000000D-03
 Linear search not attempted -- first point.
 Iteration  1 RMS(Cart)=  0.07312484 RMS(Int)=  0.00202374
 Iteration  2 RMS(Cart)=  0.00119663 RMS(Int)=  0.00013972
 Iteration  3 RMS(Cart)=  0.00000017 RMS(Int)=  0.00013972
 Iteration  1 RMS(Cart)=  0.00004244 RMS(Int)=  0.00011202
 Iteration  2 RMS(Cart)=  0.00003403 RMS(Int)=  0.00012060
 Iteration  3 RMS(Cart)=  0.00002728 RMS(Int)=  0.00013793
 Iteration  4 RMS(Cart)=  0.00002187 RMS(Int)=  0.00015642
 Iteration  5 RMS(Cart)=  0.00001754 RMS(Int)=  0.00017328
 Iteration  6 RMS(Cart)=  0.00001406 RMS(Int)=  0.00018774
 Iteration  7 RMS(Cart)=  0.00001127 RMS(Int)=  0.00019981
 Iteration  8 RMS(Cart)=  0.00000904 RMS(Int)=  0.00020974
 Iteration  9 RMS(Cart)=  0.00000725 RMS(Int)=  0.00021784
 Iteration 10 RMS(Cart)=  0.00000581 RMS(Int)=  0.00022441
 Iteration 11 RMS(Cart)=  0.00000466 RMS(Int)=  0.00022973
 Iteration 12 RMS(Cart)=  0.00000374 RMS(Int)=  0.00023402
 Iteration 13 RMS(Cart)=  0.00000300 RMS(Int)=  0.00023748
 Iteration 14 RMS(Cart)=  0.00000240 RMS(Int)=  0.00024027
 Iteration 15 RMS(Cart)=  0.00000193 RMS(Int)=  0.00024251
 Iteration 16 RMS(Cart)=  0.00000154 RMS(Int)=  0.00024431
 Iteration 17 RMS(Cart)=  0.00000124 RMS(Int)=  0.00024575
 Iteration 18 RMS(Cart)=  0.00000099 RMS(Int)=  0.00024691
 ClnCor:  largest displacement from symmetrization is 2.78D-17 for atom     1.
 Variable       Old X    -DE/DX   Delta X   Delta X   Delta X     New X
                                 (Linear)    (Quad)   (Total)
    R1        1.88973   0.39846   0.00000   0.20365   0.20363   2.09336
    R2        2.27097  -0.39525   0.00000  -0.20261  -0.20259   2.06837
    A1        0.04363   0.00538   0.00000   0.00000  -0.00001   0.04363
    A2        3.22153   0.02383   0.00000   0.00715   0.00785   3.22938
    A3        3.14159   0.00000   0.00000   0.00000   0.00000   3.14159
         Item               Value     Threshold  Converged?
 Maximum Force            0.398046     0.000015     NO 
 RMS     Force            0.280831     0.000010     NO 
 Maximum Displacement     0.135562     0.000060     NO 
 RMS     Displacement     0.074274     0.000040     NO 
 Predicted change in Energy=-8.737821D-02
 GradGradGradGradGradGradGradGradGradGradGradGradGradGradGradGradGradGrad

                          Input orientation:                          
 ---------------------------------------------------------------------
 Center     Atomic      Atomic             Coordinates (Angstroms)
 Number     Number       Type             X           Y           Z
 ---------------------------------------------------------------------
      1          7           0       -0.000007    0.000000   -0.071736
      2          6           0        0.001560    0.000000    1.036022
      3          1           0        0.094410    0.000000   -1.162191
 ---------------------------------------------------------------------
                    Distance matrix (angstroms):
                    1          2          3
     1  N    0.000000
     2  C    1.107759   0.000000
     3  H    1.094535   2.200173   0.000000
 Stoichiometry    CHN
 Framework group  CS[SG(CHN)]
 Deg. of freedom     3
 Full point group                 CS      NOp   2
 Largest Abelian subgroup         CS      NOp   2
 Largest concise Abelian subgroup C1      NOp   1
                         Standard orientation:                         
 ---------------------------------------------------------------------
 Center     Atomic      Atomic             Coordinates (Angstroms)
 Number     Number       Type             X           Y           Z
 ---------------------------------------------------------------------
      1          7           0        0.006854    0.396874    0.000000
      2          6           0        0.006854   -0.710885    0.000000
      3          1           0       -0.089104    1.487194    0.000000
 ---------------------------------------------------------------------
 Rotational constants (GHZ):  74336.2844697     48.4980004     48.4663803
 Standard basis: 6-31G(d) (6D, 7F)
 There are    24 symmetry adapted cartesian basis functions of A'  symmetry.
 There are     8 symmetry adapted cartesian basis functions of A"  symmetry.
 There are    24 symmetry adapted basis functions of A'  symmetry.
 There are     8 symmetry adapted basis functions of A"  symmetry.
    32 basis functions,    60 primitive gaussians,    32 cartesian basis functions
     7 alpha electrons        7 beta electrons
       nuclear repulsion energy        24.8908310412 Hartrees.
 NAtoms=    3 NActive=    3 NUniq=    3 SFac= 1.00D+00 NAtFMM=   60 NAOKFM=F Big=F
 Integral buffers will be    131072 words long.
 Raffenetti 1 integral format.
 Two-electron integral symmetry is turned on.
 One-electron integrals computed using PRISM.
 NBasis=    32 RedAO= T EigKep=  6.22D-03  NBF=    24     8
 NBsUse=    32 1.00D-06 EigRej= -1.00D+00 NBFU=    24     8
 Initial guess from the checkpoint file:  "ang-HNC.chk"
 B after Tr=     0.000000    0.000000    0.000000
         Rot=    1.000000    0.000000    0.000000   -0.000425 Ang=  -0.05 deg.
 Initial guess orbital symmetries:
       Occupied  (A') (A') (A') (A') (A') (A") (A')
       Virtual   (A') (A') (A') (A') (A') (A') (A') (A') (A') (A')
                 (A') (A') (A') (A') (A') (A') (A') (A') (A") (A")
                 (A") (A") (A") (A") (A")
 ExpMin= 1.61D-01 ExpMax= 4.17D+03 ExpMxC= 6.27D+02 IAcc=1 IRadAn=         1 AccDes= 0.00D+00
 Harris functional with IExCor=  205 and IRadAn=       1 diagonalized for initial guess.
 HarFok:  IExCor=  205 AccDes= 0.00D+00 IRadAn=         1 IDoV= 1 UseB2=F ITyADJ=14
 ICtDFT=  3500011 ScaDFX=  1.000000  1.000000  1.000000  1.000000
 FoFCou: FMM=F IPFlag=           0 FMFlag=      100000 FMFlg1=           0
         NFxFlg=           0 DoJE=T BraDBF=F KetDBF=T FulRan=T
         wScrn=  0.000000 ICntrl=     500 IOpCl=  0 I1Cent=   200000004 NGrid=           0
         NMat0=    1 NMatS0=      1 NMatT0=    0 NMatD0=    1 NMtDS0=    0 NMtDT0=    0
 Petite list used in FoFCou.
 Keep R1 ints in memory in symmetry-blocked form, NReq=978707.
 Gradient too large for Newton-Raphson -- use scaled steepest descent instead.
     Accept linear search using points  3 and  4.
 Gradient too large for Newton-Raphson -- use scaled steepest descent instead.
 Gradient too large for Newton-Raphson -- use scaled steepest descent instead.
     Accept linear search using points  1 and  2.
 Gradient too large for Newton-Raphson -- use scaled steepest descent instead.
     Minimum is close to point  2 DX=  2.44D-02 DF= -4.38D-08 DXR=  2.38D-02 DFR=  5.67D-04 which will be used.
 LinEq1:  Iter=  0 NonCon=     1 RMS=2.82D-04 Max=2.20D-03 NDo=     1
 AX will form     1 AO Fock derivatives at one time.
 LinEq1:  Iter=  1 NonCon=     1 RMS=5.14D-05 Max=3.62D-04 NDo=     1
 LinEq1:  Iter=  2 NonCon=     1 RMS=2.02D-05 Max=1.01D-04 NDo=     1
 LinEq1:  Iter=  3 NonCon=     1 RMS=4.57D-06 Max=2.39D-05 NDo=     1
 LinEq1:  Iter=  4 NonCon=     1 RMS=1.45D-06 Max=8.80D-06 NDo=     1
 LinEq1:  Iter=  5 NonCon=     1 RMS=3.05D-07 Max=1.62D-06 NDo=     1
 LinEq1:  Iter=  6 NonCon=     1 RMS=4.76D-08 Max=2.35D-07 NDo=     1
 LinEq1:  Iter=  7 NonCon=     1 RMS=9.16D-09 Max=5.58D-08 NDo=     1
 LinEq1:  Iter=  8 NonCon=     0 RMS=1.55D-09 Max=6.55D-09 NDo=     1
 Linear equations converged to 1.871D-09 1.871D-08 after     8 iterations.
     Minimum is close to point  2 DX=  4.55D-04 DF= -1.03D-11 DXR=  4.55D-04 DFR=  2.07D-07 which will be used.
 LinEq1:  Iter=  0 NonCon=     1 RMS=4.02D-07 Max=2.90D-06 NDo=     1
 LinEq1:  Iter=  1 NonCon=     1 RMS=1.38D-07 Max=7.06D-07 NDo=     1
 LinEq1:  Iter=  2 NonCon=     1 RMS=3.69D-08 Max=2.05D-07 NDo=     1
 LinEq1:  Iter=  3 NonCon=     1 RMS=5.19D-09 Max=3.88D-08 NDo=     1
 LinEq1:  Iter=  4 NonCon=     1 RMS=7.42D-10 Max=4.42D-09 NDo=     1
 LinEq1:  Iter=  5 NonCon=     0 RMS=9.26D-11 Max=7.13D-10 NDo=     1
 Linear equations converged to 9.306D-11 9.306D-10 after     5 iterations.
 SCF Done:  E(RHF) =  -92.8390636940     a.u. after    7 cycles
            Convg  =    0.3700D-08                    29 Fock formations.
              S**2 =  0.0000                  -V/T =  2.0006
 Calling FoFJK, ICntrl=      2127 FMM=F ISym2X=1 I1Cent= 0 IOpClX= 0 NMat=1 NMatS=1 NMatT=0.
 ***** Axes restored to original set *****
 -------------------------------------------------------------------
 Center     Atomic                   Forces (Hartrees/Bohr)
 Number     Number              X              Y              Z
 -------------------------------------------------------------------
      1        7           0.010398976    0.000000000   -0.230525590
      2        6          -0.001296186    0.000000000    0.142973831
      3        1          -0.009102790    0.000000000    0.087551759
 -------------------------------------------------------------------
 Cartesian Forces:  Max     0.230525590 RMS     0.095126555

 GradGradGradGradGradGradGradGradGradGradGradGradGradGradGradGradGradGrad
 Berny optimization.
 Using GEDIIS/GDIIS optimizer.
 FormGI is forming the generalized inverse of G from B-inverse, IUseBI=4.
 Internal  Forces:  Max     0.115631713 RMS     0.073044407
 Search for a local minimum.
 Step number   2 out of a maximum of   20 on scan point     1 out of    18
 All quantities printed in internal units (Hartrees-Bohrs-Radians)
 Mixed Optimization -- RFO/linear search
 Update second derivatives using D2CorX and points    1    2
 DE= -9.92D-02 DEPred=-8.74D-02 R= 1.14D+00
 TightC=F SS=  1.41D+00  RLast= 2.87D-01 DXNew= 5.0454D-01 8.6207D-01
 Trust test= 1.14D+00 RLast= 2.87D-01 DXMaxT set to 5.05D-01
 The second derivative matrix:
                          R1        R2        A1        A2        A3
           R1           0.92511
           R2          -0.46404   0.91315
           A1           0.01732  -0.01714   0.16043
           A2           0.05478  -0.05429   0.00136   0.00661
           A3           0.00000   0.00000   0.00000   0.00000   0.00230
 ITU=  1  0
 Use linear search instead of GDIIS.
     Eigenvalues ---    0.00230   1.386591000.000001000.000001000.00000
 RFO step:  Lambda=-7.33783700D-08 EMin= 2.30000000D-03
 Quartic linear search produced a step of  0.66815.
 Iteration  1 RMS(Cart)=  0.04962363 RMS(Int)=  0.00020450
 Iteration  2 RMS(Cart)=  0.00008179 RMS(Int)=  0.00017428
 Iteration  3 RMS(Cart)=  0.00000001 RMS(Int)=  0.00017428
 Iteration  1 RMS(Cart)=  0.00005237 RMS(Int)=  0.00014689
 Iteration  2 RMS(Cart)=  0.00004307 RMS(Int)=  0.00015725
 Iteration  3 RMS(Cart)=  0.00003542 RMS(Int)=  0.00017900
 Iteration  4 RMS(Cart)=  0.00002913 RMS(Int)=  0.00020310
 Iteration  5 RMS(Cart)=  0.00002396 RMS(Int)=  0.00022580
 Iteration  6 RMS(Cart)=  0.00001971 RMS(Int)=  0.00024587
 Iteration  7 RMS(Cart)=  0.00001621 RMS(Int)=  0.00026311
 Iteration  8 RMS(Cart)=  0.00001333 RMS(Int)=  0.00027770
 Iteration  9 RMS(Cart)=  0.00001097 RMS(Int)=  0.00028992
 Iteration 10 RMS(Cart)=  0.00000902 RMS(Int)=  0.00030011
 Iteration 11 RMS(Cart)=  0.00000742 RMS(Int)=  0.00030858
 Iteration 12 RMS(Cart)=  0.00000610 RMS(Int)=  0.00031559
 Iteration 13 RMS(Cart)=  0.00000502 RMS(Int)=  0.00032140
 Iteration 14 RMS(Cart)=  0.00000413 RMS(Int)=  0.00032619
 Iteration 15 RMS(Cart)=  0.00000339 RMS(Int)=  0.00033014
 Iteration 16 RMS(Cart)=  0.00000279 RMS(Int)=  0.00033341
 Iteration 17 RMS(Cart)=  0.00000230 RMS(Int)=  0.00033610
 Iteration 18 RMS(Cart)=  0.00000189 RMS(Int)=  0.00033831
 Iteration 19 RMS(Cart)=  0.00000155 RMS(Int)=  0.00034013
 Iteration 20 RMS(Cart)=  0.00000128 RMS(Int)=  0.00034164
 Iteration 21 RMS(Cart)=  0.00000105 RMS(Int)=  0.00034287
 Iteration 22 RMS(Cart)=  0.00000086 RMS(Int)=  0.00034389
 ClnCor:  largest displacement from symmetrization is 8.90D-16 for atom     3.
 Variable       Old X    -DE/DX   Delta X   Delta X   Delta X     New X
                                 (Linear)    (Quad)   (Total)
    R1        2.09336   0.11563   0.13606  -0.00001   0.13603   2.22939
    R2        2.06837  -0.11533  -0.13536   0.00001  -0.13533   1.93304
    A1        0.04363  -0.00163   0.00000   0.00000   0.00000   0.04363
    A2        3.22938   0.00162   0.00524  -0.00001   0.00617   3.23554
    A3        3.14159   0.00000   0.00000   0.00000   0.00000   3.14159
         Item               Value     Threshold  Converged?
 Maximum Force            0.115798     0.000015     NO 
 RMS     Force            0.081645     0.000010     NO 
 Maximum Displacement     0.090582     0.000060     NO 
 RMS     Displacement     0.049630     0.000040     NO 
 Predicted change in Energy=-5.792450D-03
 GradGradGradGradGradGradGradGradGradGradGradGradGradGradGradGradGradGrad

                          Input orientation:                          
 ---------------------------------------------------------------------
 Center     Atomic      Atomic             Coordinates (Angstroms)
 Number     Number       Type             X           Y           Z
 ---------------------------------------------------------------------
      1          7           0       -0.000127    0.000000   -0.119670
      2          6           0        0.002656    0.000000    1.060068
      3          1           0        0.093434    0.000000   -1.138304
 ---------------------------------------------------------------------
                    Distance matrix (angstroms):
                    1          2          3
     1  N    0.000000
     2  C    1.179742   0.000000
     3  H    1.022921   2.200245   0.000000
 Stoichiometry    CHN
 Framework group  CS[SG(CHN)]
 Deg. of freedom     3
 Full point group                 CS      NOp   2
 Largest Abelian subgroup         CS      NOp   2
 Largest concise Abelian subgroup C1      NOp   1
                         Standard orientation:                         
 ---------------------------------------------------------------------
 Center     Atomic      Atomic             Coordinates (Angstroms)
 Number     Number       Type             X           Y           Z
 ---------------------------------------------------------------------
      1          7           0        0.006854    0.432860    0.000000
      2          6           0        0.006854   -0.746882    0.000000
      3          1           0       -0.089108    1.451270    0.000000
 ---------------------------------------------------------------------
 Rotational constants (GHZ):  71479.6270857     44.4655681     44.4379245
 Standard basis: 6-31G(d) (6D, 7F)
 There are    24 symmetry adapted cartesian basis functions of A'  symmetry.
 There are     8 symmetry adapted cartesian basis functions of A"  symmetry.
 There are    24 symmetry adapted basis functions of A'  symmetry.
 There are     8 symmetry adapted basis functions of A"  symmetry.
    32 basis functions,    60 primitive gaussians,    32 cartesian basis functions
     7 alpha electrons        7 beta electrons
       nuclear repulsion energy        23.9035302784 Hartrees.
 NAtoms=    3 NActive=    3 NUniq=    3 SFac= 1.00D+00 NAtFMM=   60 NAOKFM=F Big=F
 Integral buffers will be    131072 words long.
 Raffenetti 1 integral format.
 Two-electron integral symmetry is turned on.
 One-electron integrals computed using PRISM.
 NBasis=    32 RedAO= T EigKep=  8.07D-03  NBF=    24     8
 NBsUse=    32 1.00D-06 EigRej= -1.00D+00 NBFU=    24     8
 Initial guess from the checkpoint file:  "ang-HNC.chk"
 B after Tr=     0.000000    0.000000    0.000000
         Rot=    1.000000    0.000000    0.000000   -0.000263 Ang=  -0.03 deg.
 Initial guess orbital symmetries:
       Occupied  (A') (A') (A') (A') (A') (A") (A')
       Virtual   (A') (A') (A') (A') (A') (A') (A') (A') (A') (A')
                 (A') (A') (A') (A') (A') (A') (A') (A') (A") (A")
                 (A") (A") (A") (A") (A")
 ExpMin= 1.61D-01 ExpMax= 4.17D+03 ExpMxC= 6.27D+02 IAcc=1 IRadAn=         1 AccDes= 0.00D+00
 Harris functional with IExCor=  205 and IRadAn=       1 diagonalized for initial guess.
 HarFok:  IExCor=  205 AccDes= 0.00D+00 IRadAn=         1 IDoV= 1 UseB2=F ITyADJ=14
 ICtDFT=  3500011 ScaDFX=  1.000000  1.000000  1.000000  1.000000
 FoFCou: FMM=F IPFlag=           0 FMFlag=      100000 FMFlg1=           0
         NFxFlg=           0 DoJE=T BraDBF=F KetDBF=T FulRan=T
         wScrn=  0.000000 ICntrl=     500 IOpCl=  0 I1Cent=   200000004 NGrid=           0
         NMat0=    1 NMatS0=      1 NMatT0=    0 NMatD0=    1 NMtDS0=    0 NMtDT0=    0
 Petite list used in FoFCou.
 Keep R1 ints in memory in symmetry-blocked form, NReq=978706.
 Gradient too large for Newton-Raphson -- use scaled steepest descent instead.
     Accept linear search using points  3 and  4.
 Gradient too large for Newton-Raphson -- use scaled steepest descent instead.
     Minimum is close to point  3 DX=  2.26D-02 DF= -2.14D-07 DXR=  2.01D-02 DFR=  4.06D-04 which will be used.
 Gradient too large for Newton-Raphson -- use scaled steepest descent instead.
     Accept linear search using points  1 and  2.
 Gradient too large for Newton-Raphson -- use scaled steepest descent instead.
     Accept linear search using points  1 and  2.
     Minimum is close to point  2 DX= -8.58D-02 DF= -3.77D-07 DXR=  9.39D-02 DFR=  8.89D-03 which will be used.
 LinEq1:  Iter=  0 NonCon=     1 RMS=2.20D-04 Max=1.58D-03 NDo=     1
 AX will form     1 AO Fock derivatives at one time.
 LinEq1:  Iter=  1 NonCon=     1 RMS=5.85D-05 Max=4.42D-04 NDo=     1
 LinEq1:  Iter=  2 NonCon=     1 RMS=1.91D-05 Max=8.97D-05 NDo=     1
 LinEq1:  Iter=  3 NonCon=     1 RMS=5.05D-06 Max=2.74D-05 NDo=     1
 LinEq1:  Iter=  4 NonCon=     1 RMS=1.57D-06 Max=8.25D-06 NDo=     1
 LinEq1:  Iter=  5 NonCon=     1 RMS=2.94D-07 Max=1.81D-06 NDo=     1
 LinEq1:  Iter=  6 NonCon=     1 RMS=5.21D-08 Max=3.14D-07 NDo=     1
 LinEq1:  Iter=  7 NonCon=     1 RMS=1.22D-08 Max=6.54D-08 NDo=     1
 LinEq1:  Iter=  8 NonCon=     0 RMS=1.50D-09 Max=6.82D-09 NDo=     1
 Linear equations converged to 1.871D-09 1.871D-08 after     8 iterations.
     Minimum is close to point  2 DX=  2.89D-04 DF= -2.60D-12 DXR=  2.89D-04 DFR=  8.31D-08 which will be used.
 LinEq1:  Iter=  0 NonCon=     1 RMS=2.22D-07 Max=1.27D-06 NDo=     1
 LinEq1:  Iter=  1 NonCon=     1 RMS=8.81D-08 Max=4.51D-07 NDo=     1
 LinEq1:  Iter=  2 NonCon=     1 RMS=2.35D-08 Max=1.24D-07 NDo=     1
 LinEq1:  Iter=  3 NonCon=     1 RMS=3.09D-09 Max=1.91D-08 NDo=     1
 LinEq1:  Iter=  4 NonCon=     1 RMS=5.05D-10 Max=3.32D-09 NDo=     1
 LinEq1:  Iter=  5 NonCon=     1 RMS=9.54D-11 Max=6.05D-10 NDo=     1
 LinEq1:  Iter=  6 NonCon=     0 RMS=1.58D-11 Max=7.54D-11 NDo=     1
 Linear equations converged to 5.258D-11 5.258D-10 after     6 iterations.
 SCF Done:  E(RHF) =  -92.8523920570     a.u. after    7 cycles
            Convg  =    0.1466D-08                    28 Fock formations.
              S**2 =  0.0000                  -V/T =  2.0038
 Calling FoFJK, ICntrl=      2127 FMM=F ISym2X=1 I1Cent= 0 IOpClX= 0 NMat=1 NMatS=1 NMatT=0.
 ***** Axes restored to original set *****
 -------------------------------------------------------------------
 Center     Atomic                   Forces (Hartrees/Bohr)
 Number     Number              X              Y              Z
 -------------------------------------------------------------------
      1        7           0.005349140    0.000000000    0.023668063
      2        6          -0.001021419    0.000000000   -0.059681339
      3        1          -0.004327721    0.000000000    0.036013276
 -------------------------------------------------------------------
 Cartesian Forces:  Max     0.059681339 RMS     0.024647247

 GradGradGradGradGradGradGradGradGradGradGradGradGradGradGradGradGradGrad
 Berny optimization.
 Using GEDIIS/GDIIS optimizer.
 FormGI is forming the generalized inverse of G from B-inverse, IUseBI=4.
 Internal  Forces:  Max     0.012373556 RMS     0.008368463
 Search for a local minimum.
 Step number   3 out of a maximum of   20 on scan point     1 out of    18
 All quantities printed in internal units (Hartrees-Bohrs-Radians)
 Mixed Optimization -- RFO/linear search
 Update second derivatives using D2CorX and points    1    2    3
 DE= -1.33D-02 DEPred=-5.79D-03 R= 2.30D+00
 TightC=F SS=  1.41D+00  RLast= 1.92D-01 DXNew= 8.4853D-01 5.7594D-01
 Trust test= 2.30D+00 RLast= 1.92D-01 DXMaxT set to 5.76D-01
 The second derivative matrix:
                          R1        R2        A1        A2        A3
           R1           0.70012
           R2          -0.24055   0.69114
           A1           0.00647  -0.00639   0.16009
           A2           0.03496  -0.03462   0.00048   0.00489
           A3           0.00000   0.00000   0.00000   0.00000   0.00230
 ITU=  1  1  0
 Use linear search instead of GDIIS.
     Eigenvalues ---    0.00230   0.938491000.000001000.000001000.00000
 RFO step:  Lambda= 0.00000000D+00 EMin= 2.30000000D-03
 Quartic linear search produced a step of -0.10531.
 Iteration  1 RMS(Cart)=  0.00522610 RMS(Int)=  0.00000786
 Iteration  2 RMS(Cart)=  0.00000108 RMS(Int)=  0.00000773
 Iteration  3 RMS(Cart)=  0.00000000 RMS(Int)=  0.00000773
 Iteration  1 RMS(Cart)=  0.00000156 RMS(Int)=  0.00000434
 Iteration  2 RMS(Cart)=  0.00000128 RMS(Int)=  0.00000465
 Iteration  3 RMS(Cart)=  0.00000105 RMS(Int)=  0.00000529
 Iteration  4 RMS(Cart)=  0.00000086 RMS(Int)=  0.00000601
 ClnCor:  largest displacement from symmetrization is 4.44D-16 for atom     3.
 Variable       Old X    -DE/DX   Delta X   Delta X   Delta X     New X
                                 (Linear)    (Quad)   (Total)
    R1        2.22939  -0.01237  -0.01432   0.00000  -0.01432   2.21507
    R2        1.93304   0.01114   0.01425   0.00000   0.01425   1.94729
    A1        0.04363  -0.00338   0.00000   0.00000   0.00001   0.04364
    A2        3.23554  -0.00785  -0.00065   0.00000  -0.00067   3.23487
    A3        3.14159   0.00000   0.00000   0.00000   0.00000   3.14159
         Item               Value     Threshold  Converged?
 Maximum Force            0.011980     0.000015     NO 
 RMS     Force            0.008443     0.000010     NO 
 Maximum Displacement     0.009539     0.000060     NO 
 RMS     Displacement     0.005226     0.000040     NO 
 Predicted change in Energy=-1.493773D-04
 GradGradGradGradGradGradGradGradGradGradGradGradGradGradGradGradGradGrad

                          Input orientation:                          
 ---------------------------------------------------------------------
 Center     Atomic      Atomic             Coordinates (Angstroms)
 Number     Number       Type             X           Y           Z
 ---------------------------------------------------------------------
      1          7           0       -0.000117    0.000000   -0.114623
      2          6           0        0.002541    0.000000    1.057536
      3          1           0        0.093539    0.000000   -1.140820
 ---------------------------------------------------------------------
                    Distance matrix (angstroms):
                    1          2          3
     1  N    0.000000
     2  C    1.172162   0.000000
     3  H    1.030462   2.200239   0.000000
 Stoichiometry    CHN
 Framework group  CS[SG(CHN)]
 Deg. of freedom     3
 Full point group                 CS      NOp   2
 Largest Abelian subgroup         CS      NOp   2
 Largest concise Abelian subgroup C1      NOp   1
                         Standard orientation:                         
 ---------------------------------------------------------------------
 Center     Atomic      Atomic             Coordinates (Angstroms)
 Number     Number       Type             X           Y           Z
 ---------------------------------------------------------------------
      1          7           0        0.006856    0.429071    0.000000
      2          6           0        0.006856   -0.743091    0.000000
      3          1           0       -0.089128    1.455053    0.000000
 ---------------------------------------------------------------------
 Rotational constants (GHZ):  71720.4837552     44.8714239     44.8433680
 Standard basis: 6-31G(d) (6D, 7F)
 There are    24 symmetry adapted cartesian basis functions of A'  symmetry.
 There are     8 symmetry adapted cartesian basis functions of A"  symmetry.
 There are    24 symmetry adapted basis functions of A'  symmetry.
 There are     8 symmetry adapted basis functions of A"  symmetry.
    32 basis functions,    60 primitive gaussians,    32 cartesian basis functions
     7 alpha electrons        7 beta electrons
       nuclear repulsion energy        23.9988570699 Hartrees.
 NAtoms=    3 NActive=    3 NUniq=    3 SFac= 1.00D+00 NAtFMM=   60 NAOKFM=F Big=F
 Integral buffers will be    131072 words long.
 Raffenetti 1 integral format.
 Two-electron integral symmetry is turned on.
 One-electron integrals computed using PRISM.
 NBasis=    32 RedAO= T EigKep=  7.86D-03  NBF=    24     8
 NBsUse=    32 1.00D-06 EigRej= -1.00D+00 NBFU=    24     8
 Initial guess from the checkpoint file:  "ang-HNC.chk"
 B after Tr=     0.000000    0.000000    0.000000
         Rot=    1.000000    0.000000    0.000000    0.000025 Ang=   0.00 deg.
 Initial guess orbital symmetries:
       Occupied  (A') (A') (A') (A') (A') (A") (A')
       Virtual   (A') (A') (A') (A') (A') (A') (A') (A') (A') (A')
                 (A') (A') (A') (A') (A') (A') (A') (A') (A") (A")
                 (A") (A") (A") (A") (A")
 Keep R1 ints in memory in symmetry-blocked form, NReq=978721.
 LinEq1:  Iter=  0 NonCon=     1 RMS=2.74D-04 Max=1.70D-03 NDo=     1
 AX will form     1 AO Fock derivatives at one time.
 LinEq1:  Iter=  1 NonCon=     1 RMS=9.21D-05 Max=5.40D-04 NDo=     1
 LinEq1:  Iter=  2 NonCon=     1 RMS=2.63D-05 Max=1.38D-04 NDo=     1
 LinEq1:  Iter=  3 NonCon=     1 RMS=7.18D-06 Max=3.64D-05 NDo=     1
 LinEq1:  Iter=  4 NonCon=     1 RMS=1.09D-06 Max=4.95D-06 NDo=     1
 LinEq1:  Iter=  5 NonCon=     1 RMS=2.16D-07 Max=1.16D-06 NDo=     1
 LinEq1:  Iter=  6 NonCon=     1 RMS=3.65D-08 Max=1.52D-07 NDo=     1
 LinEq1:  Iter=  7 NonCon=     1 RMS=5.82D-09 Max=2.76D-08 NDo=     1
 LinEq1:  Iter=  8 NonCon=     0 RMS=1.62D-09 Max=9.65D-09 NDo=     1
 Linear equations converged to 1.871D-09 1.871D-08 after     8 iterations.
     Minimum is close to point  2 DX=  8.61D-05 DF= -3.27D-13 DXR=  8.61D-05 DFR=  7.63D-09 which will be used.
 LinEq1:  Iter=  0 NonCon=     1 RMS=2.46D-07 Max=1.53D-06 NDo=     1
 LinEq1:  Iter=  1 NonCon=     1 RMS=9.24D-08 Max=5.94D-07 NDo=     1
 LinEq1:  Iter=  2 NonCon=     1 RMS=2.21D-08 Max=1.42D-07 NDo=     1
 LinEq1:  Iter=  3 NonCon=     1 RMS=4.22D-09 Max=2.37D-08 NDo=     1
 LinEq1:  Iter=  4 NonCon=     1 RMS=8.46D-10 Max=5.07D-09 NDo=     1
 LinEq1:  Iter=  5 NonCon=     1 RMS=1.64D-10 Max=1.16D-09 NDo=     1
 LinEq1:  Iter=  6 NonCon=     0 RMS=2.43D-11 Max=1.41D-10 NDo=     1
 Linear equations converged to 6.825D-11 6.825D-10 after     6 iterations.
 SCF Done:  E(RHF) =  -92.8525603834     a.u. after    3 cycles
            Convg  =    0.3551D-08                    18 Fock formations.
              S**2 =  0.0000                  -V/T =  2.0035
 Calling FoFJK, ICntrl=      2127 FMM=F ISym2X=1 I1Cent= 0 IOpClX= 0 NMat=1 NMatS=1 NMatT=0.
 ***** Axes restored to original set *****
 -------------------------------------------------------------------
 Center     Atomic                   Forces (Hartrees/Bohr)
 Number     Number              X              Y              Z
 -------------------------------------------------------------------
      1        7           0.006008673    0.000000000   -0.000328617
      2        6          -0.001041192    0.000000000   -0.042269095
      3        1          -0.004967481    0.000000000    0.042597712
 -------------------------------------------------------------------
 Cartesian Forces:  Max     0.042597712 RMS     0.020174829

 GradGradGradGradGradGradGradGradGradGradGradGradGradGradGradGradGradGrad
 Berny optimization.
 Using GEDIIS/GDIIS optimizer.
 FormGI is forming the generalized inverse of G from B-inverse, IUseBI=4.
 Internal  Forces:  Max     0.007105126 RMS     0.003530548
 Search for a local minimum.
 Step number   4 out of a maximum of   20 on scan point     1 out of    18
 All quantities printed in internal units (Hartrees-Bohrs-Radians)
 Mixed Optimization -- En-DIIS/RFO-DIIS
 Update second derivatives using D2CorX and points    1    2    3    4
 DE= -1.68D-04 DEPred=-1.49D-04 R= 1.13D+00
 TightC=F SS=  1.41D+00  RLast= 2.02D-02 DXNew= 9.6861D-01 6.0647D-02
 Trust test= 1.13D+00 RLast= 2.02D-02 DXMaxT set to 5.76D-01
 The second derivative matrix:
                          R1        R2        A1        A2        A3
           R1           0.65065
           R2          -0.19230   0.64409
           A1           0.00182  -0.00180   0.16001
           A2           0.02608  -0.02588   0.00011   0.00391
           A3           0.00000   0.00000   0.00000   0.00000   0.00230
 ITU=  1  1  1  0
 Use linear search instead of GDIIS.
     Eigenvalues ---    0.00230   0.841221000.000001000.000001000.00000
 RFO step:  Lambda= 0.00000000D+00 EMin= 2.30000000D-03
 Quartic linear search produced a step of -0.00781.
 Iteration  1 RMS(Cart)=  0.00004082 RMS(Int)=  0.00000001
 Iteration  2 RMS(Cart)=  0.00000000 RMS(Int)=  0.00000001
 Iteration  1 RMS(Cart)=  0.00000070 RMS(Int)=  0.00000194
 ClnCor:  largest displacement from symmetrization is 6.66D-16 for atom     2.
 Variable       Old X    -DE/DX   Delta X   Delta X   Delta X     New X
                                 (Linear)    (Quad)   (Total)
    R1        2.21507  -0.00030   0.00011   0.00000   0.00011   2.21518
    R2        1.94729  -0.00081  -0.00011   0.00000  -0.00011   1.94718
    A1        0.04364  -0.00333   0.00000   0.00000   0.00000   0.04364
    A2        3.23487  -0.00711   0.00001   0.00000   0.00000   3.23488
    A3        3.14159   0.00000   0.00000   0.00000   0.00000   3.14159
         Item               Value     Threshold  Converged?
 Maximum Force            0.000087     0.000015     NO 
 RMS     Force            0.000061     0.000010     NO 
 Maximum Displacement     0.000074     0.000060     NO 
 RMS     Displacement     0.000041     0.000040     NO 
 Predicted change in Energy=-2.611390D-08
 GradGradGradGradGradGradGradGradGradGradGradGradGradGradGradGradGradGrad

                          Input orientation:                          
 ---------------------------------------------------------------------
 Center     Atomic      Atomic             Coordinates (Angstroms)
 Number     Number       Type             X           Y           Z
 ---------------------------------------------------------------------
      1          7           0       -0.000117    0.000000   -0.114662
      2          6           0        0.002542    0.000000    1.057556
      3          1           0        0.093538    0.000000   -1.140800
 ---------------------------------------------------------------------
                    Distance matrix (angstroms):
                    1          2          3
     1  N    0.000000
     2  C    1.172221   0.000000
     3  H    1.030403   2.200239   0.000000
 Stoichiometry    CHN
 Framework group  CS[SG(CHN)]
 Deg. of freedom     3
 Full point group                 CS      NOp   2
 Largest Abelian subgroup         CS      NOp   2
 Largest concise Abelian subgroup C1      NOp   1
                         Standard orientation:                         
 ---------------------------------------------------------------------
 Center     Atomic      Atomic             Coordinates (Angstroms)
 Number     Number       Type             X           Y           Z
 ---------------------------------------------------------------------
      1          7           0        0.006856    0.429100    0.000000
      2          6           0        0.006856   -0.743121    0.000000
      3          1           0       -0.089126    1.455023    0.000000
 ---------------------------------------------------------------------
 Rotational constants (GHZ):  71721.3561821     44.8682339     44.8401823
 Standard basis: 6-31G(d) (6D, 7F)
 There are    24 symmetry adapted cartesian basis functions of A'  symmetry.
 There are     8 symmetry adapted cartesian basis functions of A"  symmetry.
 There are    24 symmetry adapted basis functions of A'  symmetry.
 There are     8 symmetry adapted basis functions of A"  symmetry.
    32 basis functions,    60 primitive gaussians,    32 cartesian basis functions
     7 alpha electrons        7 beta electrons
       nuclear repulsion energy        23.9981044994 Hartrees.
 NAtoms=    3 NActive=    3 NUniq=    3 SFac= 1.00D+00 NAtFMM=   60 NAOKFM=F Big=F
 Integral buffers will be    131072 words long.
 Raffenetti 1 integral format.
 Two-electron integral symmetry is turned on.
 One-electron integrals computed using PRISM.
 NBasis=    32 RedAO= T EigKep=  7.86D-03  NBF=    24     8
 NBsUse=    32 1.00D-06 EigRej= -1.00D+00 NBFU=    24     8
 Initial guess from the checkpoint file:  "ang-HNC.chk"
 B after Tr=     0.000000    0.000000    0.000000
         Rot=    1.000000    0.000000    0.000000    0.000000 Ang=   0.00 deg.
 Initial guess orbital symmetries:
       Occupied  (A') (A') (A') (A') (A') (A") (A')
       Virtual   (A') (A') (A') (A') (A') (A') (A') (A') (A') (A')
                 (A') (A') (A') (A') (A') (A') (A') (A') (A") (A")
                 (A") (A") (A") (A") (A")
 Keep R1 ints in memory in symmetry-blocked form, NReq=978721.
 LinEq1:  Iter=  0 NonCon=     1 RMS=2.15D-06 Max=1.34D-05 NDo=     1
 AX will form     1 AO Fock derivatives at one time.
 LinEq1:  Iter=  1 NonCon=     1 RMS=7.21D-07 Max=4.21D-06 NDo=     1
 LinEq1:  Iter=  2 NonCon=     1 RMS=2.06D-07 Max=1.06D-06 NDo=     1
 LinEq1:  Iter=  3 NonCon=     1 RMS=5.59D-08 Max=2.90D-07 NDo=     1
 LinEq1:  Iter=  4 NonCon=     1 RMS=8.46D-09 Max=3.93D-08 NDo=     1
 LinEq1:  Iter=  5 NonCon=     1 RMS=1.66D-09 Max=9.17D-09 NDo=     1
 LinEq1:  Iter=  6 NonCon=     0 RMS=2.75D-10 Max=1.16D-09 NDo=     1
 Linear equations converged to 6.533D-10 6.533D-09 after     6 iterations.
 SCF Done:  E(RHF) =  -92.8525604087     a.u. after    2 cycles
            Convg  =    0.1717D-07                     8 Fock formations.
              S**2 =  0.0000                  -V/T =  2.0035
 Calling FoFJK, ICntrl=      2127 FMM=F ISym2X=1 I1Cent= 0 IOpClX= 0 NMat=1 NMatS=1 NMatT=0.
 ***** Axes restored to original set *****
 -------------------------------------------------------------------
 Center     Atomic                   Forces (Hartrees/Bohr)
 Number     Number              X              Y              Z
 -------------------------------------------------------------------
      1        7           0.006003541    0.000000000   -0.000139088
      2        6          -0.001040977    0.000000000   -0.042408366
      3        1          -0.004962563    0.000000000    0.042547454
 -------------------------------------------------------------------
 Cartesian Forces:  Max     0.042547454 RMS     0.020194960

 GradGradGradGradGradGradGradGradGradGradGradGradGradGradGradGradGradGrad
 Berny optimization.
 Using GEDIIS/GDIIS optimizer.
 FormGI is forming the generalized inverse of G from B-inverse, IUseBI=4.
 Internal  Forces:  Max     0.007111060 RMS     0.003530780
 Search for a local minimum.
 Step number   5 out of a maximum of   20 on scan point     1 out of    18
 All quantities printed in internal units (Hartrees-Bohrs-Radians)
 Mixed Optimization -- En-DIIS/RFO-DIIS
 Swapping is turned off.
 Update second derivatives using D2CorX and points    1    2    3    4    5
 DE= -2.53D-08 DEPred=-2.61D-08 R= 9.69D-01
 Trust test= 9.69D-01 RLast= 1.58D-04 DXMaxT set to 5.76D-01
 The second derivative matrix:
                          R1        R2        A1        A2        A3
           R1           0.65536
           R2          -0.19701   0.64881
           A1           0.00273  -0.00269   0.16002
           A2           0.02662  -0.02641   0.00017   0.00396
           A3           0.00000   0.00000   0.00000   0.00000   0.00230
 ITU=  0  1  1  1  0
     Eigenvalues ---    0.00230   0.850681000.000001000.000001000.00000
 En-DIIS/RFO-DIIS IScMMF=        0 using points:     5    4
 RFO step:  Lambda=-1.97113135D-06.
 DidBck=F Rises=F RFO-DIIS coefs:    0.91147    0.08853
 Iteration  1 RMS(Cart)=  0.00000423 RMS(Int)=  0.00000135
 Iteration  2 RMS(Cart)=  0.00000000 RMS(Int)=  0.00000135
 Iteration  1 RMS(Cart)=  0.00000019 RMS(Int)=  0.00000052
 ClnCor:  largest displacement from symmetrization is 4.44D-16 for atom     3.
 Variable       Old X    -DE/DX   Delta X   Delta X   Delta X     New X
                                 (Linear)    (Quad)   (Total)
    R1        2.21518  -0.00039  -0.00001   0.00000  -0.00001   2.21517
    R2        1.94718  -0.00072   0.00001   0.00000   0.00001   1.94719
    A1        0.04364  -0.00333   0.00000   0.00000   0.00000   0.04363
    A2        3.23488  -0.00711   0.00000  -0.00001  -0.00001   3.23487
    A3        3.14159   0.00000   0.00000   0.00000   0.00000   3.14159
         Item               Value     Threshold  Converged?
 Maximum Force            0.000008     0.000015     YES
 RMS     Force            0.000006     0.000010     YES
 Maximum Displacement     0.000007     0.000060     YES
 RMS     Displacement     0.000004     0.000040     YES
 Predicted change in Energy=-5.404794D-08
 Optimization completed.
    -- Stationary point found.
                           ----------------------------
                           !   Optimized Parameters   !
                           ! (Angstroms and Degrees)  !
 --------------------------                            --------------------------
 ! Name  Definition              Value          Derivative Info.                !
 --------------------------------------------------------------------------------
 ! R1    R(1,2)                  1.1722         -DE/DX =   -0.0004              !
 ! R2    R(1,3)                  1.0304         -DE/DX =   -0.0007              !
 ! A1    A(1,2,3)                2.5002         -DE/DX =   -0.0033              !
 ! A2    L(2,1,3,-2,-1)        185.3448         -DE/DX =   -0.0071              !
 ! A3    L(2,1,3,-1,-2)        180.0            -DE/DX =    0.0                 !
 --------------------------------------------------------------------------------
 Iteration  1 RMS(Cart)=  0.02537558 RMS(Int)=  0.07068650
 Iteration  2 RMS(Cart)=  0.00078660 RMS(Int)=  0.07068011
 Iteration  3 RMS(Cart)=  0.00001047 RMS(Int)=  0.07068011
 Iteration  4 RMS(Cart)=  0.00000017 RMS(Int)=  0.07068011
 Iteration  1 RMS(Cart)=  0.02091183 RMS(Int)=  0.05792538
 Iteration  2 RMS(Cart)=  0.01724433 RMS(Int)=  0.06204394
 Iteration  3 RMS(Cart)=  0.01420897 RMS(Int)=  0.07068185
 Iteration  4 RMS(Cart)=  0.01169339 RMS(Int)=  0.08020873
 Iteration  5 RMS(Cart)=  0.00960955 RMS(Int)=  0.08913067
 Iteration  6 RMS(Cart)=  0.00788582 RMS(Int)=  0.09697187
 Iteration  7 RMS(Cart)=  0.00646264 RMS(Int)=  0.10366012
 Iteration  8 RMS(Cart)=  0.00528988 RMS(Int)=  0.10927392
 Iteration  9 RMS(Cart)=  0.00432534 RMS(Int)=  0.11394123
 Iteration 10 RMS(Cart)=  0.00353342 RMS(Int)=  0.11779816
 Iteration 11 RMS(Cart)=  0.00288423 RMS(Int)=  0.12097242
 Iteration 12 RMS(Cart)=  0.00235276 RMS(Int)=  0.12357738
 Iteration 13 RMS(Cart)=  0.00191816 RMS(Int)=  0.12571070
 Iteration 14 RMS(Cart)=  0.00156312 RMS(Int)=  0.12745509
 Iteration 15 RMS(Cart)=  0.00127332 RMS(Int)=  0.12887977
 Iteration 16 RMS(Cart)=  0.00103691 RMS(Int)=  0.13004231
 Iteration 17 RMS(Cart)=  0.00084418 RMS(Int)=  0.13099027
 Iteration 18 RMS(Cart)=  0.00068713 RMS(Int)=  0.13176284
 Iteration 19 RMS(Cart)=  0.00055919 RMS(Int)=  0.13239219
 Iteration 20 RMS(Cart)=  0.00045502 RMS(Int)=  0.13290470
 Iteration 21 RMS(Cart)=  0.00037020 RMS(Int)=  0.13332194
 Iteration 22 RMS(Cart)=  0.00030117 RMS(Int)=  0.13366156
 Iteration 23 RMS(Cart)=  0.00024499 RMS(Int)=  0.13393793
 Iteration 24 RMS(Cart)=  0.00019928 RMS(Int)=  0.13416281
 Iteration 25 RMS(Cart)=  0.00016209 RMS(Int)=  0.13434578
 Iteration 26 RMS(Cart)=  0.00013183 RMS(Int)=  0.13449462
 Iteration 27 RMS(Cart)=  0.00010722 RMS(Int)=  0.13461569
 Iteration 28 RMS(Cart)=  0.00008720 RMS(Int)=  0.13471417
 Iteration 29 RMS(Cart)=  0.00007092 RMS(Int)=  0.13479427
 Iteration 30 RMS(Cart)=  0.00005767 RMS(Int)=  0.13485942
 Iteration 31 RMS(Cart)=  0.00004690 RMS(Int)=  0.13491241
 Iteration 32 RMS(Cart)=  0.00003814 RMS(Int)=  0.13495550
 Iteration 33 RMS(Cart)=  0.00003102 RMS(Int)=  0.13499055
 Iteration 34 RMS(Cart)=  0.00002522 RMS(Int)=  0.13501905
 Iteration 35 RMS(Cart)=  0.00002051 RMS(Int)=  0.13504223
 Iteration 36 RMS(Cart)=  0.00001668 RMS(Int)=  0.13506108
 Iteration 37 RMS(Cart)=  0.00001357 RMS(Int)=  0.13507640
 Iteration 38 RMS(Cart)=  0.00001103 RMS(Int)=  0.13508887
 Iteration 39 RMS(Cart)=  0.00000897 RMS(Int)=  0.13509901
 Iteration 40 RMS(Cart)=  0.00000729 RMS(Int)=  0.13510725
 Iteration 41 RMS(Cart)=  0.00000593 RMS(Int)=  0.13511395
 Iteration 42 RMS(Cart)=  0.00000482 RMS(Int)=  0.13511940
 Iteration 43 RMS(Cart)=  0.00000392 RMS(Int)=  0.13512384
 Iteration 44 RMS(Cart)=  0.00000319 RMS(Int)=  0.13512744
 Iteration 45 RMS(Cart)=  0.00000259 RMS(Int)=  0.13513037
 Iteration 46 RMS(Cart)=  0.00000211 RMS(Int)=  0.13513276
 Iteration 47 RMS(Cart)=  0.00000172 RMS(Int)=  0.13513470
 Iteration 48 RMS(Cart)=  0.00000139 RMS(Int)=  0.13513627
 Iteration 49 RMS(Cart)=  0.00000113 RMS(Int)=  0.13513755
 Iteration 50 RMS(Cart)=  0.00000092 RMS(Int)=  0.13513860
 GradGradGradGradGradGradGradGradGradGradGradGradGradGradGradGradGradGrad

                          Input orientation:                          
 ---------------------------------------------------------------------
 Center     Atomic      Atomic             Coordinates (Angstroms)
 Number     Number       Type             X           Y           Z
 ---------------------------------------------------------------------
      1          7           0       -0.133512    0.000000   -0.112759
      2          6           0        0.065718    0.000000    1.030606
      3          1           0        0.163756    0.000000   -1.115753
 ---------------------------------------------------------------------
                    Distance matrix (angstroms):
                    1          2          3
     1  N    0.000000
     2  C    1.160593   0.000000
     3  H    1.046119   2.148597   0.000000
 Stoichiometry    CHN
 Framework group  CS[SG(CHN)]
 Deg. of freedom     3
 Full point group                 CS      NOp   2
 Largest Abelian subgroup         CS      NOp   2
 Largest concise Abelian subgroup C1      NOp   1
                         Standard orientation:                         
 ---------------------------------------------------------------------
 Center     Atomic      Atomic             Coordinates (Angstroms)
 Number     Number       Type             X           Y           Z
 ---------------------------------------------------------------------
      1          7           0        0.033217    0.430463    0.000000
      2          6           0        0.033217   -0.730130    0.000000
      3          1           0       -0.431815    1.367539    0.000000
 ---------------------------------------------------------------------
 Rotational constants (GHZ):   3002.4488365     46.5783314     45.8667795
 Standard basis: 6-31G(d) (6D, 7F)
 There are    24 symmetry adapted cartesian basis functions of A'  symmetry.
 There are     8 symmetry adapted cartesian basis functions of A"  symmetry.
 There are    24 symmetry adapted basis functions of A'  symmetry.
 There are     8 symmetry adapted basis functions of A"  symmetry.
    32 basis functions,    60 primitive gaussians,    32 cartesian basis functions
     7 alpha electrons        7 beta electrons
       nuclear repulsion energy        24.1687488677 Hartrees.
 NAtoms=    3 NActive=    3 NUniq=    3 SFac= 1.00D+00 NAtFMM=   60 NAOKFM=F Big=F
 Integral buffers will be    131072 words long.
 Raffenetti 1 integral format.
 Two-electron integral symmetry is turned on.
 One-electron integrals computed using PRISM.
 NBasis=    32 RedAO= T EigKep=  8.20D-03  NBF=    24     8
 NBsUse=    32 1.00D-06 EigRej= -1.00D+00 NBFU=    24     8
 Initial guess from the checkpoint file:  "ang-HNC.chk"
 B after Tr=     0.000000    0.000000    0.000000
         Rot=    0.999145    0.000000    0.000000   -0.041337 Ang=  -4.74 deg.
 Initial guess orbital symmetries:
       Occupied  (A') (A') (A') (A') (A') (A") (A')
       Virtual   (A') (A') (A') (A') (A') (A') (A') (A') (A') (A')
                 (A') (A') (A') (A') (A') (A') (A') (A') (A") (A")
                 (A") (A") (A") (A") (A")
 Keep R1 ints in memory in symmetry-blocked form, NReq=978721.
 Gradient too large for Newton-Raphson -- use scaled steepest descent instead.
 Gradient too large for Newton-Raphson -- use scaled steepest descent instead.
     Accept linear search using points  2 and  3.
 Gradient too large for Newton-Raphson -- use scaled steepest descent instead.
 Gradient too large for Newton-Raphson -- use scaled steepest descent instead.
     Accept linear search using points  1 and  2.
 Gradient too large for Newton-Raphson -- use scaled steepest descent instead.
     Accept linear search using points  1 and  2.
     Minimum is close to point  2 DX= -4.94D-02 DF= -2.27D-07 DXR=  4.70D-02 DFR=  2.60D-03 which will be used.
 Gradient too large for Newton-Raphson -- use scaled steepest descent instead.
     Accept linear search using points  1 and  2.
 LinEq1:  Iter=  0 NonCon=     1 RMS=4.10D-04 Max=3.55D-03 NDo=     1
 AX will form     1 AO Fock derivatives at one time.
 LinEq1:  Iter=  1 NonCon=     1 RMS=6.15D-05 Max=4.61D-04 NDo=     1
 LinEq1:  Iter=  2 NonCon=     1 RMS=2.81D-05 Max=2.67D-04 NDo=     1
 LinEq1:  Iter=  3 NonCon=     1 RMS=1.08D-05 Max=7.43D-05 NDo=     1
 LinEq1:  Iter=  4 NonCon=     1 RMS=3.01D-06 Max=1.62D-05 NDo=     1
 LinEq1:  Iter=  5 NonCon=     1 RMS=6.70D-07 Max=3.45D-06 NDo=     1
 LinEq1:  Iter=  6 NonCon=     1 RMS=1.19D-07 Max=4.98D-07 NDo=     1
 LinEq1:  Iter=  7 NonCon=     1 RMS=2.81D-08 Max=1.21D-07 NDo=     1
 LinEq1:  Iter=  8 NonCon=     1 RMS=3.86D-09 Max=1.84D-08 NDo=     1
 LinEq1:  Iter=  9 NonCon=     0 RMS=6.13D-10 Max=3.17D-09 NDo=     1
 Linear equations converged to 1.871D-09 1.871D-08 after     9 iterations.
     Accept linear search using points  1 and  2.
     Minimum is close to point  2 DX= -5.62D-04 DF= -2.93D-11 DXR=  5.63D-04 DFR=  3.17D-07 which will be used.
 LinEq1:  Iter=  0 NonCon=     1 RMS=1.39D-06 Max=6.58D-06 NDo=     1
 LinEq1:  Iter=  1 NonCon=     1 RMS=6.86D-07 Max=6.02D-06 NDo=     1
 LinEq1:  Iter=  2 NonCon=     1 RMS=2.45D-07 Max=1.84D-06 NDo=     1
 LinEq1:  Iter=  3 NonCon=     1 RMS=6.85D-08 Max=4.11D-07 NDo=     1
 LinEq1:  Iter=  4 NonCon=     1 RMS=1.23D-08 Max=5.71D-08 NDo=     1
 LinEq1:  Iter=  5 NonCon=     1 RMS=2.09D-09 Max=9.61D-09 NDo=     1
 LinEq1:  Iter=  6 NonCon=     0 RMS=3.63D-10 Max=1.71D-09 NDo=     1
 Linear equations converged to 4.117D-10 4.117D-09 after     6 iterations.
 SCF Done:  E(RHF) =  -92.8491831573     a.u. after    9 cycles
            Convg  =    0.3519D-07                    34 Fock formations.
              S**2 =  0.0000                  -V/T =  2.0028
 Calling FoFJK, ICntrl=      2127 FMM=F ISym2X=1 I1Cent= 0 IOpClX= 0 NMat=1 NMatS=1 NMatT=0.
 ***** Axes restored to original set *****
 -------------------------------------------------------------------
 Center     Atomic                   Forces (Hartrees/Bohr)
 Number     Number              X              Y              Z
 -------------------------------------------------------------------
      1        7           0.025873946    0.000000000   -0.049002783
      2        6          -0.005320044    0.000000000    0.000349699
      3        1          -0.020553902    0.000000000    0.048653084
 -------------------------------------------------------------------
 Cartesian Forces:  Max     0.049002783 RMS     0.025579385

 GradGradGradGradGradGradGradGradGradGradGradGradGradGradGradGradGradGrad
 Berny optimization.
 FormGI is forming the generalized inverse of G from B-inverse, IUseBI=4.
 Internal  Forces:  Max     0.032693833 RMS     0.019696246
 Search for a local minimum.
 Step number   1 out of a maximum of   20 on scan point     2 out of    18
 All quantities printed in internal units (Hartrees-Bohrs-Radians)
 Mixed Optimization -- RFO/linear search
 Second derivative matrix not updated -- first step.
 The second derivative matrix:
                          R1        R2        A1        A2        A3
           R1           0.65536
           R2          -0.19701   0.64881
           A1           0.00273  -0.00269   0.16002
           A2           0.02662  -0.02641   0.00017   0.00396
           A3           0.00000   0.00000   0.00000   0.00000   0.00230
 ITU=  0
     Eigenvalues ---    0.00230   0.835671000.000001000.000001000.00000
 RFO step:  Lambda=-1.12844229D-03 EMin= 2.30000000D-03
 Linear search not attempted -- first point.
 Iteration  1 RMS(Cart)=  0.00978432 RMS(Int)=  0.00002523
 Iteration  2 RMS(Cart)=  0.00001497 RMS(Int)=  0.00001443
 Iteration  3 RMS(Cart)=  0.00000000 RMS(Int)=  0.00001443
 Iteration  1 RMS(Cart)=  0.00000517 RMS(Int)=  0.00001370
 Iteration  2 RMS(Cart)=  0.00000423 RMS(Int)=  0.00001469
 Iteration  3 RMS(Cart)=  0.00000345 RMS(Int)=  0.00001674
 Iteration  4 RMS(Cart)=  0.00000282 RMS(Int)=  0.00001900
 Iteration  5 RMS(Cart)=  0.00000231 RMS(Int)=  0.00002110
 Iteration  6 RMS(Cart)=  0.00000188 RMS(Int)=  0.00002295
 Iteration  7 RMS(Cart)=  0.00000154 RMS(Int)=  0.00002452
 Iteration  8 RMS(Cart)=  0.00000126 RMS(Int)=  0.00002584
 Iteration  9 RMS(Cart)=  0.00000103 RMS(Int)=  0.00002694
 Iteration 10 RMS(Cart)=  0.00000084 RMS(Int)=  0.00002786
 ClnCor:  largest displacement from symmetrization is 1.33D-15 for atom     3.
 Variable       Old X    -DE/DX   Delta X   Delta X   Delta X     New X
                                 (Linear)    (Quad)   (Total)
    R1        2.19320   0.01770   0.00000   0.02787   0.02786   2.22106
    R2        1.97688  -0.03269   0.00000  -0.02314  -0.02313   1.95375
    A1        0.21816  -0.01238   0.00000   0.00000   0.00000   0.21816
    A2        3.60224  -0.02010   0.00000   0.00604   0.00611   3.60836
    A3        3.14159   0.00000   0.00000   0.00000   0.00000   3.14159
         Item               Value     Threshold  Converged?
 Maximum Force            0.023321     0.000015     NO 
 RMS     Force            0.015365     0.000010     NO 
 Maximum Displacement     0.017388     0.000060     NO 
 RMS     Displacement     0.009787     0.000040     NO 
 Predicted change in Energy=-5.633010D-04
 GradGradGradGradGradGradGradGradGradGradGradGradGradGradGradGradGradGrad

                          Input orientation:                          
 ---------------------------------------------------------------------
 Center     Atomic      Atomic             Coordinates (Angstroms)
 Number     Number       Type             X           Y           Z
 ---------------------------------------------------------------------
      1          7           0       -0.135266    0.000000   -0.121960
      2          6           0        0.067578    0.000000    1.035739
      3          1           0        0.163651    0.000000   -1.111685
 ---------------------------------------------------------------------
                    Distance matrix (angstroms):
                    1          2          3
     1  N    0.000000
     2  C    1.175336   0.000000
     3  H    1.033880   2.149573   0.000000
 Stoichiometry    CHN
 Framework group  CS[SG(CHN)]
 Deg. of freedom     3
 Full point group                 CS      NOp   2
 Largest Abelian subgroup         CS      NOp   2
 Largest concise Abelian subgroup C1      NOp   1
                         Standard orientation:                         
 ---------------------------------------------------------------------
 Center     Atomic      Atomic             Coordinates (Angstroms)
 Number     Number       Type             X           Y           Z
 ---------------------------------------------------------------------
      1          7           0        0.033232    0.437767    0.000000
      2          6           0        0.033232   -0.737570    0.000000
      3          1           0       -0.432012    1.361052    0.000000
 ---------------------------------------------------------------------
 Rotational constants (GHZ):   2979.2529320     45.7290346     45.0377430
 Standard basis: 6-31G(d) (6D, 7F)
 There are    24 symmetry adapted cartesian basis functions of A'  symmetry.
 There are     8 symmetry adapted cartesian basis functions of A"  symmetry.
 There are    24 symmetry adapted basis functions of A'  symmetry.
 There are     8 symmetry adapted basis functions of A"  symmetry.
    32 basis functions,    60 primitive gaussians,    32 cartesian basis functions
     7 alpha electrons        7 beta electrons
       nuclear repulsion energy        23.9697844363 Hartrees.
 NAtoms=    3 NActive=    3 NUniq=    3 SFac= 1.00D+00 NAtFMM=   60 NAOKFM=F Big=F
 Integral buffers will be    131072 words long.
 Raffenetti 1 integral format.
 Two-electron integral symmetry is turned on.
 One-electron integrals computed using PRISM.
 NBasis=    32 RedAO= T EigKep=  8.65D-03  NBF=    24     8
 NBsUse=    32 1.00D-06 EigRej= -1.00D+00 NBFU=    24     8
 Initial guess from the checkpoint file:  "ang-HNC.chk"
 B after Tr=     0.000000    0.000000    0.000000
         Rot=    1.000000    0.000000    0.000000   -0.000250 Ang=  -0.03 deg.
 Initial guess orbital symmetries:
       Occupied  (A') (A') (A') (A') (A') (A") (A')
       Virtual   (A') (A') (A') (A') (A') (A') (A') (A') (A') (A')
                 (A') (A') (A') (A') (A') (A') (A') (A') (A") (A")
                 (A") (A") (A") (A") (A")
 Keep R1 ints in memory in symmetry-blocked form, NReq=978721.
 Gradient too large for Newton-Raphson -- use scaled steepest descent instead.
     Accept linear search using points  3 and  4.
 LinEq1:  Iter=  0 NonCon=     1 RMS=1.99D-04 Max=1.27D-03 NDo=     1
 AX will form     1 AO Fock derivatives at one time.
 LinEq1:  Iter=  1 NonCon=     1 RMS=3.15D-05 Max=2.01D-04 NDo=     1
 LinEq1:  Iter=  2 NonCon=     1 RMS=1.69D-05 Max=1.56D-04 NDo=     1
 LinEq1:  Iter=  3 NonCon=     1 RMS=6.99D-06 Max=5.92D-05 NDo=     1
 LinEq1:  Iter=  4 NonCon=     1 RMS=2.10D-06 Max=1.01D-05 NDo=     1
 LinEq1:  Iter=  5 NonCon=     1 RMS=5.03D-07 Max=2.67D-06 NDo=     1
 LinEq1:  Iter=  6 NonCon=     1 RMS=8.88D-08 Max=4.19D-07 NDo=     1
 LinEq1:  Iter=  7 NonCon=     1 RMS=1.47D-08 Max=9.75D-08 NDo=     1
 LinEq1:  Iter=  8 NonCon=     1 RMS=1.90D-09 Max=1.02D-08 NDo=     1
 LinEq1:  Iter=  9 NonCon=     0 RMS=2.20D-10 Max=1.06D-09 NDo=     1
 Linear equations converged to 1.871D-09 1.871D-08 after     9 iterations.
     Minimum is close to point  2 DX=  7.05D-05 DF= -1.42D-13 DXR=  7.05D-05 DFR=  4.70D-09 which will be used.
 LinEq1:  Iter=  0 NonCon=     1 RMS=1.60D-07 Max=1.22D-06 NDo=     1
 LinEq1:  Iter=  1 NonCon=     1 RMS=6.83D-08 Max=4.94D-07 NDo=     1
 LinEq1:  Iter=  2 NonCon=     1 RMS=1.92D-08 Max=1.61D-07 NDo=     1
 LinEq1:  Iter=  3 NonCon=     1 RMS=6.42D-09 Max=4.82D-08 NDo=     1
 LinEq1:  Iter=  4 NonCon=     1 RMS=1.05D-09 Max=4.34D-09 NDo=     1
 LinEq1:  Iter=  5 NonCon=     1 RMS=2.33D-10 Max=1.20D-09 NDo=     1
 LinEq1:  Iter=  6 NonCon=     0 RMS=3.62D-11 Max=3.06D-10 NDo=     1
 Linear equations converged to 3.642D-11 3.642D-10 after     6 iterations.
 SCF Done:  E(RHF) =  -92.8497009590     a.u. after    4 cycles
            Convg  =    0.3850D-08                    23 Fock formations.
              S**2 =  0.0000                  -V/T =  2.0034
 Calling FoFJK, ICntrl=      2127 FMM=F ISym2X=1 I1Cent= 0 IOpClX= 0 NMat=1 NMatS=1 NMatT=0.
 ***** Axes restored to original set *****
 -------------------------------------------------------------------
 Center     Atomic                   Forces (Hartrees/Bohr)
 Number     Number              X              Y              Z
 -------------------------------------------------------------------
      1        7           0.028277418    0.000000000   -0.004660466
      2        6          -0.010840641    0.000000000   -0.034497631
      3        1          -0.017436777    0.000000000    0.039158097
 -------------------------------------------------------------------
 Cartesian Forces:  Max     0.039158097 RMS     0.020992951

 GradGradGradGradGradGradGradGradGradGradGradGradGradGradGradGradGradGrad
 Berny optimization.
 Using GEDIIS/GDIIS optimizer.
 FormGI is forming the generalized inverse of G from B-inverse, IUseBI=4.
 Internal  Forces:  Max     0.026695426 RMS     0.014825400
 Search for a local minimum.
 Step number   2 out of a maximum of   20 on scan point     2 out of    18
 All quantities printed in internal units (Hartrees-Bohrs-Radians)
 Mixed Optimization -- RFO/linear search
 Update second derivatives using D2CorX and points    1    2
 DE= -5.18D-04 DEPred=-5.63D-04 R= 9.19D-01
 TightC=F SS=  1.41D+00  RLast= 3.67D-02 DXNew= 9.6861D-01 1.1017D-01
 Trust test= 9.19D-01 RLast= 3.67D-02 DXMaxT set to 5.76D-01
 The second derivative matrix:
                          R1        R2        A1        A2        A3
           R1           0.72018
           R2          -0.19423   0.59841
           A1           0.00891  -0.00722   0.16015
           A2           0.13702  -0.10982   0.00234   0.03822
           A3           0.00000   0.00000   0.00000   0.00000   0.00230
 ITU=  1  0
 Use linear search instead of GDIIS.
     Eigenvalues ---    0.00230   0.896471000.000001000.000001000.00000
 RFO step:  Lambda= 0.00000000D+00 EMin= 2.30000000D-03
 Quartic linear search produced a step of -0.06933.
 Iteration  1 RMS(Cart)=  0.00067847 RMS(Int)=  0.00000096
 Iteration  2 RMS(Cart)=  0.00000008 RMS(Int)=  0.00000095
 Iteration  1 RMS(Cart)=  0.00000040 RMS(Int)=  0.00000105
 ClnCor:  largest displacement from symmetrization is 4.48D-16 for atom     3.
 Variable       Old X    -DE/DX   Delta X   Delta X   Delta X     New X
                                 (Linear)    (Quad)   (Total)
    R1        2.22106  -0.00769  -0.00193   0.00000  -0.00193   2.21913
    R2        1.95375  -0.01277   0.00160   0.00000   0.00160   1.95535
    A1        0.21816  -0.01281   0.00000   0.00000   0.00000   0.21816
    A2        3.60836  -0.02670  -0.00042   0.00000  -0.00042   3.60793
    A3        3.14159   0.00000   0.00000   0.00000   0.00000   3.14159
         Item               Value     Threshold  Converged?
 Maximum Force            0.001769     0.000015     NO 
 RMS     Force            0.001164     0.000010     NO 
 Maximum Displacement     0.001206     0.000060     NO 
 RMS     Displacement     0.000678     0.000040     NO 
 Predicted change in Energy=-2.751534D-06
 GradGradGradGradGradGradGradGradGradGradGradGradGradGradGradGradGradGrad

                          Input orientation:                          
 ---------------------------------------------------------------------
 Center     Atomic      Atomic             Coordinates (Angstroms)
 Number     Number       Type             X           Y           Z
 ---------------------------------------------------------------------
      1          7           0       -0.135146    0.000000   -0.121322
      2          6           0        0.067450    0.000000    1.035384
      3          1           0        0.163659    0.000000   -1.111967
 ---------------------------------------------------------------------
                    Distance matrix (angstroms):
                    1          2          3
     1  N    0.000000
     2  C    1.174314   0.000000
     3  H    1.034728   2.149505   0.000000
 Stoichiometry    CHN
 Framework group  CS[SG(CHN)]
 Deg. of freedom     3
 Full point group                 CS      NOp   2
 Largest Abelian subgroup         CS      NOp   2
 Largest concise Abelian subgroup C1      NOp   1
                         Standard orientation:                         
 ---------------------------------------------------------------------
 Center     Atomic      Atomic             Coordinates (Angstroms)
 Number     Number       Type             X           Y           Z
 ---------------------------------------------------------------------
      1          7           0        0.033231    0.437260    0.000000
      2          6           0        0.033231   -0.737054    0.000000
      3          1           0       -0.432003    1.361500    0.000000
 ---------------------------------------------------------------------
 Rotational constants (GHZ):   2980.7661399     45.7873120     45.0946172
 Standard basis: 6-31G(d) (6D, 7F)
 There are    24 symmetry adapted cartesian basis functions of A'  symmetry.
[...]
            Convg  =    0.2843D-08                    27 Fock formations.
              S**2 =  0.0000                  -V/T =  2.0020
 Calling FoFJK, ICntrl=      2127 FMM=F ISym2X=1 I1Cent= 0 IOpClX= 0 NMat=1 NMatS=1 NMatT=0.
 ***** Axes restored to original set *****
 -------------------------------------------------------------------
 Center     Atomic                   Forces (Hartrees/Bohr)
 Number     Number              X              Y              Z
 -------------------------------------------------------------------
      1        7           0.034954623    0.000000000   -0.054075494
      2        6           0.017534424    0.000000000    0.016524915
      3        1          -0.052489047    0.000000000    0.037550579
 -------------------------------------------------------------------
 Cartesian Forces:  Max     0.054075494 RMS     0.031431866

 GradGradGradGradGradGradGradGradGradGradGradGradGradGradGradGradGradGrad
 Berny optimization.
 Using GEDIIS/GDIIS optimizer.
 FormGI is forming the generalized inverse of G from B-inverse, IUseBI=4.
 Internal  Forces:  Max     0.050374840 RMS     0.027547314
 Search for a local minimum.
 Step number   3 out of a maximum of   20 on scan point     6 out of    18
 All quantities printed in internal units (Hartrees-Bohrs-Radians)
 Mixed Optimization -- En-DIIS/RFO-DIIS
 Update second derivatives using D2CorX and points    1    2    3
 DE= -1.17D-03 DEPred=-9.59D-04 R= 1.22D+00
 TightC=F SS=  1.41D+00  RLast= 5.03D-02 DXNew= 5.7594D-01 1.5081D-01
 Trust test= 1.22D+00 RLast= 5.03D-02 DXMaxT set to 3.42D-01
 The second derivative matrix:
                          R1        R2        A1        A2        A3
           R1           1.05978
           R2          -0.08956   0.22637
           A1          -0.21520   0.09367   0.23021
           A2           0.15773   0.09170   0.00431   0.07543
           A3           0.00000   0.00000   0.00000   0.00000   0.00230
 ITU=  1  1  0
 Use linear search instead of GDIIS.
     Eigenvalues ---    0.00230   0.922361000.000001000.000001000.00000
 RFO step:  Lambda= 0.00000000D+00 EMin= 2.30000000D-03
 Quartic linear search produced a step of -0.00362.
 Iteration  1 RMS(Cart)=  0.00005397 RMS(Int)=  0.00000004
 Iteration  2 RMS(Cart)=  0.00000000 RMS(Int)=  0.00000004
 Iteration  1 RMS(Cart)=  0.00000055 RMS(Int)=  0.00000084
 ClnCor:  largest displacement from symmetrization is 2.48D-16 for atom     3.
 Variable       Old X    -DE/DX   Delta X   Delta X   Delta X     New X
                                 (Linear)    (Quad)   (Total)
    R1        2.22250   0.02197   0.00016   0.00000   0.00016   2.22267
    R2        2.31940  -0.05037   0.00006   0.00000   0.00006   2.31946
    A1        0.91630  -0.02543   0.00000   0.00000   0.00000   0.91630
    A2        4.92153  -0.01129   0.00006   0.00000   0.00006   4.92159
    A3        3.14159   0.00000   0.00000   0.00000   0.00000   3.14159
         Item               Value     Threshold  Converged?
 Maximum Force            0.000941     0.000015     NO 
 RMS     Force            0.000528     0.000010     NO 
 Maximum Displacement     0.000082     0.000060     NO 
 RMS     Displacement     0.000054     0.000040     NO 
 Predicted change in Energy=-6.983700D-08
 GradGradGradGradGradGradGradGradGradGradGradGradGradGradGradGradGradGrad

                          Input orientation:                          
 ---------------------------------------------------------------------
 Center     Atomic      Atomic             Coordinates (Angstroms)
 Number     Number       Type             X           Y           Z
 ---------------------------------------------------------------------
      1          7           0       -0.590327    0.000000   -0.087252
      2          6           0        0.284373    0.000000    0.699076
      3          1           0        0.401917    0.000000   -0.809730
 ---------------------------------------------------------------------
                    Distance matrix (angstroms):
                    1          2          3
     1  N    0.000000
     2  C    1.176185   0.000000
     3  H    1.227405   1.513378   0.000000
 Stoichiometry    CHN
 Framework group  CS[SG(CHN)]
 Deg. of freedom     3
 Full point group                 CS      NOp   2
 Largest Abelian subgroup         CS      NOp   2
 Largest concise Abelian subgroup C1      NOp   1
                         Standard orientation:                         
 ---------------------------------------------------------------------
 Center     Atomic      Atomic             Coordinates (Angstroms)
 Number     Number       Type             X           Y           Z
 ---------------------------------------------------------------------
      1          7           0        0.085760    0.522286    0.000000
      2          6           0        0.085760   -0.653898    0.000000
      3          1           0       -1.114884    0.267386    0.000000
 ---------------------------------------------------------------------
 Rotational constants (GHZ):    365.1865702     55.9356584     48.5059915
 Standard basis: 6-31G(d) (6D, 7F)
 There are    24 symmetry adapted cartesian basis functions of A'  symmetry.
 There are     8 symmetry adapted cartesian basis functions of A"  symmetry.
 There are    24 symmetry adapted basis functions of A'  symmetry.
 There are     8 symmetry adapted basis functions of A"  symmetry.
    32 basis functions,    60 primitive gaussians,    32 cartesian basis functions
     7 alpha electrons        7 beta electrons
       nuclear repulsion energy        24.0121615075 Hartrees.
 NAtoms=    3 NActive=    3 NUniq=    3 SFac= 1.00D+00 NAtFMM=   60 NAOKFM=F Big=F
 Integral buffers will be    131072 words long.
 Raffenetti 1 integral format.
 Two-electron integral symmetry is turned on.
 One-electron integrals computed using PRISM.
 NBasis=    32 RedAO= T EigKep=  8.89D-03  NBF=    24     8
 NBsUse=    32 1.00D-06 EigRej= -1.00D+00 NBFU=    24     8
 Initial guess from the checkpoint file:  "ang-HNC.chk"
 B after Tr=     0.000000    0.000000    0.000000
         Rot=    1.000000    0.000000    0.000000   -0.000004 Ang=   0.00 deg.
 Initial guess orbital symmetries:
       Occupied  (A') (A') (A') (A') (A') (A") (A')
       Virtual   (A') (A') (A') (A') (A') (A') (A') (A') (A') (A')
                 (A') (A') (A') (A') (A') (A') (A') (A') (A") (A")
                 (A") (A") (A") (A") (A")
 Keep R1 ints in memory in symmetry-blocked form, NReq=978791.
 LinEq1:  Iter=  0 NonCon=     1 RMS=3.19D-06 Max=1.92D-05 NDo=     1
 AX will form     1 AO Fock derivatives at one time.
 LinEq1:  Iter=  1 NonCon=     1 RMS=1.15D-06 Max=5.73D-06 NDo=     1
 LinEq1:  Iter=  2 NonCon=     1 RMS=4.39D-07 Max=2.28D-06 NDo=     1
 LinEq1:  Iter=  3 NonCon=     1 RMS=1.53D-07 Max=9.59D-07 NDo=     1
 LinEq1:  Iter=  4 NonCon=     1 RMS=2.34D-08 Max=1.49D-07 NDo=     1
 LinEq1:  Iter=  5 NonCon=     1 RMS=6.36D-09 Max=3.74D-08 NDo=     1
 LinEq1:  Iter=  6 NonCon=     1 RMS=1.10D-09 Max=5.05D-09 NDo=     1
 LinEq1:  Iter=  7 NonCon=     0 RMS=1.34D-10 Max=7.06D-10 NDo=     1
 Linear equations converged to 8.529D-10 8.529D-09 after     7 iterations.
 SCF Done:  E(RHF) =  -92.8043191180     a.u. after    2 cycles
            Convg  =    0.2248D-07                     9 Fock formations.
              S**2 =  0.0000                  -V/T =  2.0020
 Calling FoFJK, ICntrl=      2127 FMM=F ISym2X=1 I1Cent= 0 IOpClX= 0 NMat=1 NMatS=1 NMatT=0.
 ***** Axes restored to original set *****
 -------------------------------------------------------------------
 Center     Atomic                   Forces (Hartrees/Bohr)
 Number     Number              X              Y              Z
 -------------------------------------------------------------------
      1        7           0.035107751    0.000000000   -0.053937599
      2        6           0.017383464    0.000000000    0.016388541
      3        1          -0.052491215    0.000000000    0.037549059
 -------------------------------------------------------------------
 Cartesian Forces:  Max     0.053937599 RMS     0.031407443

 GradGradGradGradGradGradGradGradGradGradGradGradGradGradGradGradGradGrad
 Berny optimization.
 Using GEDIIS/GDIIS optimizer.
 FormGI is forming the generalized inverse of G from B-inverse, IUseBI=4.
 Internal  Forces:  Max     0.050378102 RMS     0.027515655
 Search for a local minimum.
 Step number   4 out of a maximum of   20 on scan point     6 out of    18
 All quantities printed in internal units (Hartrees-Bohrs-Radians)
 Mixed Optimization -- En-DIIS/RFO-DIIS
 Swapping is turned off.
 Update second derivatives using D2CorX and points    1    2    3    4
 DE= -1.49D-07 DEPred=-6.98D-08 R= 2.14D+00
 Trust test= 2.14D+00 RLast= 1.82D-04 DXMaxT set to 3.42D-01
 The second derivative matrix:
                          R1        R2        A1        A2        A3
           R1           1.13324
           R2          -0.09050   0.22633
           A1          -0.22419   0.09388   0.23117
           A2           0.17838   0.09161   0.00153   0.08077
           A3           0.00000   0.00000   0.00000   0.00000   0.00230
 ITU=  0  1  1  0
     Eigenvalues ---    0.00230   0.991471000.000001000.000001000.00000
 En-DIIS/RFO-DIIS IScMMF=        0 using points:     4    3
 RFO step:  Lambda=-1.21205522D-04.
 DidBck=T Rises=F RFO-DIIS coefs:   -5.66089    6.66089
 Iteration  1 RMS(Cart)=  0.00036513 RMS(Int)=  0.00000960
 Iteration  2 RMS(Cart)=  0.00000009 RMS(Int)=  0.00000960
 Iteration  1 RMS(Cart)=  0.00000301 RMS(Int)=  0.00000460
 Iteration  2 RMS(Cart)=  0.00000211 RMS(Int)=  0.00000506
 Iteration  3 RMS(Cart)=  0.00000148 RMS(Int)=  0.00000584
 Iteration  4 RMS(Cart)=  0.00000104 RMS(Int)=  0.00000652
 Iteration  5 RMS(Cart)=  0.00000073 RMS(Int)=  0.00000706
 ClnCor:  largest displacement from symmetrization is 1.99D-15 for atom     3.
 Variable       Old X    -DE/DX   Delta X   Delta X   Delta X     New X
                                 (Linear)    (Quad)   (Total)
    R1        2.22267   0.02177  -0.00109   0.00000  -0.00110   2.22157
    R2        2.31946  -0.05038  -0.00038  -0.00006  -0.00043   2.31903
    A1        0.91630  -0.02540   0.00000   0.00000   0.00000   0.91630
    A2        4.92159  -0.01133  -0.00037  -0.00002  -0.00037   4.92122
    A3        3.14159   0.00000   0.00000   0.00000   0.00000   3.14159
         Item               Value     Threshold  Converged?
 Maximum Force            0.001106     0.000015     NO 
 RMS     Force            0.000620     0.000010     NO 
 Maximum Displacement     0.000562     0.000060     NO 
 RMS     Displacement     0.000365     0.000040     NO 
 Predicted change in Energy=-1.223627D-06
 GradGradGradGradGradGradGradGradGradGradGradGradGradGradGradGradGradGrad

                          Input orientation:                          
 ---------------------------------------------------------------------
 Center     Atomic      Atomic             Coordinates (Angstroms)
 Number     Number       Type             X           Y           Z
 ---------------------------------------------------------------------
      1          7           0       -0.590030    0.000000   -0.087112
      2          6           0        0.284151    0.000000    0.698921
      3          1           0        0.401842    0.000000   -0.809715
 ---------------------------------------------------------------------
                    Distance matrix (angstroms):
                    1          2          3
     1  N    0.000000
     2  C    1.175602   0.000000
     3  H    1.227177   1.513220   0.000000
 Stoichiometry    CHN
 Framework group  CS[SG(CHN)]
 Deg. of freedom     3
 Full point group                 CS      NOp   2
 Largest Abelian subgroup         CS      NOp   2
 Largest concise Abelian subgroup C1      NOp   1
                         Standard orientation:                         
 ---------------------------------------------------------------------
 Center     Atomic      Atomic             Coordinates (Angstroms)
 Number     Number       Type             X           Y           Z
 ---------------------------------------------------------------------
      1          7           0        0.085751    0.522001    0.000000
      2          6           0        0.085751   -0.653600    0.000000
      3          1           0       -1.114765    0.267592    0.000000
 ---------------------------------------------------------------------
 Rotational constants (GHZ):    365.2751645     55.9895722     48.5480944
 Standard basis: 6-31G(d) (6D, 7F)
 There are    24 symmetry adapted cartesian basis functions of A'  symmetry.
 There are     8 symmetry adapted cartesian basis functions of A"  symmetry.
 There are    24 symmetry adapted basis functions of A'  symmetry.
 There are     8 symmetry adapted basis functions of A"  symmetry.
    32 basis functions,    60 primitive gaussians,    32 cartesian basis functions
     7 alpha electrons        7 beta electrons
       nuclear repulsion energy        24.0223115033 Hartrees.
 NAtoms=    3 NActive=    3 NUniq=    3 SFac= 1.00D+00 NAtFMM=   60 NAOKFM=F Big=F
 Integral buffers will be    131072 words long.
 Raffenetti 1 integral format.
 Two-electron integral symmetry is turned on.
 One-electron integrals computed using PRISM.
 NBasis=    32 RedAO= T EigKep=  8.88D-03  NBF=    24     8
 NBsUse=    32 1.00D-06 EigRej= -1.00D+00 NBFU=    24     8
 Initial guess from the checkpoint file:  "ang-HNC.chk"
 B after Tr=     0.000000    0.000000    0.000000
         Rot=    1.000000    0.000000    0.000000    0.000024 Ang=   0.00 deg.
 Initial guess orbital symmetries:
       Occupied  (A') (A') (A') (A') (A') (A") (A')
       Virtual   (A') (A') (A') (A') (A') (A') (A') (A') (A') (A')
                 (A') (A') (A') (A') (A') (A') (A') (A') (A") (A")
                 (A") (A") (A") (A") (A")
 Keep R1 ints in memory in symmetry-blocked form, NReq=978791.
 LinEq1:  Iter=  0 NonCon=     1 RMS=2.16D-05 Max=1.29D-04 NDo=     1
 AX will form     1 AO Fock derivatives at one time.
 LinEq1:  Iter=  1 NonCon=     1 RMS=7.79D-06 Max=3.94D-05 NDo=     1
 LinEq1:  Iter=  2 NonCon=     1 RMS=2.98D-06 Max=1.54D-05 NDo=     1
 LinEq1:  Iter=  3 NonCon=     1 RMS=1.02D-06 Max=6.31D-06 NDo=     1
 LinEq1:  Iter=  4 NonCon=     1 RMS=1.60D-07 Max=1.02D-06 NDo=     1
 LinEq1:  Iter=  5 NonCon=     1 RMS=4.35D-08 Max=2.46D-07 NDo=     1
 LinEq1:  Iter=  6 NonCon=     1 RMS=7.56D-09 Max=3.43D-08 NDo=     1
 LinEq1:  Iter=  7 NonCon=     0 RMS=9.20D-10 Max=4.71D-09 NDo=     1
 Linear equations converged to 1.871D-09 1.871D-08 after     7 iterations.
     Accept linear search using points  2 and  3.
     Minimum is close to point  2 DX=  3.65D-05 DF=  0.00D+00 DXR=  3.65D-05 DFR=  0.00D+00 which will be used.
 SCF Done:  E(RHF) =  -92.8043202994     a.u. after    2 cycles
            Convg  =    0.1630D-06                    10 Fock formations.
              S**2 =  0.0000                  -V/T =  2.0020
 Calling FoFJK, ICntrl=      2127 FMM=F ISym2X=1 I1Cent= 0 IOpClX= 0 NMat=1 NMatS=1 NMatT=0.
 ***** Axes restored to original set *****
 -------------------------------------------------------------------
 Center     Atomic                   Forces (Hartrees/Bohr)
 Number     Number              X              Y              Z
 -------------------------------------------------------------------
      1        7           0.034073983    0.000000000   -0.054862201
      2        6           0.018398834    0.000000000    0.017309170
      3        1          -0.052472817    0.000000000    0.037553031
 -------------------------------------------------------------------
 Cartesian Forces:  Max     0.054862201 RMS     0.031574688

 GradGradGradGradGradGradGradGradGradGradGradGradGradGradGradGradGradGrad
 Berny optimization.
 Using GEDIIS/GDIIS optimizer.
 FormGI is forming the generalized inverse of G from B-inverse, IUseBI=4.
 Internal  Forces:  Max     0.050352184 RMS     0.027731608
 Search for a local minimum.
 Step number   5 out of a maximum of   20 on scan point     6 out of    18
 All quantities printed in internal units (Hartrees-Bohrs-Radians)
 Mixed Optimization -- En-DIIS/RFO-DIIS
 Swapping is turned off.
 Update second derivatives using D2CorX and points    1    2    3    4    5
 DE= -1.18D-06 DEPred=-1.22D-06 R= 9.65D-01
 TightC=F SS=  1.41D+00  RLast= 1.24D-03 DXNew= 5.7594D-01 3.7178D-03
 Trust test= 9.65D-01 RLast= 1.24D-03 DXMaxT set to 3.42D-01
 The second derivative matrix:
                          R1        R2        A1        A2        A3
           R1           1.14242
           R2          -0.09552   0.22606
           A1          -0.22838   0.09464   0.23230
           A2           0.17744   0.09053   0.00114   0.08002
           A3           0.00000   0.00000   0.00000   0.00000   0.00230
 ITU=  1  0  1  1  0
     Eigenvalues ---    0.00230   0.995061000.000001000.000001000.00000
 En-DIIS/RFO-DIIS IScMMF=        0 using points:     5    4    3
 RFO step:  Lambda=-1.21588391D-04.
 DidBck=F Rises=F RFO-DIIS coefs:    0.97672    0.02328    0.00000
 Iteration  1 RMS(Cart)=  0.00001644 RMS(Int)=  0.00000959
 Iteration  2 RMS(Cart)=  0.00000000 RMS(Int)=  0.00000959
 Iteration  1 RMS(Cart)=  0.00000488 RMS(Int)=  0.00000748
 Iteration  2 RMS(Cart)=  0.00000342 RMS(Int)=  0.00000823
 Iteration  3 RMS(Cart)=  0.00000240 RMS(Int)=  0.00000948
 Iteration  4 RMS(Cart)=  0.00000169 RMS(Int)=  0.00001060
 Iteration  5 RMS(Cart)=  0.00000118 RMS(Int)=  0.00001146
 Iteration  6 RMS(Cart)=  0.00000083 RMS(Int)=  0.00001211
 ClnCor:  largest displacement from symmetrization is 2.22D-16 for atom     2.
 Variable       Old X    -DE/DX   Delta X   Delta X   Delta X     New X
                                 (Linear)    (Quad)   (Total)
    R1        2.22157   0.02306   0.00003   0.00000   0.00001   2.22158
    R2        2.31903  -0.05035   0.00001  -0.00006  -0.00003   2.31899
    A1        0.91630  -0.02561   0.00000   0.00000   0.00000   0.91630
    A2        4.92122  -0.01106   0.00001  -0.00002   0.00002   4.92124
    A3        3.14159   0.00000   0.00000   0.00000   0.00000   3.14159
         Item               Value     Threshold  Converged?
 Maximum Force            0.000003     0.000015     YES
 RMS     Force            0.000002     0.000010     YES
 Maximum Displacement     0.000033     0.000060     YES
 RMS     Displacement     0.000020     0.000040     YES
 Predicted change in Energy=-1.668588D-06
 Optimization completed.
    -- Stationary point found.
                           ----------------------------
                           !   Optimized Parameters   !
                           ! (Angstroms and Degrees)  !
 --------------------------                            --------------------------
 ! Name  Definition              Value          Derivative Info.                !
 --------------------------------------------------------------------------------
 ! R1    R(1,2)                  1.1756         -DE/DX =    0.0231              !
 ! R2    R(1,3)                  1.2272         -DE/DX =   -0.0504              !
 ! A1    A(1,2,3)               52.4999         -DE/DX =   -0.0256              !
 ! A2    L(2,1,3,-2,-1)        281.9649         -DE/DX =   -0.0111              !
 ! A3    L(2,1,3,-1,-2)        180.0            -DE/DX =    0.0                 !
 --------------------------------------------------------------------------------
 Iteration  1 RMS(Cart)=  0.04252218 RMS(Int)=  0.06490939
 Iteration  2 RMS(Cart)=  0.00168643 RMS(Int)=  0.06487583
 Iteration  3 RMS(Cart)=  0.00008655 RMS(Int)=  0.06487579
 Iteration  4 RMS(Cart)=  0.00000228 RMS(Int)=  0.06487579
 Iteration  5 RMS(Cart)=  0.00000015 RMS(Int)=  0.06487579
 Iteration  1 RMS(Cart)=  0.02993375 RMS(Int)=  0.04382629
 Iteration  2 RMS(Cart)=  0.02058730 RMS(Int)=  0.04813341
 Iteration  3 RMS(Cart)=  0.01375648 RMS(Int)=  0.05534855
 Iteration  4 RMS(Cart)=  0.00900139 RMS(Int)=  0.06135168
