 Entering Gaussian System, Link 0=g09
 Initial command:
 /share/sw/gaussian/D.01/g09/l1.exe "/local/scratch/epluhar/Gau-6169.inp" -scrdir="/local/scratch/epluhar/"
 Entering Link 1 = /share/sw/gaussian/D.01/g09/l1.exe PID=      6170.
  
 Copyright (c) 1988,1990,1992,1993,1995,1998,2003,2009,2013,
            Gaussian, Inc.  All Rights Reserved.
  
 This is part of the Gaussian(R) 09 program.  It is based on
 the Gaussian(R) 03 system (copyright 2003, Gaussian, Inc.),
 the Gaussian(R) 98 system (copyright 1998, Gaussian, Inc.),
 the Gaussian(R) 94 system (copyright 1995, Gaussian, Inc.),
 the Gaussian 92(TM) system (copyright 1992, Gaussian, Inc.),
 the Gaussian 90(TM) system (copyright 1990, Gaussian, Inc.),
 the Gaussian 88(TM) system (copyright 1988, Gaussian, Inc.),
 the Gaussian 86(TM) system (copyright 1986, Carnegie Mellon
 University), and the Gaussian 82(TM) system (copyright 1983,
 Carnegie Mellon University). Gaussian is a federally registered
 trademark of Gaussian, Inc.
  
 This software contains proprietary and confidential information,
 including trade secrets, belonging to Gaussian, Inc.
  
 This software is provided under written license and may be
 used, copied, transmitted, or stored only in accord with that
 written license.
  
 The following legend is applicable only to US Government
 contracts under FAR:
  
                    RESTRICTED RIGHTS LEGEND
  
 Use, reproduction and disclosure by the US Government is
 subject to restrictions as set forth in subparagraphs (a)
 and (c) of the Commercial Computer Software - Restricted
 Rights clause in FAR 52.227-19.
  
 Gaussian, Inc.
 340 Quinnipiac St., Bldg. 40, Wallingford CT 06492
  
  
 ---------------------------------------------------------------
 Warning -- This program may not be used in any manner that
 competes with the business of Gaussian, Inc. or will provide
 assistance to any competitor of Gaussian, Inc.  The licensee
 of this program is prohibited from giving any competitor of
 Gaussian, Inc. access to this program.  By using this program,
 the user acknowledges that Gaussian, Inc. is engaged in the
 business of creating and licensing software in the field of
 computational chemistry and represents and warrants to the
 licensee that it is not a competitor of Gaussian, Inc. and that
 it will not use this program in any manner prohibited above.
 ---------------------------------------------------------------
  

 Cite this work as:
 Gaussian 09, Revision D.01,
 M. J. Frisch, G. W. Trucks, H. B. Schlegel, G. E. Scuseria, 
 M. A. Robb, J. R. Cheeseman, G. Scalmani, V. Barone, B. Mennucci, 
 G. A. Petersson, H. Nakatsuji, M. Caricato, X. Li, H. P. Hratchian, 
 A. F. Izmaylov, J. Bloino, G. Zheng, J. L. Sonnenberg, M. Hada, 
 M. Ehara, K. Toyota, R. Fukuda, J. Hasegawa, M. Ishida, T. Nakajima, 
 Y. Honda, O. Kitao, H. Nakai, T. Vreven, J. A. Montgomery, Jr., 
 J. E. Peralta, F. Ogliaro, M. Bearpark, J. J. Heyd, E. Brothers, 
 K. N. Kudin, V. N. Staroverov, T. Keith, R. Kobayashi, J. Normand, 
 K. Raghavachari, A. Rendell, J. C. Burant, S. S. Iyengar, J. Tomasi, 
 M. Cossi, N. Rega, J. M. Millam, M. Klene, J. E. Knox, J. B. Cross, 
 V. Bakken, C. Adamo, J. Jaramillo, R. Gomperts, R. E. Stratmann, 
 O. Yazyev, A. J. Austin, R. Cammi, C. Pomelli, J. W. Ochterski, 
 R. L. Martin, K. Morokuma, V. G. Zakrzewski, G. A. Voth, 
 P. Salvador, J. J. Dannenberg, S. Dapprich, A. D. Daniels, 
 O. Farkas, J. B. Foresman, J. V. Ortiz, J. Cioslowski, 
 and D. J. Fox, Gaussian, Inc., Wallingford CT, 2013.
 
 ******************************************
 Gaussian 09:  ES64L-G09RevD.01 24-Apr-2013
                12-Oct-2016 
 ******************************************
 %rwf=/scratch/epluhar/benzene
 %int=/scratch/epluhar/benzeneint
 %d2e=/scratch/epluhar/benzened2e
 %nprocshared=16
 Will use up to   16 processors via shared memory.
 %mem=4GB
 %oldchk=benzene-mp2
 %chk=benzene-mp2freq
 Copying data from "benzene-mp2.chk" to current chk file "benzene-mp2freq.chk".
 ------------------------------------------------------------
 #freq=(raman) integral=coarse mp2(full)/6-311+g** geom=check
 ------------------------------------------------------------
 1/10=4,29=2,30=1,38=1121/1,6,3;
 2/12=2,40=1/2;
 3/5=4,6=6,7=111,11=9,14=-4,16=1,25=1,30=1,71=2,75=2,140=1/1,2,3;
 4/69=2/1;
 5/5=2,38=5,98=1/2;
 8/6=3,8=1,10=90,19=11/1;
 9/15=3,16=-3/6;
 11/6=1,8=1,15=11,17=11,24=-1,27=1,28=-2,29=300,32=6,42=3/1,2,10;
 10/6=2,21=1/2;
 8/6=4,8=1,10=90,19=11/11,4;
 10/5=1,20=4/2;
 11/12=2,14=11,16=1,28=-2,42=3/2,10,12;
 6/7=2,8=2,9=2,10=2,22=-1/1;
 7/10=1,12=2,25=1,44=2/1,2,3,16;
 1/38=1120/6(3);
 7/8=1,25=1,44=-1/16;
 1/10=4,30=1,38=1120/3;
 99//99;
 3/5=4,6=6,7=111,11=9,14=-3,16=1,25=1,30=1,71=1,75=2,140=1/1,2,3;
 4/5=5,16=3,69=2/1;
 5/5=2,38=5,98=1/2;
 8/6=3,8=1,10=90,19=11/1;
 9/15=3,16=-3/6;
 11/6=1,8=1,15=11,17=11,24=-1,27=1,28=-2,29=300,32=6,42=3/1,2,10;
 10/6=2,21=1/2;
 8/6=4,8=1,10=90,19=11/11,4;
 10/5=1,20=4/2;
 11/12=2,14=11,16=1,28=-2,42=3/2,10,12;
 6/7=2,8=2,9=2,10=2,22=-1/1;
 7/7=1,10=1,12=2,44=2/16;
 1/38=1120/6(-12);
 7/8=1,25=1,44=-1/16;
 1/10=4,30=1,38=1120/3;
 99//99;
 -----
 title
 -----
 Structure from the checkpoint file:  "benzene-mp2freq.chk"
 Charge =  0 Multiplicity = 1
 Redundant internal coordinates found in file.
 C,0,0.,0.,0.9951609748
 C,0,0.,-1.2102891587,1.6963470688
 C,0,0.,-1.2118834821,3.0955562295
 C,0,0.,0.,3.7951810396
 C,0,0.,1.2118834821,3.0955562295
 C,0,0.,1.2102891587,1.6963470688
 H,0,0.,0.,-0.0877267505
 H,0,0.,-2.1498054006,1.1499243177
 H,0,0.,-2.1526051259,3.6393284446
 H,0,0.,0.,4.8817070894
 H,0,0.,2.1526051259,3.6393284446
 H,0,0.,2.1498054006,1.1499243177
 C,0,-1.3997859964,0.,-2.3959308061
 C,0,-0.699842931,1.211884838,-2.3964655628
 C,0,0.699842931,1.211884838,-2.3964655628
 C,0,1.3997859964,0.,-2.3959308061
 C,0,0.699842931,-1.211884838,-2.3964655628
 C,0,-0.699842931,-1.211884838,-2.3964655628
 H,0,-2.486157166,0.,-2.3900542118
 H,0,-1.2430955492,2.1528840852,-2.3961817243
 H,0,1.2430955492,2.1528840852,-2.3961817243
 H,0,2.486157166,0.,-2.3900542118
 H,0,1.2430955492,-2.1528840852,-2.3961817243
 H,0,-1.2430955492,-2.1528840852,-2.3961817243
 Recover connectivity data from disk.
 Differentiate once with respect to electric field.
 Nuclear step= 0.001000 Angstroms, electric field step= 0.000333 atomic units, NStep=1.

 GradGradGradGradGradGradGradGradGradGradGradGradGradGradGradGradGradGrad
 Berny optimization.
 Initialization pass.
                           ----------------------------
                           !    Initial Parameters    !
                           ! (Angstroms and Degrees)  !
 --------------------------                            --------------------------
 ! Name  Definition              Value          Derivative Info.                !
 --------------------------------------------------------------------------------
 ! R1    R(1,2)                  1.3987         calculate D2E/DX2 analytically  !
 ! R2    R(1,6)                  1.3987         calculate D2E/DX2 analytically  !
 ! R3    R(1,7)                  1.0829         calculate D2E/DX2 analytically  !
 ! R4    R(2,3)                  1.3992         calculate D2E/DX2 analytically  !
 ! R5    R(2,8)                  1.0869         calculate D2E/DX2 analytically  !
 ! R6    R(3,4)                  1.3993         calculate D2E/DX2 analytically  !
 ! R7    R(3,9)                  1.0866         calculate D2E/DX2 analytically  !
 ! R8    R(4,5)                  1.3993         calculate D2E/DX2 analytically  !
 ! R9    R(4,10)                 1.0865         calculate D2E/DX2 analytically  !
 ! R10   R(5,6)                  1.3992         calculate D2E/DX2 analytically  !
 ! R11   R(5,11)                 1.0866         calculate D2E/DX2 analytically  !
 ! R12   R(6,12)                 1.0869         calculate D2E/DX2 analytically  !
 ! R13   R(7,13)                 2.6995         calculate D2E/DX2 analytically  !
 ! R14   R(7,14)                 2.6998         calculate D2E/DX2 analytically  !
 ! R15   R(7,15)                 2.6998         calculate D2E/DX2 analytically  !
 ! R16   R(7,16)                 2.6995         calculate D2E/DX2 analytically  !
 ! R17   R(7,17)                 2.6998         calculate D2E/DX2 analytically  !
 ! R18   R(13,14)                1.3995         calculate D2E/DX2 analytically  !
 ! R19   R(13,18)                1.3995         calculate D2E/DX2 analytically  !
 ! R20   R(13,19)                1.0864         calculate D2E/DX2 analytically  !
 ! R21   R(14,15)                1.3997         calculate D2E/DX2 analytically  !
 ! R22   R(14,20)                1.0866         calculate D2E/DX2 analytically  !
 ! R23   R(15,16)                1.3995         calculate D2E/DX2 analytically  !
 ! R24   R(15,21)                1.0866         calculate D2E/DX2 analytically  !
 ! R25   R(16,17)                1.3995         calculate D2E/DX2 analytically  !
 ! R26   R(16,22)                1.0864         calculate D2E/DX2 analytically  !
 ! R27   R(17,18)                1.3997         calculate D2E/DX2 analytically  !
 ! R28   R(17,23)                1.0866         calculate D2E/DX2 analytically  !
 ! R29   R(18,24)                1.0866         calculate D2E/DX2 analytically  !
 ! A1    A(2,1,6)              119.8279         calculate D2E/DX2 analytically  !
 ! A2    A(2,1,7)              120.086          calculate D2E/DX2 analytically  !
 ! A3    A(6,1,7)              120.086          calculate D2E/DX2 analytically  !
 ! A4    A(1,2,3)              120.1513         calculate D2E/DX2 analytically  !
 ! A5    A(1,2,8)              119.7317         calculate D2E/DX2 analytically  !
 ! A6    A(3,2,8)              120.117          calculate D2E/DX2 analytically  !
 ! A7    A(2,3,4)              119.9327         calculate D2E/DX2 analytically  !
 ! A8    A(2,3,9)              120.0948         calculate D2E/DX2 analytically  !
 ! A9    A(4,3,9)              119.9725         calculate D2E/DX2 analytically  !
 ! A10   A(3,4,5)              120.004          calculate D2E/DX2 analytically  !
 ! A11   A(3,4,10)             119.998          calculate D2E/DX2 analytically  !
 ! A12   A(5,4,10)             119.998          calculate D2E/DX2 analytically  !
 ! A13   A(4,5,6)              119.9327         calculate D2E/DX2 analytically  !
 ! A14   A(4,5,11)             119.9725         calculate D2E/DX2 analytically  !
 ! A15   A(6,5,11)             120.0948         calculate D2E/DX2 analytically  !
 ! A16   A(1,6,5)              120.1513         calculate D2E/DX2 analytically  !
 ! A17   A(1,6,12)             119.7317         calculate D2E/DX2 analytically  !
 ! A18   A(5,6,12)             120.117          calculate D2E/DX2 analytically  !
 ! A19   A(1,7,13)             148.7657         calculate D2E/DX2 analytically  !
 ! A20   A(1,7,14)             148.7778         calculate D2E/DX2 analytically  !
 ! A21   A(1,7,15)             148.7778         calculate D2E/DX2 analytically  !
 ! A22   A(1,7,16)             148.7657         calculate D2E/DX2 analytically  !
 ! A23   A(1,7,17)             148.7778         calculate D2E/DX2 analytically  !
 ! A24   A(13,7,15)             53.3594         calculate D2E/DX2 analytically  !
 ! A25   A(13,7,16)             62.4686         calculate D2E/DX2 analytically  !
 ! A26   A(13,7,17)             53.3594         calculate D2E/DX2 analytically  !
 ! A27   A(14,7,16)             53.3594         calculate D2E/DX2 analytically  !
 ! A28   A(14,7,17)             62.4444         calculate D2E/DX2 analytically  !
 ! A29   A(15,7,17)             53.3444         calculate D2E/DX2 analytically  !
 ! A30   A(7,13,18)             74.9884         calculate D2E/DX2 analytically  !
 ! A31   A(7,13,19)            120.9243         calculate D2E/DX2 analytically  !
 ! A32   A(14,13,18)           119.9815         calculate D2E/DX2 analytically  !
 ! A33   A(14,13,19)           120.0089         calculate D2E/DX2 analytically  !
 ! A34   A(18,13,19)           120.0089         calculate D2E/DX2 analytically  !
 ! A35   A(7,14,20)            121.2072         calculate D2E/DX2 analytically  !
 ! A36   A(13,14,15)           120.0093         calculate D2E/DX2 analytically  !
 ! A37   A(13,14,20)           119.9923         calculate D2E/DX2 analytically  !
 ! A38   A(15,14,20)           119.9985         calculate D2E/DX2 analytically  !
 ! A39   A(7,15,21)            121.2072         calculate D2E/DX2 analytically  !
 ! A40   A(14,15,16)           120.0093         calculate D2E/DX2 analytically  !
 ! A41   A(14,15,21)           119.9985         calculate D2E/DX2 analytically  !
 ! A42   A(16,15,21)           119.9923         calculate D2E/DX2 analytically  !
 ! A43   A(7,16,22)            120.9243         calculate D2E/DX2 analytically  !
 ! A44   A(15,16,17)           119.9815         calculate D2E/DX2 analytically  !
 ! A45   A(15,16,22)           120.0089         calculate D2E/DX2 analytically  !
 ! A46   A(17,16,22)           120.0089         calculate D2E/DX2 analytically  !
 ! A47   A(7,17,18)             74.976          calculate D2E/DX2 analytically  !
 ! A48   A(7,17,23)            121.2072         calculate D2E/DX2 analytically  !
 ! A49   A(16,17,18)           120.0093         calculate D2E/DX2 analytically  !
 ! A50   A(16,17,23)           119.9923         calculate D2E/DX2 analytically  !
 ! A51   A(18,17,23)           119.9985         calculate D2E/DX2 analytically  !
 ! A52   A(13,18,17)           120.0093         calculate D2E/DX2 analytically  !
 ! A53   A(13,18,24)           119.9923         calculate D2E/DX2 analytically  !
 ! A54   A(17,18,24)           119.9985         calculate D2E/DX2 analytically  !
 ! D1    D(6,1,2,3)              0.0            calculate D2E/DX2 analytically  !
 ! D2    D(6,1,2,8)            180.0            calculate D2E/DX2 analytically  !
 ! D3    D(7,1,2,3)            180.0            calculate D2E/DX2 analytically  !
 ! D4    D(7,1,2,8)              0.0            calculate D2E/DX2 analytically  !
 ! D5    D(2,1,6,5)              0.0            calculate D2E/DX2 analytically  !
 ! D6    D(2,1,6,12)           180.0            calculate D2E/DX2 analytically  !
 ! D7    D(7,1,6,5)            180.0            calculate D2E/DX2 analytically  !
 ! D8    D(7,1,6,12)             0.0            calculate D2E/DX2 analytically  !
 ! D9    D(2,1,7,13)            90.0            calculate D2E/DX2 analytically  !
 ! D10   D(2,1,7,14)           149.9943         calculate D2E/DX2 analytically  !
 ! D11   D(2,1,7,15)          -149.9943         calculate D2E/DX2 analytically  !
 ! D12   D(2,1,7,16)           -90.0            calculate D2E/DX2 analytically  !
 ! D13   D(2,1,7,17)           -30.0057         calculate D2E/DX2 analytically  !
 ! D14   D(6,1,7,13)           -90.0            calculate D2E/DX2 analytically  !
 ! D15   D(6,1,7,14)           -30.0057         calculate D2E/DX2 analytically  !
 ! D16   D(6,1,7,15)            30.0057         calculate D2E/DX2 analytically  !
 ! D17   D(6,1,7,16)            90.0            calculate D2E/DX2 analytically  !
 ! D18   D(6,1,7,17)           149.9943         calculate D2E/DX2 analytically  !
 ! D19   D(1,2,3,4)              0.0            calculate D2E/DX2 analytically  !
 ! D20   D(1,2,3,9)            180.0            calculate D2E/DX2 analytically  !
 ! D21   D(8,2,3,4)            180.0            calculate D2E/DX2 analytically  !
 ! D22   D(8,2,3,9)              0.0            calculate D2E/DX2 analytically  !
 ! D23   D(2,3,4,5)              0.0            calculate D2E/DX2 analytically  !
 ! D24   D(2,3,4,10)           180.0            calculate D2E/DX2 analytically  !
 ! D25   D(9,3,4,5)            180.0            calculate D2E/DX2 analytically  !
 ! D26   D(9,3,4,10)             0.0            calculate D2E/DX2 analytically  !
 ! D27   D(3,4,5,6)              0.0            calculate D2E/DX2 analytically  !
 ! D28   D(3,4,5,11)           180.0            calculate D2E/DX2 analytically  !
 ! D29   D(10,4,5,6)           180.0            calculate D2E/DX2 analytically  !
 ! D30   D(10,4,5,11)            0.0            calculate D2E/DX2 analytically  !
 ! D31   D(4,5,6,1)              0.0            calculate D2E/DX2 analytically  !
 ! D32   D(4,5,6,12)           180.0            calculate D2E/DX2 analytically  !
 ! D33   D(11,5,6,1)           180.0            calculate D2E/DX2 analytically  !
 ! D34   D(11,5,6,12)            0.0            calculate D2E/DX2 analytically  !
 ! D35   D(1,7,13,18)         -116.293          calculate D2E/DX2 analytically  !
 ! D36   D(1,7,13,19)            0.0            calculate D2E/DX2 analytically  !
 ! D37   D(15,7,13,18)          97.7236         calculate D2E/DX2 analytically  !
 ! D38   D(15,7,13,19)        -145.9834         calculate D2E/DX2 analytically  !
 ! D39   D(16,7,13,18)          63.707          calculate D2E/DX2 analytically  !
 ! D40   D(16,7,13,19)         180.0            calculate D2E/DX2 analytically  !
 ! D41   D(17,7,13,18)          29.6904         calculate D2E/DX2 analytically  !
 ! D42   D(17,7,13,19)         145.9834         calculate D2E/DX2 analytically  !
 ! D43   D(1,7,14,20)            0.0085         calculate D2E/DX2 analytically  !
 ! D44   D(16,7,14,20)        -145.9615         calculate D2E/DX2 analytically  !
 ! D45   D(17,7,14,20)        -179.9915         calculate D2E/DX2 analytically  !
 ! D46   D(1,7,15,21)           -0.0085         calculate D2E/DX2 analytically  !
 ! D47   D(13,7,15,21)         145.9615         calculate D2E/DX2 analytically  !
 ! D48   D(17,7,15,21)        -145.9777         calculate D2E/DX2 analytically  !
 ! D49   D(1,7,16,22)            0.0            calculate D2E/DX2 analytically  !
 ! D50   D(13,7,16,22)         180.0            calculate D2E/DX2 analytically  !
 ! D51   D(14,7,16,22)         145.9834         calculate D2E/DX2 analytically  !
 ! D52   D(1,7,17,18)          116.2821         calculate D2E/DX2 analytically  !
 ! D53   D(1,7,17,23)            0.0085         calculate D2E/DX2 analytically  !
 ! D54   D(13,7,17,18)         -29.6879         calculate D2E/DX2 analytically  !
 ! D55   D(13,7,17,23)        -145.9615         calculate D2E/DX2 analytically  !
 ! D56   D(14,7,17,18)         -63.7179         calculate D2E/DX2 analytically  !
 ! D57   D(14,7,17,23)        -179.9915         calculate D2E/DX2 analytically  !
 ! D58   D(15,7,17,18)         -97.7486         calculate D2E/DX2 analytically  !
 ! D59   D(15,7,17,23)         145.9777         calculate D2E/DX2 analytically  !
 ! D60   D(18,13,14,15)         -0.0506         calculate D2E/DX2 analytically  !
 ! D61   D(18,13,14,20)        179.992          calculate D2E/DX2 analytically  !
 ! D62   D(19,13,14,15)        179.6421         calculate D2E/DX2 analytically  !
 ! D63   D(19,13,14,20)         -0.3153         calculate D2E/DX2 analytically  !
 ! D64   D(7,13,18,17)         -62.2842         calculate D2E/DX2 analytically  !
 ! D65   D(7,13,18,24)         117.6732         calculate D2E/DX2 analytically  !
 ! D66   D(14,13,18,17)          0.0506         calculate D2E/DX2 analytically  !
 ! D67   D(14,13,18,24)       -179.992          calculate D2E/DX2 analytically  !
 ! D68   D(19,13,18,17)       -179.6421         calculate D2E/DX2 analytically  !
 ! D69   D(19,13,18,24)          0.3153         calculate D2E/DX2 analytically  !
 ! D70   D(13,14,15,16)          0.0            calculate D2E/DX2 analytically  !
 ! D71   D(13,14,15,21)       -179.9574         calculate D2E/DX2 analytically  !
 ! D72   D(20,14,15,16)        179.9574         calculate D2E/DX2 analytically  !
 ! D73   D(20,14,15,21)          0.0            calculate D2E/DX2 analytically  !
 ! D74   D(14,15,16,17)          0.0506         calculate D2E/DX2 analytically  !
 ! D75   D(14,15,16,22)       -179.6421         calculate D2E/DX2 analytically  !
 ! D76   D(21,15,16,17)       -179.992          calculate D2E/DX2 analytically  !
 ! D77   D(21,15,16,22)          0.3153         calculate D2E/DX2 analytically  !
 ! D78   D(15,16,17,18)         -0.0506         calculate D2E/DX2 analytically  !
 ! D79   D(15,16,17,23)        179.992          calculate D2E/DX2 analytically  !
 ! D80   D(22,16,17,18)        179.6421         calculate D2E/DX2 analytically  !
 ! D81   D(22,16,17,23)         -0.3153         calculate D2E/DX2 analytically  !
 ! D82   D(7,17,18,13)          62.2792         calculate D2E/DX2 analytically  !
 ! D83   D(7,17,18,24)        -117.6782         calculate D2E/DX2 analytically  !
 ! D84   D(16,17,18,13)          0.0            calculate D2E/DX2 analytically  !
 ! D85   D(16,17,18,24)       -179.9574         calculate D2E/DX2 analytically  !
 ! D86   D(23,17,18,13)        179.9574         calculate D2E/DX2 analytically  !
 ! D87   D(23,17,18,24)          0.0            calculate D2E/DX2 analytically  !
 --------------------------------------------------------------------------------
 Trust Radius=3.00D-01 FncErr=1.00D-07 GrdErr=1.00D-07
 Number of steps in this run=      2 maximum allowed number of steps=      2.
 GradGradGradGradGradGradGradGradGradGradGradGradGradGradGradGradGradGrad

                          Input orientation:                          
 ---------------------------------------------------------------------
 Center     Atomic      Atomic             Coordinates (Angstroms)
 Number     Number       Type             X           Y           Z
 ---------------------------------------------------------------------
      1          6           0        0.000000    0.000000    0.995161
      2          6           0        0.000000   -1.210289    1.696347
      3          6           0        0.000000   -1.211883    3.095556
      4          6           0        0.000000    0.000000    3.795181
      5          6           0        0.000000    1.211883    3.095556
      6          6           0        0.000000    1.210289    1.696347
      7          1           0        0.000000    0.000000   -0.087727
      8          1           0        0.000000   -2.149805    1.149924
      9          1           0        0.000000   -2.152605    3.639328
     10          1           0        0.000000    0.000000    4.881707
     11          1           0        0.000000    2.152605    3.639328
     12          1           0        0.000000    2.149805    1.149924
     13          6           0       -1.399786    0.000000   -2.395931
     14          6           0       -0.699843    1.211885   -2.396466
     15          6           0        0.699843    1.211885   -2.396466
     16          6           0        1.399786    0.000000   -2.395931
     17          6           0        0.699843   -1.211885   -2.396466
     18          6           0       -0.699843   -1.211885   -2.396466
     19          1           0       -2.486157    0.000000   -2.390054
     20          1           0       -1.243096    2.152884   -2.396182
     21          1           0        1.243096    2.152884   -2.396182
     22          1           0        2.486157    0.000000   -2.390054
     23          1           0        1.243096   -2.152884   -2.396182
     24          1           0       -1.243096   -2.152884   -2.396182
 ---------------------------------------------------------------------
                    Distance matrix (angstroms):
                    1          2          3          4          5
     1  C    0.000000
     2  C    1.398736   0.000000
     3  C    2.424937   1.399210   0.000000
     4  C    2.800020   2.422788   1.399334   0.000000
     5  C    2.424937   2.797268   2.423767   1.399334   0.000000
     6  C    1.398736   2.420578   2.797268   2.422788   1.399210
     7  H    1.082888   2.155857   3.406164   3.882908   3.406164
     8  H    2.155369   1.086862   2.159903   3.408672   3.884126
     9  H    3.409594   2.159430   1.086575   2.158240   3.408148
    10  H    3.886546   3.407538   2.158471   1.086526   2.158471
    11  H    3.409594   3.883843   3.408148   2.158240   1.086575
    12  H    2.155369   3.404235   3.884126   3.408672   2.159903
    13  C    3.668638   4.491207   5.795213   6.347383   5.795213
    14  C    3.669002   4.807060   6.043735   6.347829   5.536432
    15  C    3.669002   4.807060   6.043735   6.347829   5.536432
    16  C    3.668638   4.491207   5.795213   6.347383   5.795213
    17  C    3.669002   4.152216   5.536432   6.347829   6.043735
    18  C    3.669002   4.152216   5.536432   6.347829   6.043735
    19  H    4.200078   4.934010   6.143416   6.666192   6.143416
    20  H    4.204926   5.441049   6.559431   6.671819   5.708761
    21  H    4.204926   5.441049   6.559431   6.671819   5.708761
    22  H    4.200078   4.934010   6.143416   6.666192   6.143416
    23  H    4.204926   4.379790   5.708761   6.671819   6.559431
    24  H    4.204926   4.379790   5.708761   6.671819   6.559431
                    6          7          8          9         10
     6  C    0.000000
     7  H    2.155857   0.000000
     8  H    3.404235   2.480614   0.000000
     9  H    3.883843   4.304027   2.489406   0.000000
    10  H    3.407538   4.969434   4.306723   2.485400   0.000000
    11  H    2.159430   4.304027   4.970701   4.305210   2.485400
    12  H    1.086862   2.480614   4.299611   4.970701   4.306723
    13  C    4.491207   2.699483   4.376546   6.558770   7.411033
    14  C    4.152216   2.699763   4.936357   6.945530   7.411494
    15  C    4.152216   2.699763   4.936357   6.945530   7.411494
    16  C    4.491207   2.699483   4.376546   6.558770   7.411033
    17  C    4.807060   2.699763   3.734482   6.148621   7.411494
    18  C    4.807060   2.699763   3.734482   6.148621   7.411494
    19  H    4.934010   3.388464   4.830537   6.867907   7.685017
    20  H    4.379790   3.392515   5.712556   7.517307   7.690765
    21  H    4.379790   3.392515   5.712556   7.517307   7.690765
    22  H    4.934010   3.388464   4.830537   6.867907   7.685017
    23  H    5.441049   3.392515   3.757681   6.162197   7.690765
    24  H    5.441049   3.392515   3.757681   6.162197   7.690765
                   11         12         13         14         15
    11  H    0.000000
    12  H    2.489406   0.000000
    13  C    6.558770   4.376546   0.000000
    14  C    6.148621   3.734482   1.399495   0.000000
    15  C    6.148621   3.734482   2.424274   1.399686   0.000000
    16  C    6.558770   4.376546   2.799572   2.424274   1.399495
    17  C    6.945530   4.936357   2.424274   2.798889   2.423770
    18  C    6.945530   4.936357   1.399495   2.423770   2.798889
    19  H    6.867907   4.830537   1.086387   2.158616   3.408710
    20  H    6.162197   3.757681   2.158579   1.086556   2.158817
    21  H    6.162197   3.757681   3.408773   2.158817   1.086556
    22  H    6.867907   4.830537   3.885948   3.408710   2.158616
    23  H    7.517307   5.712556   3.408773   3.885445   3.408342
    24  H    7.517307   5.712556   2.158579   3.408342   3.885445
                   16         17         18         19         20
    16  C    0.000000
    17  C    1.399495   0.000000
    18  C    2.424274   1.399686   0.000000
    19  H    3.885948   3.408710   2.158616   0.000000
    20  H    3.408773   3.885445   3.408342   2.485991   0.000000
    21  H    2.158579   3.408342   3.885445   4.306074   2.486191
    22  H    1.086387   2.158616   3.408710   4.972314   4.306074
    23  H    2.158579   1.086556   2.158817   4.306074   4.972000
    24  H    3.408773   2.158817   1.086556   2.485991   4.305768
                   21         22         23         24
    21  H    0.000000
    22  H    2.485991   0.000000
    23  H    4.305768   2.485991   0.000000
    24  H    4.972000   4.306074   2.486191   0.000000
 Stoichiometry    C12H12
 Framework group  C2V[C2(HCCH),SGV(C4H4),SGV'(C2H2),X(C4H4)]
 Deg. of freedom    21
 Full point group                 C2V     NOp   4
 Largest Abelian subgroup         C2V     NOp   4
 Largest concise Abelian subgroup C2V     NOp   4
                         Standard orientation:                         
 ---------------------------------------------------------------------
 Center     Atomic      Atomic             Coordinates (Angstroms)
 Number     Number       Type             X           Y           Z
 ---------------------------------------------------------------------
      1          6           0        0.000000    0.000000    0.995325
      2          6           0        0.000000    1.210289    1.696511
      3          6           0        0.000000    1.211883    3.095721
      4          6           0        0.000000    0.000000    3.795345
      5          6           0        0.000000   -1.211883    3.095721
      6          6           0        0.000000   -1.210289    1.696511
      7          1           0        0.000000    0.000000   -0.087562
      8          1           0        0.000000    2.149805    1.150089
      9          1           0        0.000000    2.152605    3.639493
     10          1           0        0.000000    0.000000    4.881871
     11          1           0        0.000000   -2.152605    3.639493
     12          1           0        0.000000   -2.149805    1.150089
     13          6           0        1.399786    0.000000   -2.395767
     14          6           0        0.699843   -1.211885   -2.396301
     15          6           0       -0.699843   -1.211885   -2.396301
     16          6           0       -1.399786    0.000000   -2.395767
     17          6           0       -0.699843    1.211885   -2.396301
     18          6           0        0.699843    1.211885   -2.396301
     19          1           0        2.486157    0.000000   -2.389890
     20          1           0        1.243096   -2.152884   -2.396017
     21          1           0       -1.243096   -2.152884   -2.396017
     22          1           0       -2.486157    0.000000   -2.389890
     23          1           0       -1.243096    2.152884   -2.396017
     24          1           0        1.243096    2.152884   -2.396017
 ---------------------------------------------------------------------
 Rotational constants (GHZ):      1.8895318      0.4703495      0.4343641
 Standard basis: 6-311+G(d,p) (5D, 7F)
 There are   127 symmetry adapted cartesian basis functions of A1  symmetry.
 There are    52 symmetry adapted cartesian basis functions of A2  symmetry.
 There are    77 symmetry adapted cartesian basis functions of B1  symmetry.
 There are    92 symmetry adapted cartesian basis functions of B2  symmetry.
 There are   121 symmetry adapted basis functions of A1  symmetry.
 There are    51 symmetry adapted basis functions of A2  symmetry.
 There are    75 symmetry adapted basis functions of B1  symmetry.
 There are    89 symmetry adapted basis functions of B2  symmetry.
   336 basis functions,   528 primitive gaussians,   348 cartesian basis functions
    42 alpha electrons       42 beta electrons
       nuclear repulsion energy       595.0121533979 Hartrees.
 NAtoms=   24 NActive=   24 NUniq=   12 SFac= 4.00D+00 NAtFMM=   60 NAOKFM=F Big=F
 Integral buffers will be    131072 words long.
 Raffenetti 1 integral format.
 Two-electron integral symmetry is turned on.
 One-electron integrals computed using PRISM.
 NBasis=   336 RedAO= T EigKep=  2.07D-06  NBF=   121    51    75    89
 NBsUse=   336 1.00D-06 EigRej= -1.00D+00 NBFU=   121    51    75    89
 ExpMin= 4.38D-02 ExpMax= 4.56D+03 ExpMxC= 6.82D+02 IAcc=2 IRadAn=         4 AccDes= 0.00D+00
 Harris functional with IExCor=  205 and IRadAn=       4 diagonalized for initial guess.
 HarFok:  IExCor=  205 AccDes= 0.00D+00 IRadAn=         4 IDoV= 1 UseB2=F ITyADJ=14
 ICtDFT=  3500011 ScaDFX=  1.000000  1.000000  1.000000  1.000000
 FoFCou: FMM=F IPFlag=           0 FMFlag=      100000 FMFlg1=           0
         NFxFlg=           0 DoJE=T BraDBF=F KetDBF=T FulRan=T
         wScrn=  0.000000 ICntrl=     500 IOpCl=  0 I1Cent=   200000004 NGrid=           0
         NMat0=    1 NMatS0=      1 NMatT0=    0 NMatD0=    1 NMtDS0=    0 NMtDT0=    0
 Petite list used in FoFCou.
 Initial guess orbital symmetries:
       Occupied  (A1) (A1) (B1) (B2) (A1) (B2) (A1) (A1) (A2) (B2)
                 (B1) (A1) (A1) (A1) (A1) (B2) (B1) (B2) (A1) (B2)
                 (A2) (A1) (A1) (A1) (B2) (B2) (A1) (B1) (A1) (B2)
                 (B1) (B2) (A1) (B1) (A1) (A2) (B2) (A1) (B1) (B2)
                 (A2) (B1)
       Virtual   (A2) (A1) (B1) (A2) (A1) (A1) (B1) (B1) (B2) (B1)
                 (A1) (B2) (A1) (A1) (A2) (B2) (A1) (A1) (B1) (B1)
                 (B1) (B2) (A1) (A2) (B2) (B2) (A1) (B1) (B2) (B2)
                 (A1) (A2) (A1) (A1) (A2) (B1) (A1) (B1) (B2) (B2)
                 (A1) (A1) (A2) (A1) (B1) (A1) (B2) (A2) (B1) (A1)
                 (B2) (B1) (B2) (B1) (A1) (A2) (A1) (B2) (A1) (B1)
                 (B2) (A1) (B2) (A1) (B1) (A2) (B2) (A1) (B2) (A1)
                 (B1) (A2) (A1) (B2) (A1) (B2) (A1) (A2) (B2) (A1)
                 (B1) (B2) (B2) (A1) (B1) (A1) (B1) (A2) (B2) (A1)
                 (A2) (B1) (B1) (A1) (B2) (A2) (A1) (B1) (A2) (A1)
                 (B2) (A1) (A2) (B1) (A1) (A1) (B1) (B2) (A1) (B1)
                 (B2) (B1) (B2) (A1) (A1) (B2) (A1) (B1) (B2) (A1)
                 (A2) (A2) (B2) (A1) (B1) (A1) (B2) (B1) (A1) (B2)
                 (B1) (B2) (A1) (A2) (B2) (A2) (B2) (B1) (A1) (A2)
                 (A1) (B1) (A2) (A2) (A1) (B2) (B1) (A1) (A1) (B1)
                 (A1) (A1) (B2) (A1) (B2) (B1) (B2) (B2) (A1) (A1)
                 (A2) (B1) (A1) (A2) (B1) (B1) (B2) (A2) (A1) (A1)
                 (B2) (B1) (B2) (A1) (B1) (A1) (B1) (A2) (B2) (B1)
                 (A1) (B2) (A2) (A1) (B2) (B2) (A2) (B1) (B1) (B2)
                 (B2) (B1) (A1) (B2) (A1) (A2) (B1) (A2) (A1) (B2)
                 (A1) (B2) (A2) (A2) (A1) (B1) (A2) (A2) (B1) (B1)
                 (A1) (B2) (A1) (A2) (B1) (B2) (A1) (B2) (A1) (A1)
                 (B2) (B1) (A1) (B1) (B2) (A1) (B1) (A1) (A1) (B1)
                 (A2) (B2) (A1) (B1) (B2) (B2) (A2) (A1) (A1) (B1)
                 (A1) (B1) (A1) (A2) (A2) (B1) (B2) (A1) (A2) (B2)
                 (A2) (A1) (B2) (A1) (B2) (B1) (B1) (B2) (B2) (A2)
                 (A1) (A1) (B2) (A1) (B1) (B2) (A1) (A1) (B1) (A1)
                 (A2) (A1) (B2) (A1) (B1) (A1) (B1) (B2) (B2) (A1)
                 (A2) (B2) (A1) (A1) (B2) (B1) (A1) (B2) (A2) (A1)
                 (B2) (A1) (B1) (A1)
 The electronic state of the initial guess is 1-A1.
 Requested convergence on RMS density matrix=1.00D-08 within 128 cycles.
 Requested convergence on MAX density matrix=1.00D-06.
 Requested convergence on             energy=1.00D-06.
 No special actions if energy rises.
 Initial convergence to 1.0D-05 achieved.  Increase integral accuracy.
 SCF Done:  E(RHF) =  -461.507165129     A.U. after   13 cycles
            NFock= 13  Conv=0.85D-08     -V/T= 2.0016
 Range of M.O.s used for correlation:     1   336
 NBasis=   336 NAE=    42 NBE=    42 NFC=     0 NFV=     0
 NROrb=    336 NOA=    42 NOB=    42 NVA=   294 NVB=   294

 **** Warning!!: The largest alpha MO coefficient is  0.13778329D+03

 Disk-based method using ON**2 memory for 42 occupieds at a time.
 Permanent disk used for amplitudes=   189557235 words.
 Estimated scratch disk usage=  1121458720 words.
 Actual    scratch disk usage=  1027021344 words.
 JobTyp=1 Pass  1:  I=   1 to  42 NPSUse= 16 ParTrn=T ParDer=T DoDerP=T.
 Spin components of T(2) and E(2):
     alpha-alpha T2 =       0.8707218201D-01 E2=     -0.2301940030D+00
     alpha-beta  T2 =       0.4556449515D+00 E2=     -0.1435980682D+01
     beta-beta   T2 =       0.8707218201D-01 E2=     -0.2301940030D+00
 ANorm=    0.1276632020D+01
 E2 =    -0.1896368688D+01 EUMP2 =    -0.46340353381669D+03
 G2DrvN: will do    25 centers at a time, making    1 passes.
 Calling FoFCou, ICntrl=  3107 FMM=F I1Cent=   0 AccDes= 0.00D+00.
 End of G2Drv F.D. properties file   721 does not exist.
 End of G2Drv F.D. properties file   722 does not exist.
 End of G2Drv F.D. properties file   788 does not exist.
          IDoAtm=111111111111111111111111
          Differentiating once with respect to electric field.
                with respect to dipole field.
          Differentiating once with respect to nuclear coordinates.
          There are    75 degrees of freedom in the 1st order CPHF.  IDoFFX=6 NUNeed=    75.
     72 vectors produced by pass  0 Test12= 1.65D-14 1.33D-09 XBig12= 6.21D+01 2.95D+00.
 AX will form    72 AO Fock derivatives at one time.
     72 vectors produced by pass  1 Test12= 1.65D-14 1.33D-09 XBig12= 3.71D+00 2.81D-01.
     72 vectors produced by pass  2 Test12= 1.65D-14 1.33D-09 XBig12= 5.67D-02 5.98D-02.
     72 vectors produced by pass  3 Test12= 1.65D-14 1.33D-09 XBig12= 5.89D-04 4.63D-03.
     72 vectors produced by pass  4 Test12= 1.65D-14 1.33D-09 XBig12= 5.32D-06 3.36D-04.
     72 vectors produced by pass  5 Test12= 1.65D-14 1.33D-09 XBig12= 4.64D-08 3.32D-05.
     72 vectors produced by pass  6 Test12= 1.65D-14 1.33D-09 XBig12= 3.36D-10 2.90D-06.
     39 vectors produced by pass  7 Test12= 1.65D-14 1.33D-09 XBig12= 2.51D-12 2.20D-07.
      3 vectors produced by pass  8 Test12= 1.65D-14 1.33D-09 XBig12= 1.42D-14 1.91D-08.
      3 vectors produced by pass  9 Test12= 1.65D-14 1.33D-09 XBig12= 2.01D-15 2.36D-08.
      1 vectors produced by pass 10 Test12= 1.65D-14 1.33D-09 XBig12= 3.48D-16 4.70D-09.
 InvSVY:  IOpt=1 It=  1 EMax= 7.11D-15
 Solved reduced A of dimension   550 with    75 vectors.
 End of Minotr F.D. properties file   721 does not exist.
 End of Minotr F.D. properties file   722 does not exist.
 End of Minotr F.D. properties file   788 does not exist.
 MDV=   536870912.
 Form MO integral derivatives with frozen-active canonical formalism.
 Discarding MO integrals.
 Reordered first order wavefunction length =    304946208
 In DefCFB: NBatch=  1 ICI= 42 ICA=294 LFMax= 33
            Large arrays: LIAPS=  5775307776 LIARS=   691833744 words.
 Semi-Direct transformation.
 ModeAB=           4 MOrb=            42 LenV=     534235023
 LASXX=    732400662 LTotXX=   732400662 LenRXX=  1471469034
 LTotAB=   739068372 MaxLAS=   273180096 LenRXY=           0
 NonZer=  2203869696 LenScr=  3307601920 LnRSAI=   273180096
 LnScr1=   410255360 LExtra=           0 Total=   5462506410
 MaxDsk=          -1 SrtSym=           T ITran=            4
 JobTyp=0 Pass  1:  I=   1 to  42.
 (rs|ai) integrals will be sorted in core.
 Spin components of T(2) and E(2):
     alpha-alpha T2 =       0.8707218201D-01 E2=     -0.2301940030D+00
     alpha-beta  T2 =       0.4556449515D+00 E2=     -0.1435980682D+01
     beta-beta   T2 =       0.8707218201D-01 E2=     -0.2301940030D+00
 ANorm=    0.1805430317D+01
 E2 =    -0.1896368688D+01 EUMP2 =    -0.46340353381668D+03
          IDoAtm=111111111111111111111111
          Differentiating once with respect to electric field.
                with respect to dipole field.
          Differentiating once with respect to nuclear coordinates.
          There are     1 degrees of freedom in the 1st order CPHF.  IDoFFX=0 NUNeed=     1.
 LinEq1:  Iter=  0 NonCon=     1 RMS=2.48D-03 Max=7.15D-02 NDo=     1
 LinEq1:  Iter=  1 NonCon=     1 RMS=5.98D-04 Max=1.48D-02 NDo=     1
 LinEq1:  Iter=  2 NonCon=     1 RMS=1.69D-04 Max=5.28D-03 NDo=     1
 LinEq1:  Iter=  3 NonCon=     1 RMS=3.74D-05 Max=9.79D-04 NDo=     1
 LinEq1:  Iter=  4 NonCon=     1 RMS=9.36D-06 Max=4.59D-04 NDo=     1
 LinEq1:  Iter=  5 NonCon=     1 RMS=4.04D-06 Max=2.60D-04 NDo=     1
 LinEq1:  Iter=  6 NonCon=     1 RMS=1.71D-06 Max=5.29D-05 NDo=     1
 LinEq1:  Iter=  7 NonCon=     1 RMS=2.94D-07 Max=8.46D-06 NDo=     1
 LinEq1:  Iter=  8 NonCon=     1 RMS=1.13D-07 Max=2.21D-06 NDo=     1
 LinEq1:  Iter=  9 NonCon=     1 RMS=1.61D-08 Max=2.65D-07 NDo=     1
 LinEq1:  Iter= 10 NonCon=     1 RMS=4.63D-09 Max=1.33D-07 NDo=     1
 LinEq1:  Iter= 11 NonCon=     1 RMS=1.31D-09 Max=2.38D-08 NDo=     1
 LinEq1:  Iter= 12 NonCon=     1 RMS=3.29D-10 Max=6.54D-09 NDo=     1
 LinEq1:  Iter= 13 NonCon=     1 RMS=8.74D-11 Max=1.11D-09 NDo=     1
 LinEq1:  Iter= 14 NonCon=     0 RMS=1.28D-11 Max=2.69D-10 NDo=     1
 Linear equations converged to 1.000D-10 1.000D-09 after    14 iterations.
 End of Minotr F.D. properties file   721 does not exist.
 End of Minotr F.D. properties file   722 does not exist.
 End of Minotr F.D. properties file   788 does not exist.
 Symmetrizing basis deriv contribution to polar:
 IMax=3 JMax=2 DiffMx= 0.00D+00
 G2DrvN: will do    25 centers at a time, making    1 passes.
 Calling FoFCou, ICntrl=  3107 FMM=F I1Cent=   0 AccDes= 0.00D+00.
 End of G2Drv F.D. properties file   721 does not exist.
 End of G2Drv F.D. properties file   722 does not exist.
 End of G2Drv F.D. properties file   788 does not exist.
 Would need an additional  3172091520 words for in-memory AO integral storage.
 DD1Dir will call FoFJK   8 times, MxPair=       226
 NAB=   903 NAA=     0 NBB=     0 NumPrc= 16.
 FoFJK:  IHMeth= 1 ICntrl=     200 DoSepK=F KAlg= 0 I1Cent=   0 FoldK=F
 IRaf= 990000000 NMat= 226 IRICut=     282 DoRegI=T DoRafI=T ISym2E=-1.
 FoFCou: FMM=F IPFlag=           0 FMFlag=           0 FMFlg1=           0
         NFxFlg=           0 DoJE=F BraDBF=F KetDBF=F FulRan=T
         wScrn=  0.000000 ICntrl=     200 IOpCl=  0 I1Cent=           0 NGrid=           0
         NMat0=  226 NMatS0=      0 NMatT0=  113 NMatD0=  226 NMtDS0=    0 NMtDT0=    0
 Petite list used in FoFCou.
 Discarding MO integrals.

 **********************************************************************

            Population analysis using the MP2 density.

 **********************************************************************

 Orbital symmetries:
       Occupied  (A1) (B2) (B1) (A2) (A1) (B1) (A1) (B2) (A1) (A1)
                 (B2) (A1) (A1) (A1) (B2) (B1) (B2) (A1) (A2) (A1)
                 (B2) (A1) (A1) (A1) (B1) (A1) (B2) (B2) (B2) (B1)
                 (A1) (B2) (A1) (A2) (A1) (B1) (B2) (A1) (B1) (B2)
                 (A2) (B1)
       Virtual   (A1) (B2) (A1) (B1) (B2) (A1) (A2) (A1) (A2) (A1)
                 (B1) (A1) (B2) (A2) (B1) (B1) (A1) (B2) (A1) (B1)
                 (B2) (A2) (A1) (A1) (A2) (B1) (B2) (B1) (A1) (B1)
                 (A2) (B2) (B2) (B2) (B1) (A1) (A1) (A2) (A1) (B1)
                 (B2) (A1) (B1) (A2) (A1) (B2) (A2) (A1) (B1) (A1)
                 (A1) (B1) (B2) (B2) (B2) (A1) (B1) (A1) (B2) (A1)
                 (A2) (B1) (A1) (B2) (B1) (A1) (A2) (A1) (B2) (B1)
                 (B2) (A1) (A1) (B2) (A1) (A1) (B2) (B1) (A1) (B2)
                 (B2) (B1) (A1) (A1) (B2) (B1) (A2) (A2) (A1) (B2)
                 (A2) (B1) (B2) (B1) (A1) (A2) (A1) (B1) (A2) (A1)
                 (B2) (B1) (B1) (A1) (A1) (A2) (B1) (B1) (B2) (A1)
                 (B2) (B2) (A1) (A1) (A1) (A1) (A2) (B1) (B2) (A1)
                 (B2) (A1) (B2) (B1) (B2) (B1) (B2) (A1) (A1) (A2)
                 (A1) (B2) (B1) (A2) (A1) (B2) (A1) (B2) (A2) (B1)
                 (A2) (B1) (B2) (A2) (A1) (A2) (B1) (A1) (B1) (A1)
                 (A1) (A1) (B2) (A1) (B2) (B1) (B2) (B2) (A1) (B1)
                 (A1) (A2) (B1) (A1) (A2) (B1) (A2) (A1) (B2) (B1)
                 (B2) (A1) (B2) (A1) (B1) (A1) (B1) (A2) (B2) (B1)
                 (A1) (A2) (B2) (A1) (B2) (B2) (B1) (B2) (A2) (A2)
                 (B1) (B2) (B1) (B2) (A1) (B1) (B2) (A1) (A2) (A1)
                 (A1) (A2) (A1) (A2) (B2) (B1) (B1) (A2) (B1) (A2)
                 (A2) (A1) (A1) (B2) (A1) (B2) (B1) (B2) (A1) (A1)
                 (B2) (B1) (A1) (B2) (A1) (B1) (A1) (B2) (A1) (B1)
                 (B2) (A2) (A1) (B1) (A1) (B1) (A1) (B2) (A1) (A1)
                 (B1) (A2) (B2) (B1) (A2) (B2) (A2) (A1) (A2) (A1)
                 (A2) (B1) (B2) (A1) (B1) (B1) (B2) (B2) (A2) (A1)
                 (B2) (A1) (B2) (B1) (A1) (B2) (A1) (A1) (B1) (A1)
                 (A2) (A1) (B2) (A1) (B1) (A1) (B1) (B2) (B2) (A1)
                 (A2) (B2) (A1) (A1) (B1) (B2) (B2) (A1) (A2) (A1)
                 (B2) (A1) (B1) (A1)
 The electronic state is 1-A1.
 Alpha  occ. eigenvalues --  -11.24596 -11.24547 -11.24533 -11.24427 -11.24412
 Alpha  occ. eigenvalues --  -11.24360 -11.23273 -11.23224 -11.23093 -11.22954
 Alpha  occ. eigenvalues --  -11.22941 -11.22492  -1.15589  -1.14031  -1.02049
 Alpha  occ. eigenvalues --   -1.02022  -1.00606  -1.00545  -0.82931  -0.82925
 Alpha  occ. eigenvalues --   -0.81545  -0.81523  -0.71426  -0.70056  -0.64947
 Alpha  occ. eigenvalues --   -0.63675  -0.62410  -0.60990  -0.59386  -0.59360
 Alpha  occ. eigenvalues --   -0.58283  -0.58015  -0.50974  -0.50086  -0.50064
 Alpha  occ. eigenvalues --   -0.49151  -0.48684  -0.47730  -0.34556  -0.34355
 Alpha  occ. eigenvalues --   -0.32839  -0.32372
 Alpha virt. eigenvalues --    0.06313   0.07154   0.07572   0.07774   0.08903
 Alpha virt. eigenvalues --    0.08996   0.09301   0.09908   0.09990   0.10249
 Alpha virt. eigenvalues --    0.11374   0.11651   0.12118   0.12455   0.12569
 Alpha virt. eigenvalues --    0.12986   0.14378   0.15203   0.15736   0.15769
 Alpha virt. eigenvalues --    0.16007   0.16585   0.18775   0.19650   0.19675
 Alpha virt. eigenvalues --    0.19834   0.20293   0.20518   0.21478   0.22196
 Alpha virt. eigenvalues --    0.22259   0.22415   0.23590   0.24707   0.24763
 Alpha virt. eigenvalues --    0.24896   0.25208   0.25317   0.26957   0.27195
 Alpha virt. eigenvalues --    0.27912   0.28415   0.28806   0.29061   0.29294
 Alpha virt. eigenvalues --    0.29577   0.30172   0.30949   0.31306   0.32168
 Alpha virt. eigenvalues --    0.32570   0.32748   0.32840   0.33008   0.35187
 Alpha virt. eigenvalues --    0.35971   0.36152   0.36416   0.37045   0.37079
 Alpha virt. eigenvalues --    0.37999   0.38054   0.39059   0.39699   0.40373
 Alpha virt. eigenvalues --    0.40625   0.47657   0.47766   0.48361   0.48487
 Alpha virt. eigenvalues --    0.49224   0.50390   0.52056   0.52711   0.57067
 Alpha virt. eigenvalues --    0.60142   0.60382   0.69069   0.69398   0.69635
 Alpha virt. eigenvalues --    0.71699   0.72266   0.72795   0.73357   0.74218
 Alpha virt. eigenvalues --    0.74332   0.74348   0.75565   0.76081   0.76173
 Alpha virt. eigenvalues --    0.76875   0.77096   0.78266   0.80481   0.82265
 Alpha virt. eigenvalues --    0.82353   0.83982   0.84766   0.84822   0.86356
 Alpha virt. eigenvalues --    0.86357   0.88425   0.90468   0.91131   0.91914
 Alpha virt. eigenvalues --    0.91991   0.92441   0.92933   0.93008   0.93171
 Alpha virt. eigenvalues --    0.94232   0.94968   0.96467   0.97760   0.98810
 Alpha virt. eigenvalues --    1.00043   1.00369   1.00879   1.01217   1.01336
 Alpha virt. eigenvalues --    1.03529   1.03668   1.04650   1.08467   1.09039
 Alpha virt. eigenvalues --    1.09919   1.10795   1.10987   1.11472   1.12036
 Alpha virt. eigenvalues --    1.17849   1.20111   1.20234   1.20368   1.22195
 Alpha virt. eigenvalues --    1.22562   1.23879   1.24998   1.26352   1.31821
 Alpha virt. eigenvalues --    1.33168   1.35001   1.37555   1.38303   1.38669
 Alpha virt. eigenvalues --    1.39915   1.41067   1.41570   1.49595   1.51932
 Alpha virt. eigenvalues --    1.58443   1.68810   1.70575   1.75174   1.76500
 Alpha virt. eigenvalues --    1.77086   1.77129   1.78654   1.79764   1.81184
 Alpha virt. eigenvalues --    1.82684   1.83418   1.83713   1.84304   1.85280
 Alpha virt. eigenvalues --    1.85300   1.90486   1.90788   1.92089   1.92180
 Alpha virt. eigenvalues --    1.92222   1.92295   1.96028   1.96703   2.01078
 Alpha virt. eigenvalues --    2.02580   2.05100   2.06031   2.06338   2.08200
 Alpha virt. eigenvalues --    2.09027   2.09353   2.09663   2.12140   2.12176
 Alpha virt. eigenvalues --    2.13885   2.22780   2.22944   2.23324   2.24163
 Alpha virt. eigenvalues --    2.24250   2.24809   2.24979   2.25771   2.26796
 Alpha virt. eigenvalues --    2.28236   2.28651   2.29641   2.33109   2.33706
 Alpha virt. eigenvalues --    2.36506   2.36819   2.37754   2.38208   2.38507
 Alpha virt. eigenvalues --    2.41561   2.62620   2.64792   2.64937   2.66289
 Alpha virt. eigenvalues --    2.71347   2.71887   2.72948   2.73342   2.74734
 Alpha virt. eigenvalues --    2.76430   2.77124   2.80098   2.81241   2.84316
 Alpha virt. eigenvalues --    2.93591   2.94034   2.95342   2.96459   2.97612
 Alpha virt. eigenvalues --    2.98179   2.99187   3.02452   3.03481   3.04686
 Alpha virt. eigenvalues --    3.05172   3.05782   3.05933   3.06775   3.07012
 Alpha virt. eigenvalues --    3.08247   3.08512   3.10179   3.11056   3.17864
 Alpha virt. eigenvalues --    3.19862   3.20176   3.23801   3.23808   3.24534
 Alpha virt. eigenvalues --    3.27527   3.28307   3.29075   3.29568   3.30127
 Alpha virt. eigenvalues --    3.31208   3.31930   3.32517   3.35155   3.47124
 Alpha virt. eigenvalues --    3.49630   3.53113   3.59333   3.76368   3.76586
 Alpha virt. eigenvalues --    3.77690   3.79591   3.90902   3.91358   3.91441
 Alpha virt. eigenvalues --    3.94315   3.95136   3.99243   4.04719   4.07182
 Alpha virt. eigenvalues --    4.38246   4.38449   4.39882   4.41288   4.47913
 Alpha virt. eigenvalues --    4.49680   4.56110   4.56539   4.57950   4.61267
 Alpha virt. eigenvalues --    5.26233   5.28511  24.74921  24.79171  25.10844
 Alpha virt. eigenvalues --   25.11909  25.12400  25.13409  25.23057  25.23135
 Alpha virt. eigenvalues --   25.24767  25.25010  25.33881  25.35725
          Condensed to atoms (all electrons):
               1          2          3          4          5          6
     1  C   12.639749  -2.348130  -0.369946  -1.323549  -0.369946  -2.348130
     2  C   -2.348130  16.357275  -3.762324   0.496285  -2.513476  -2.406989
     3  C   -0.369946  -3.762324  10.835497  -0.148255   1.874838  -2.513476
     4  C   -1.323549   0.496285  -0.148255   6.397413  -0.148255   0.496285
     5  C   -0.369946  -2.513476   1.874838  -0.148255  10.835497  -3.762324
     6  C   -2.348130  -2.406989  -2.513476   0.496285  -3.762324  16.357275
     7  H   -0.118904  -0.045384   0.143192   0.015080   0.143192  -0.045384
     8  H    0.078471   0.364180  -0.098478  -0.009959  -0.009935   0.004428
     9  H   -0.007181  -0.029911   0.377136   0.000709  -0.004579  -0.007128
    10  H    0.018095  -0.023689  -0.006647   0.374171  -0.006647  -0.023689
    11  H   -0.007181  -0.007128  -0.004579   0.000709   0.377136  -0.029911
    12  H    0.078471   0.004428  -0.009935  -0.009959  -0.098478   0.364180
    13  C   -0.798730   0.136577   0.166910   0.007046   0.166910   0.136577
    14  C    0.249767  -0.258245  -0.036655   0.002612  -0.153385   0.240424
    15  C    0.249767  -0.258245  -0.036655   0.002612  -0.153385   0.240424
    16  C   -0.798730   0.136577   0.166910   0.007046   0.166910   0.136577
    17  C    0.249767   0.240424  -0.153385   0.002612  -0.036655  -0.258245
    18  C    0.249767   0.240424  -0.153385   0.002612  -0.036655  -0.258245
    19  H    0.000410  -0.000803   0.000537  -0.000131   0.000537  -0.000803
    20  H   -0.011359   0.000888   0.000558  -0.000061   0.005266   0.003636
    21  H   -0.011359   0.000888   0.000558  -0.000061   0.005266   0.003636
    22  H    0.000410  -0.000803   0.000537  -0.000131   0.000537  -0.000803
    23  H   -0.011359   0.003636   0.005266  -0.000061   0.000558   0.000888
    24  H   -0.011359   0.003636   0.005266  -0.000061   0.000558   0.000888
               7          8          9         10         11         12
     1  C   -0.118904   0.078471  -0.007181   0.018095  -0.007181   0.078471
     2  C   -0.045384   0.364180  -0.029911  -0.023689  -0.007128   0.004428
     3  C    0.143192  -0.098478   0.377136  -0.006647  -0.004579  -0.009935
     4  C    0.015080  -0.009959   0.000709   0.374171   0.000709  -0.009959
     5  C    0.143192  -0.009935  -0.004579  -0.006647   0.377136  -0.098478
     6  C   -0.045384   0.004428  -0.007128  -0.023689  -0.029911   0.364180
     7  H    0.790502  -0.017887  -0.000179   0.000038  -0.000179  -0.017887
     8  H   -0.017887   0.564993  -0.007272  -0.000226   0.000067  -0.000094
     9  H   -0.000179  -0.007272   0.555333  -0.007575  -0.000220   0.000067
    10  H    0.000038  -0.000226  -0.007575   0.553925  -0.007575  -0.000226
    11  H   -0.000179   0.000067  -0.000220  -0.007575   0.555333  -0.007272
    12  H   -0.017887  -0.000094   0.000067  -0.000226  -0.007272   0.564993
    13  C    0.155598  -0.007753   0.000065  -0.000041   0.000065  -0.007753
    14  C   -0.069650   0.002277   0.000011   0.000018   0.000049   0.007205
    15  C   -0.069650   0.002277   0.000011   0.000018   0.000049   0.007205
    16  C    0.155598  -0.007753   0.000065  -0.000041   0.000065  -0.007753
    17  C   -0.069650   0.007205   0.000049   0.000018   0.000011   0.002277
    18  C   -0.069650   0.007205   0.000049   0.000018   0.000011   0.002277
    19  H   -0.000832   0.000016   0.000000   0.000000   0.000000   0.000016
    20  H    0.001553  -0.000004   0.000000   0.000000   0.000000  -0.000241
    21  H    0.001553  -0.000004   0.000000   0.000000   0.000000  -0.000241
    22  H   -0.000832   0.000016   0.000000   0.000000   0.000000   0.000016
    23  H    0.001553  -0.000241   0.000000   0.000000   0.000000  -0.000004
    24  H    0.001553  -0.000241   0.000000   0.000000   0.000000  -0.000004
              13         14         15         16         17         18
     1  C   -0.798730   0.249767   0.249767  -0.798730   0.249767   0.249767
     2  C    0.136577  -0.258245  -0.258245   0.136577   0.240424   0.240424
     3  C    0.166910  -0.036655  -0.036655   0.166910  -0.153385  -0.153385
     4  C    0.007046   0.002612   0.002612   0.007046   0.002612   0.002612
     5  C    0.166910  -0.153385  -0.153385   0.166910  -0.036655  -0.036655
     6  C    0.136577   0.240424   0.240424   0.136577  -0.258245  -0.258245
     7  H    0.155598  -0.069650  -0.069650   0.155598  -0.069650  -0.069650
     8  H   -0.007753   0.002277   0.002277  -0.007753   0.007205   0.007205
     9  H    0.000065   0.000011   0.000011   0.000065   0.000049   0.000049
    10  H   -0.000041   0.000018   0.000018  -0.000041   0.000018   0.000018
    11  H    0.000065   0.000049   0.000049   0.000065   0.000011   0.000011
    12  H   -0.007753   0.007205   0.007205  -0.007753   0.002277   0.002277
    13  C    7.780918  -1.589155   0.785533  -0.349899   0.785533  -1.589155
    14  C   -1.589155   7.857903  -1.282435   0.785533  -1.014124   1.088270
    15  C    0.785533  -1.282435   7.857903  -1.589155   1.088270  -1.014124
    16  C   -0.349899   0.785533  -1.589155   7.780918  -1.589155   0.785533
    17  C    0.785533  -1.014124   1.088270  -1.589155   7.857903  -1.282435
    18  C   -1.589155   1.088270  -1.014124   0.785533  -1.282435   7.857903
    19  H    0.387819  -0.022237  -0.005179   0.006268  -0.005179  -0.022237
    20  H    0.006334   0.357582  -0.030914   0.005823   0.004281  -0.006949
    21  H    0.005823  -0.030914   0.357582   0.006334  -0.006949   0.004281
    22  H    0.006268  -0.005179  -0.022237   0.387819  -0.022237  -0.005179
    23  H    0.005823   0.004281  -0.006949   0.006334   0.357582  -0.030914
    24  H    0.006334  -0.006949   0.004281   0.005823  -0.030914   0.357582
              19         20         21         22         23         24
     1  C    0.000410  -0.011359  -0.011359   0.000410  -0.011359  -0.011359
     2  C   -0.000803   0.000888   0.000888  -0.000803   0.003636   0.003636
     3  C    0.000537   0.000558   0.000558   0.000537   0.005266   0.005266
     4  C   -0.000131  -0.000061  -0.000061  -0.000131  -0.000061  -0.000061
     5  C    0.000537   0.005266   0.005266   0.000537   0.000558   0.000558
     6  C   -0.000803   0.003636   0.003636  -0.000803   0.000888   0.000888
     7  H   -0.000832   0.001553   0.001553  -0.000832   0.001553   0.001553
     8  H    0.000016  -0.000004  -0.000004   0.000016  -0.000241  -0.000241
     9  H    0.000000   0.000000   0.000000   0.000000   0.000000   0.000000
    10  H    0.000000   0.000000   0.000000   0.000000   0.000000   0.000000
    11  H    0.000000   0.000000   0.000000   0.000000   0.000000   0.000000
    12  H    0.000016  -0.000241  -0.000241   0.000016  -0.000004  -0.000004
    13  C    0.387819   0.006334   0.005823   0.006268   0.005823   0.006334
    14  C   -0.022237   0.357582  -0.030914  -0.005179   0.004281  -0.006949
    15  C   -0.005179  -0.030914   0.357582  -0.022237  -0.006949   0.004281
    16  C    0.006268   0.005823   0.006334   0.387819   0.006334   0.005823
    17  C   -0.005179   0.004281  -0.006949  -0.022237   0.357582  -0.030914
    18  C   -0.022237  -0.006949   0.004281  -0.005179  -0.030914   0.357582
    19  H    0.540746  -0.007639  -0.000208   0.000053  -0.000208  -0.007639
    20  H   -0.007639   0.544390  -0.006666  -0.000208   0.000064  -0.000172
    21  H   -0.000208  -0.006666   0.544390  -0.007639  -0.000172   0.000064
    22  H    0.000053  -0.000208  -0.007639   0.540746  -0.007639  -0.000208
    23  H   -0.000208   0.000064  -0.000172  -0.007639   0.544390  -0.006666
    24  H   -0.007639  -0.000172   0.000064  -0.000208  -0.006666   0.544390
 Mulliken charges:
               1
     1  C    0.721185
     2  C   -0.330091
     3  C   -0.283485
     4  C   -0.164711
     5  C   -0.283485
     6  C   -0.330091
     7  H    0.116658
     8  H    0.128711
     9  H    0.130554
    10  H    0.130055
    11  H    0.130554
    12  H    0.128711
    13  C   -0.197644
    14  C   -0.127003
    15  C   -0.127003
    16  C   -0.197644
    17  C   -0.127003
    18  C   -0.127003
    19  H    0.136693
    20  H    0.133837
    21  H    0.133837
    22  H    0.136693
    23  H    0.133837
    24  H    0.133837
 Sum of Mulliken charges =   0.00000
 Mulliken charges with hydrogens summed into heavy atoms:
               1
     1  C    0.837843
     2  C   -0.201379
     3  C   -0.152931
     4  C   -0.034656
     5  C   -0.152931
     6  C   -0.201379
    13  C   -0.060952
    14  C    0.006834
    15  C    0.006834
    16  C   -0.060952
    17  C    0.006834
    18  C    0.006834
 APT charges:
               1
     1  C   -0.026140
     2  C   -0.046884
     3  C   -0.033826
     4  C   -0.041079
     5  C   -0.033826
     6  C   -0.046884
     7  H    0.050521
     8  H    0.037706
     9  H    0.030196
    10  H    0.033227
    11  H    0.030196
    12  H    0.037706
    13  C   -0.042526
    14  C   -0.042986
    15  C   -0.042986
    16  C   -0.042526
    17  C   -0.042986
    18  C   -0.042986
    19  H    0.044169
    20  H    0.044436
    21  H    0.044436
    22  H    0.044169
    23  H    0.044436
    24  H    0.044436
 Sum of APT charges =   0.00000
 APT charges with hydrogens summed into heavy atoms:
               1
     1  C    0.024381
     2  C   -0.009177
     3  C   -0.003630
     4  C   -0.007852
     5  C   -0.003630
     6  C   -0.009177
    13  C    0.001643
    14  C    0.001450
    15  C    0.001450
    16  C    0.001643
    17  C    0.001450
    18  C    0.001450
 Electronic spatial extent (au):  <R**2>=           2648.2732
 Charge=              0.0000 electrons
 Dipole moment (field-independent basis, Debye):
    X=              0.0000    Y=              0.0000    Z=             -0.5017  Tot=              0.5017
 Quadrupole moment (field-independent basis, Debye-Ang):
   XX=            -73.1376   YY=            -65.4765   ZZ=            -74.2402
   XY=              0.0000   XZ=              0.0000   YZ=              0.0000
 Traceless Quadrupole moment (field-independent basis, Debye-Ang):
   XX=             -2.1861   YY=              5.4749   ZZ=             -3.2888
   XY=              0.0000   XZ=              0.0000   YZ=              0.0000
 Octapole moment (field-independent basis, Debye-Ang**2):
  XXX=              0.0000  YYY=              0.0000  ZZZ=             52.7554  XYY=              0.0000
  XXY=              0.0000  XXZ=            -21.1167  XZZ=              0.0000  YZZ=              0.0000
  YYZ=             -1.5367  XYZ=              0.0000
 Hexadecapole moment (field-independent basis, Debye-Ang**3):
 XXXX=           -330.7560 YYYY=           -566.1680 ZZZZ=          -2877.8298 XXXY=              0.0000
 XXXZ=              0.0000 YYYX=              0.0000 YYYZ=              0.0000 ZZZX=              0.0000
 ZZZY=              0.0000 XXYY=           -160.4151 XXZZ=           -554.5015 YYZZ=           -537.2065
 XXYZ=              0.0000 YYXZ=              0.0000 ZZXY=              0.0000
 N-N= 5.950121533979D+02 E-N=-2.265064839991D+03  KE= 4.627851536218D+02
 Symmetry A1   KE= 2.232295709347D+02
 Symmetry A2   KE= 4.020705626137D+01
 Symmetry B1   KE= 7.856847537168D+01
 Symmetry B2   KE= 1.207800510541D+02
  Exact polarizability: 113.994   0.000 146.574   0.000   0.000 135.099
 Approx polarizability: 119.681   0.000 150.319   0.000   0.000 119.438
 Calling FoFJK, ICntrl=  10100127 FMM=F ISym2X=1 I1Cent= 0 IOpClX= 0 NMat=1 NMatS=1 NMatT=0.
 ***** Axes restored to original set *****
 -------------------------------------------------------------------
 Center     Atomic                   Forces (Hartrees/Bohr)
 Number     Number              X              Y              Z
 -------------------------------------------------------------------
      1        6           0.000000000    0.000000000   -0.000000882
      2        6           0.000000000    0.000006860    0.000038446
      3        6           0.000000000    0.000006657   -0.000027302
      4        6           0.000000000    0.000000000   -0.000029736
      5        6           0.000000000   -0.000006657   -0.000027302
      6        6           0.000000000   -0.000006860    0.000038446
      7        1           0.000000000    0.000000000   -0.000000738
      8        1           0.000000000   -0.000001403   -0.000004849
      9        1           0.000000000    0.000000581    0.000004813
     10        1           0.000000000    0.000000000    0.000001405
     11        1           0.000000000   -0.000000581    0.000004813
     12        1           0.000000000    0.000001403   -0.000004849
     13        6          -0.000029471    0.000000000    0.000037606
     14        6           0.000082696   -0.000006580   -0.000005673
     15        6          -0.000082696   -0.000006580   -0.000005673
     16        6           0.000029471    0.000000000    0.000037606
     17        6          -0.000082696    0.000006580   -0.000005673
     18        6           0.000082696    0.000006580   -0.000005673
     19        1           0.000003390    0.000000000   -0.000011789
     20        1          -0.000003881    0.000002889   -0.000005302
     21        1           0.000003881    0.000002889   -0.000005302
     22        1          -0.000003390    0.000000000   -0.000011789
     23        1           0.000003881   -0.000002889   -0.000005302
     24        1          -0.000003881   -0.000002889   -0.000005302
 -------------------------------------------------------------------
 Cartesian Forces:  Max     0.000082696 RMS     0.000023077
 FormGI is forming the generalized inverse of G from B-inverse, IUseBI=4.
 NDeriv=   3 NFrqRd=  0 NDerD0=   0 MskFDP=       0 MskDFD=       0 MskDF0=       0
 At 1st pt F.D. properties file   721 does not exist.
 At 1st pt F.D. properties file   722 does not exist.
 D2Numr ... symmetry will be used.
 Standard basis: 6-311+G(d,p) (5D, 7F)
 The following finite field(s) will be applied:
 An electric field of              0.0003  0.0000  0.0000
   336 basis functions,   528 primitive gaussians,   348 cartesian basis functions
    42 alpha electrons       42 beta electrons
       nuclear repulsion energy       595.0121533979 Hartrees.
 NAtoms=   24 NActive=   24 NUniq=   24 SFac= 1.00D+00 NAtFMM=   60 NAOKFM=F Big=F
 Integral buffers will be    131072 words long.
 Raffenetti 1 integral format.
 Two-electron integral symmetry is turned off.
 One-electron integrals computed using PRISM.
 NBasis=   336 RedAO= T EigKep=  2.79D-06  NBF=   336
 NBsUse=   336 1.00D-06 EigRej= -1.00D+00 NBFU=   336
 The nuclear repulsion energy is now       595.0121533979 hartrees.
 Initial guess from the checkpoint file:  "benzene-mp2freq.chk"
 B after Tr=     0.000000    0.000000    0.000000
         Rot=    1.000000    0.000000    0.000000    0.000000 Ang=   0.00 deg.
 Requested convergence on RMS density matrix=1.00D-08 within 128 cycles.
 Requested convergence on MAX density matrix=1.00D-06.
 Requested convergence on             energy=1.00D-06.
 No special actions if energy rises.
 SCF Done:  E(RHF) =  -461.507171423     A.U. after    8 cycles
            NFock=  8  Conv=0.57D-08     -V/T= 2.0016
 Range of M.O.s used for correlation:     1   336
 NBasis=   336 NAE=    42 NBE=    42 NFC=     0 NFV=     0
 NROrb=    336 NOA=    42 NOB=    42 NVA=   294 NVB=   294

 **** Warning!!: The largest alpha MO coefficient is  0.13777906D+03

 Disk-based method using ON**2 memory for 42 occupieds at a time.
 Permanent disk used for amplitudes=   189557235 words.
 Estimated scratch disk usage=  3100907072 words.
 Actual    scratch disk usage=  2840663616 words.
 JobTyp=1 Pass  1:  I=   1 to  42 NPSUse= 16 ParTrn=T ParDer=T DoDerP=T.
 Spin components of T(2) and E(2):
     alpha-alpha T2 =       0.8707222915D-01 E2=     -0.2301940224D+00
     alpha-beta  T2 =       0.4556451468D+00 E2=     -0.1435980689D+01
     beta-beta   T2 =       0.8707222915D-01 E2=     -0.2301940224D+00
 ANorm=    0.1276632134D+01
 E2 =    -0.1896368734D+01 EUMP2 =    -0.46340354015704D+03
 G2DrvN: will do    25 centers at a time, making    1 passes.
 Calling FoFCou, ICntrl=  3107 FMM=F I1Cent=   0 AccDes= 0.00D+00.
 End of G2Drv F.D. properties file   721 does not exist.
 End of G2Drv F.D. properties file   722 does not exist.
 End of G2Drv F.D. properties file   788 does not exist.
          IDoAtm=111111111111111111111111
          Differentiating once with respect to electric field.
                with respect to dipole field.
          Differentiating once with respect to nuclear coordinates.
          There are    75 degrees of freedom in the 1st order CPHF.  IDoFFX=6 NUNeed=    75.
     72 vectors produced by pass  0 Test12= 1.65D-14 1.33D-09 XBig12= 6.21D+01 2.95D+00.
 AX will form    72 AO Fock derivatives at one time.
     72 vectors produced by pass  1 Test12= 1.65D-14 1.33D-09 XBig12= 3.71D+00 2.81D-01.
     72 vectors produced by pass  2 Test12= 1.65D-14 1.33D-09 XBig12= 5.67D-02 5.98D-02.
     72 vectors produced by pass  3 Test12= 1.65D-14 1.33D-09 XBig12= 5.89D-04 4.63D-03.
     72 vectors produced by pass  4 Test12= 1.65D-14 1.33D-09 XBig12= 5.32D-06 3.36D-04.
     72 vectors produced by pass  5 Test12= 1.65D-14 1.33D-09 XBig12= 4.64D-08 3.32D-05.
     72 vectors produced by pass  6 Test12= 1.65D-14 1.33D-09 XBig12= 3.35D-10 2.90D-06.
     39 vectors produced by pass  7 Test12= 1.65D-14 1.33D-09 XBig12= 2.51D-12 2.12D-07.
      3 vectors produced by pass  8 Test12= 1.65D-14 1.33D-09 XBig12= 1.41D-14 1.90D-08.
      3 vectors produced by pass  9 Test12= 1.65D-14 1.33D-09 XBig12= 1.47D-15 1.98D-08.
      1 vectors produced by pass 10 Test12= 1.65D-14 1.33D-09 XBig12= 6.50D-16 1.15D-08.
 InvSVY:  IOpt=1 It=  1 EMax= 2.66D-15
 Solved reduced A of dimension   550 with    75 vectors.
 End of Minotr F.D. properties file   721 does not exist.
 End of Minotr F.D. properties file   722 does not exist.
 End of Minotr F.D. properties file   788 does not exist.
 MDV=   536870912.
 Form MO integral derivatives with frozen-active canonical formalism.
 Discarding MO integrals.
 Reordered first order wavefunction length =    304946208
 In DefCFB: NBatch=  1 ICI= 42 ICA=294 LFMax= 33
            Large arrays: LIAPS=  5775307776 LIARS=   691833744 words.
 Semi-Direct transformation.
 ModeAB=           4 MOrb=            42 LenV=     534189357
 LASXX=    732400662 LTotXX=   732400662 LenRXX=  1471469034
 LTotAB=   739068372 MaxLAS=   746750592 LenRXY=           0
 NonZer=  2203869696 LenScr=  3307601920 LnRSAI=   746750592
 LnScr1=  1121320960 LExtra=           0 Total=   6647142506
 MaxDsk=          -1 SrtSym=           T ITran=            4
 JobTyp=0 Pass  1:  I=   1 to  42.
 Spin components of T(2) and E(2):
     alpha-alpha T2 =       0.8707222915D-01 E2=     -0.2301940224D+00
     alpha-beta  T2 =       0.4556451468D+00 E2=     -0.1435980689D+01
     beta-beta   T2 =       0.8707222915D-01 E2=     -0.2301940224D+00
 ANorm=    0.1805430478D+01
 E2 =    -0.1896368734D+01 EUMP2 =    -0.46340354015700D+03
          IDoAtm=111111111111111111111111
          Differentiating once with respect to electric field.
                with respect to dipole field.
          Differentiating once with respect to nuclear coordinates.
          There are     1 degrees of freedom in the 1st order CPHF.  IDoFFX=0 NUNeed=     1.
 LinEq1:  Iter=  0 NonCon=     1 RMS=2.48D-03 Max=7.15D-02 NDo=     1
 LinEq1:  Iter=  1 NonCon=     1 RMS=5.98D-04 Max=1.48D-02 NDo=     1
 LinEq1:  Iter=  2 NonCon=     1 RMS=1.69D-04 Max=5.28D-03 NDo=     1
 LinEq1:  Iter=  3 NonCon=     1 RMS=3.74D-05 Max=9.78D-04 NDo=     1
 LinEq1:  Iter=  4 NonCon=     1 RMS=9.36D-06 Max=4.60D-04 NDo=     1
 LinEq1:  Iter=  5 NonCon=     1 RMS=4.04D-06 Max=2.60D-04 NDo=     1
 LinEq1:  Iter=  6 NonCon=     1 RMS=1.71D-06 Max=5.30D-05 NDo=     1
 LinEq1:  Iter=  7 NonCon=     1 RMS=2.94D-07 Max=8.45D-06 NDo=     1
 LinEq1:  Iter=  8 NonCon=     1 RMS=1.13D-07 Max=2.21D-06 NDo=     1
 LinEq1:  Iter=  9 NonCon=     1 RMS=1.61D-08 Max=2.64D-07 NDo=     1
 LinEq1:  Iter= 10 NonCon=     1 RMS=4.63D-09 Max=1.33D-07 NDo=     1
 LinEq1:  Iter= 11 NonCon=     1 RMS=1.31D-09 Max=2.38D-08 NDo=     1
 LinEq1:  Iter= 12 NonCon=     1 RMS=3.29D-10 Max=6.56D-09 NDo=     1
 LinEq1:  Iter= 13 NonCon=     1 RMS=8.75D-11 Max=1.11D-09 NDo=     1
 LinEq1:  Iter= 14 NonCon=     0 RMS=1.28D-11 Max=2.69D-10 NDo=     1
 Linear equations converged to 1.000D-10 1.000D-09 after    14 iterations.
 End of Minotr F.D. properties file   721 does not exist.
 End of Minotr F.D. properties file   722 does not exist.
 End of Minotr F.D. properties file   788 does not exist.
 Symmetrizing basis deriv contribution to polar:
 IMax=3 JMax=2 DiffMx= 0.00D+00
 G2DrvN: will do    25 centers at a time, making    1 passes.
 Calling FoFCou, ICntrl=  3107 FMM=F I1Cent=   0 AccDes= 0.00D+00.
 End of G2Drv F.D. properties file   721 does not exist.
 End of G2Drv F.D. properties file   722 does not exist.
 End of G2Drv F.D. properties file   788 does not exist.
 Would need an additional  3172091520 words for in-memory AO integral storage.
 DD1Dir will call FoFJK   8 times, MxPair=       226
 NAB=   903 NAA=     0 NBB=     0 NumPrc= 16.
 FoFJK:  IHMeth= 1 ICntrl=     200 DoSepK=F KAlg= 0 I1Cent=   0 FoldK=F
 IRaf= 990000000 NMat= 226 IRICut=     282 DoRegI=T DoRafI=T ISym2E= 0.
 FoFCou: FMM=F IPFlag=           0 FMFlag=           0 FMFlg1=           0
         NFxFlg=           0 DoJE=F BraDBF=F KetDBF=F FulRan=T
         wScrn=  0.000000 ICntrl=     200 IOpCl=  0 I1Cent=           0 NGrid=           0
         NMat0=  226 NMatS0=      0 NMatT0=  113 NMatD0=  226 NMtDS0=    0 NMtDT0=    0
 Symmetry not used in FoFCou.
 Discarding MO integrals.

 **********************************************************************

            Population analysis using the MP2 density.

 **********************************************************************

 Alpha  occ. eigenvalues --  -11.24601 -11.24549 -11.24530 -11.24426 -11.24417
 Alpha  occ. eigenvalues --  -11.24353 -11.23273 -11.23224 -11.23093 -11.22954
 Alpha  occ. eigenvalues --  -11.22941 -11.22492  -1.15589  -1.14032  -1.02049
 Alpha  occ. eigenvalues --   -1.02022  -1.00607  -1.00545  -0.82931  -0.82925
 Alpha  occ. eigenvalues --   -0.81545  -0.81523  -0.71426  -0.70056  -0.64948
 Alpha  occ. eigenvalues --   -0.63675  -0.62410  -0.60990  -0.59386  -0.59360
 Alpha  occ. eigenvalues --   -0.58284  -0.58015  -0.50974  -0.50086  -0.50064
 Alpha  occ. eigenvalues --   -0.49151  -0.48684  -0.47730  -0.34556  -0.34355
 Alpha  occ. eigenvalues --   -0.32839  -0.32372
 Alpha virt. eigenvalues --    0.06304   0.07150   0.07551   0.07793   0.08899
 Alpha virt. eigenvalues --    0.08999   0.09307   0.09907   0.09990   0.10248
 Alpha virt. eigenvalues --    0.11376   0.11650   0.12118   0.12455   0.12571
 Alpha virt. eigenvalues --    0.12986   0.14378   0.15203   0.15736   0.15769
 Alpha virt. eigenvalues --    0.16006   0.16585   0.18776   0.19649   0.19675
 Alpha virt. eigenvalues --    0.19834   0.20293   0.20516   0.21480   0.22196
 Alpha virt. eigenvalues --    0.22259   0.22415   0.23591   0.24707   0.24765
 Alpha virt. eigenvalues --    0.24895   0.25208   0.25317   0.26955   0.27198
 Alpha virt. eigenvalues --    0.27912   0.28412   0.28808   0.29060   0.29293
 Alpha virt. eigenvalues --    0.29579   0.30175   0.30948   0.31306   0.32170
 Alpha virt. eigenvalues --    0.32569   0.32752   0.32840   0.33008   0.35187
 Alpha virt. eigenvalues --    0.35969   0.36153   0.36416   0.37045   0.37079
 Alpha virt. eigenvalues --    0.37999   0.38054   0.39059   0.39699   0.40369
 Alpha virt. eigenvalues --    0.40631   0.47656   0.47765   0.48361   0.48488
 Alpha virt. eigenvalues --    0.49224   0.50390   0.52056   0.52711   0.57067
 Alpha virt. eigenvalues --    0.60142   0.60382   0.69069   0.69398   0.69635
 Alpha virt. eigenvalues --    0.71699   0.72266   0.72795   0.73357   0.74218
 Alpha virt. eigenvalues --    0.74332   0.74348   0.75565   0.76082   0.76173
 Alpha virt. eigenvalues --    0.76876   0.77096   0.78267   0.80481   0.82265
 Alpha virt. eigenvalues --    0.82353   0.83982   0.84766   0.84822   0.86356
 Alpha virt. eigenvalues --    0.86358   0.88425   0.90467   0.91131   0.91911
 Alpha virt. eigenvalues --    0.91991   0.92444   0.92933   0.93008   0.93171
 Alpha virt. eigenvalues --    0.94232   0.94968   0.96467   0.97760   0.98810
 Alpha virt. eigenvalues --    1.00042   1.00368   1.00880   1.01218   1.01336
 Alpha virt. eigenvalues --    1.03529   1.03668   1.04651   1.08467   1.09039
 Alpha virt. eigenvalues --    1.09919   1.10794   1.10987   1.11472   1.12036
 Alpha virt. eigenvalues --    1.17849   1.20111   1.20234   1.20368   1.22195
 Alpha virt. eigenvalues --    1.22562   1.23879   1.24998   1.26352   1.31821
 Alpha virt. eigenvalues --    1.33168   1.35001   1.37554   1.38303   1.38669
 Alpha virt. eigenvalues --    1.39915   1.41067   1.41570   1.49595   1.51932
 Alpha virt. eigenvalues --    1.58443   1.68810   1.70575   1.75174   1.76499
 Alpha virt. eigenvalues --    1.77086   1.77129   1.78654   1.79764   1.81183
 Alpha virt. eigenvalues --    1.82684   1.83418   1.83713   1.84305   1.85280
 Alpha virt. eigenvalues --    1.85300   1.90486   1.90788   1.92089   1.92180
 Alpha virt. eigenvalues --    1.92223   1.92295   1.96028   1.96703   2.01077
 Alpha virt. eigenvalues --    2.02579   2.05100   2.06031   2.06338   2.08200
 Alpha virt. eigenvalues --    2.09027   2.09353   2.09663   2.12140   2.12176
 Alpha virt. eigenvalues --    2.13885   2.22780   2.22944   2.23325   2.24163
 Alpha virt. eigenvalues --    2.24250   2.24809   2.24979   2.25771   2.26796
 Alpha virt. eigenvalues --    2.28236   2.28651   2.29641   2.33109   2.33706
 Alpha virt. eigenvalues --    2.36506   2.36819   2.37754   2.38208   2.38507
 Alpha virt. eigenvalues --    2.41561   2.62620   2.64792   2.64936   2.66289
 Alpha virt. eigenvalues --    2.71347   2.71887   2.72948   2.73342   2.74734
 Alpha virt. eigenvalues --    2.76430   2.77124   2.80098   2.81242   2.84316
 Alpha virt. eigenvalues --    2.93591   2.94034   2.95342   2.96459   2.97612
 Alpha virt. eigenvalues --    2.98179   2.99186   3.02452   3.03481   3.04685
 Alpha virt. eigenvalues --    3.05172   3.05782   3.05933   3.06772   3.07015
 Alpha virt. eigenvalues --    3.08247   3.08512   3.10179   3.11056   3.17864
 Alpha virt. eigenvalues --    3.19862   3.20176   3.23801   3.23808   3.24534
 Alpha virt. eigenvalues --    3.27527   3.28307   3.29075   3.29568   3.30127
 Alpha virt. eigenvalues --    3.31208   3.31930   3.32517   3.35155   3.47124
 Alpha virt. eigenvalues --    3.49630   3.53113   3.59333   3.76368   3.76586
 Alpha virt. eigenvalues --    3.77690   3.79590   3.90901   3.91357   3.91442
 Alpha virt. eigenvalues --    3.94315   3.95136   3.99243   4.04719   4.07182
 Alpha virt. eigenvalues --    4.38246   4.38449   4.39882   4.41288   4.47913
 Alpha virt. eigenvalues --    4.49680   4.56110   4.56539   4.57950   4.61267
 Alpha virt. eigenvalues --    5.26233   5.28511  24.74921  24.79170  25.10844
 Alpha virt. eigenvalues --   25.11909  25.12400  25.13408  25.23057  25.23135
 Alpha virt. eigenvalues --   25.24767  25.25010  25.33881  25.35725
          Condensed to atoms (all electrons):
               1          2          3          4          5          6
     1  C   12.639840  -2.348147  -0.369967  -1.323570  -0.369967  -2.348147
     2  C   -2.348147  16.357413  -3.762339   0.496267  -2.513498  -2.407055
     3  C   -0.369967  -3.762339  10.835590  -0.148254   1.874808  -2.513498
     4  C   -1.323570   0.496267  -0.148254   6.397473  -0.148254   0.496267
     5  C   -0.369967  -2.513498   1.874808  -0.148254  10.835590  -3.762339
     6  C   -2.348147  -2.407055  -2.513498   0.496267  -3.762339  16.357413
     7  H   -0.118915  -0.045383   0.143194   0.015082   0.143194  -0.045383
     8  H    0.078469   0.364181  -0.098482  -0.009957  -0.009935   0.004431
     9  H   -0.007178  -0.029917   0.377140   0.000704  -0.004577  -0.007128
    10  H    0.018096  -0.023687  -0.006652   0.374175  -0.006652  -0.023687
    11  H   -0.007178  -0.007128  -0.004577   0.000704   0.377140  -0.029917
    12  H    0.078469   0.004431  -0.009935  -0.009957  -0.098482   0.364181
    13  C   -0.798431   0.136009   0.167385   0.006938   0.167385   0.136009
    14  C    0.249988  -0.259892  -0.036973   0.002608  -0.153825   0.242908
    15  C    0.249550  -0.256599  -0.036334   0.002615  -0.152952   0.237941
    16  C   -0.799031   0.137145   0.166437   0.007153   0.166437   0.137145
    17  C    0.249550   0.237941  -0.152952   0.002615  -0.036334  -0.256599
    18  C    0.249988   0.242908  -0.153825   0.002608  -0.036973  -0.259892
    19  H    0.000378  -0.000794   0.000539  -0.000130   0.000539  -0.000794
    20  H   -0.011370   0.000899   0.000562  -0.000062   0.005289   0.003605
    21  H   -0.011348   0.000878   0.000555  -0.000059   0.005244   0.003667
    22  H    0.000442  -0.000812   0.000535  -0.000132   0.000535  -0.000812
    23  H   -0.011348   0.003667   0.005244  -0.000059   0.000555   0.000878
    24  H   -0.011370   0.003605   0.005289  -0.000062   0.000562   0.000899
               7          8          9         10         11         12
     1  C   -0.118915   0.078469  -0.007178   0.018096  -0.007178   0.078469
     2  C   -0.045383   0.364181  -0.029917  -0.023687  -0.007128   0.004431
     3  C    0.143194  -0.098482   0.377140  -0.006652  -0.004577  -0.009935
     4  C    0.015082  -0.009957   0.000704   0.374175   0.000704  -0.009957
     5  C    0.143194  -0.009935  -0.004577  -0.006652   0.377140  -0.098482
     6  C   -0.045383   0.004431  -0.007128  -0.023687  -0.029917   0.364181
     7  H    0.790509  -0.017887  -0.000179   0.000038  -0.000179  -0.017887
     8  H   -0.017887   0.564992  -0.007272  -0.000226   0.000067  -0.000094
     9  H   -0.000179  -0.007272   0.555332  -0.007575  -0.000220   0.000067
    10  H    0.000038  -0.000226  -0.007575   0.553924  -0.007575  -0.000226
    11  H   -0.000179   0.000067  -0.000220  -0.007575   0.555332  -0.007272
    12  H   -0.017887  -0.000094   0.000067  -0.000226  -0.007272   0.564992
    13  C    0.155443  -0.007872   0.000060  -0.000039   0.000060  -0.007872
    14  C   -0.070188   0.002378   0.000013   0.000016   0.000060   0.007512
    15  C   -0.069114   0.002175   0.000008   0.000020   0.000038   0.006898
    16  C    0.155752  -0.007635   0.000070  -0.000044   0.000070  -0.007635
    17  C   -0.069114   0.006898   0.000038   0.000020   0.000008   0.002175
    18  C   -0.070188   0.007512   0.000060   0.000016   0.000013   0.002378
    19  H   -0.000826   0.000016   0.000000   0.000000   0.000000   0.000016
[...]
 0,0.00050565,-0.00002320,0.00007405,-0.00000582,-0.00000943,0.00000923
 ,-0.00003497,0.00000107,0.00000751,-0.00000711,-0.00000017,-0.00001129
 ,-0.00004104,0.00005006,0.00004115,0.00005873,-0.02992453,0.02290657,0
 .00045163,-0.02255135,-0.12110987,-0.00068610,0.02682753,0.73174028,0.
 00081141,0.00084991,0.00020913,-0.00025887,-0.00011385,-0.00036038,0.0
 0007475,0.00010501,-0.00007883,-0.00003696,0.00003895,-0.00001065,0.00
 021265,0.00001405,0.00000235,-0.00046025,0.00003680,0.00018897,0.00037
 063,0.00032042,-0.00140589,0.00001300,0.00001033,-0.00003137,-0.000015
 93,0.00001413,-0.00004534,-0.00000589,0.00000489,-0.00001818,-0.000037
 58,-0.00001685,-0.00000507,0.00001087,0.00007223,0.00017564,-0.0008688
 2,-0.00064881,-0.00436760,0.00042715,-0.00068610,-0.04258740,0.0002231
 1,0.00016176,0.10911264,0.00039312,0.,0.00029113,-0.00010464,-0.000005
 64,-0.00012735,0.00003781,0.00002665,-0.00003572,0.00002774,0.,-0.0000
 4377,0.00003781,-0.00002665,-0.00003572,-0.00010464,0.00000564,-0.0001
 2735,-0.00078601,0.,0.00054624,-0.00002106,-0.00003061,0.00006298,0.00
 000098,0.00001768,-0.00003614,-0.00000169,0.,-0.00002286,0.00000098,-0
 .00001768,-0.00003614,-0.00002106,0.00003061,0.00006298,-0.00027845,0.
 ,-0.00067694,-0.02579188,0.02992453,0.00086882,-0.18000451,0.12481319,
 -0.00114923,0.74811617,0.,-0.00057292,0.,0.00000953,0.00010660,0.00016
 008,0.00005950,-0.00008577,0.00000689,0.,-0.00001337,0.,-0.00005950,-0
 .00008577,-0.00000689,-0.00000953,0.00010660,-0.00016008,0.,0.00051577
 ,0.,-0.00006343,-0.00009838,0.00008084,-0.00000508,0.00000128,0.000008
 09,0.,-0.00001150,0.,0.00000508,0.00000128,-0.00000809,0.00006343,-0.0
 0009838,-0.00008084,0.,-0.04549353,0.,0.05437331,0.02290657,-0.0006488
 1,0.07944461,-0.29763779,0.00043104,0.,0.68487640,0.00075444,0.,-0.000
 07775,0.00037720,-0.00017503,0.00004644,-0.00024906,-0.00001037,0.0000
 2305,0.00005786,0.,-0.00007303,-0.00024906,0.00001037,0.00002305,0.000
 37720,0.00017503,0.00004644,0.00033496,0.,-0.00136423,-0.00004221,0.00
 003028,0.00005229,0.00000397,0.00001295,-0.00001863,0.00001477,0.,-0.0
 0001657,0.00000397,-0.00001295,-0.00001863,-0.00004222,-0.00003028,0.0
 0005229,0.00067694,0.,0.00025371,-0.00081625,0.00045163,-0.00436760,-0
 .00023655,-0.00096977,-0.04014691,0.00257655,0.,0.10628385,-0.00051788
 ,-0.00042399,0.00028819,0.00007575,-0.00005040,0.00000603,-0.00006040,
 0.00002018,0.00002754,-0.00002041,-0.00004020,-0.00000908,0.00007808,-
 0.00003808,-0.00009039,0.00001125,-0.00002666,-0.00023433,0.00022636,0
 .00051922,0.00023491,0.00006217,-0.00005156,0.00003736,0.00000756,0.00
 000733,-0.00002025,-0.00000057,-0.00000072,-0.00000865,-0.00000751,-0.
 00000334,-0.00002776,-0.00003168,0.00004125,0.00000487,-0.02579188,0.0
 5437331,0.00081625,-0.03409105,-0.01949067,-0.00022009,0.04710931,-0.0
 1218837,-0.00042782,-0.18000451,-0.07944461,-0.00023655,0.70037814,-0.
 00032622,-0.00007007,-0.00022120,-0.00017067,0.00018491,0.00015392,0.0
 0014840,-0.00005911,0.00002296,-0.00000088,0.00001459,0.00000274,0.000
 03035,0.00011850,0.00003767,-0.00008814,-0.00034441,0.00006895,0.00057
 957,-0.00040420,-0.00050565,-0.00005006,0.00004115,-0.00005873,0.00000
 017,-0.00001129,0.00004104,-0.00000107,0.00000751,0.00000711,0.0000094
 3,0.00000923,0.00003497,0.00002320,0.00007405,0.00000582,0.02992453,0.
 02290657,-0.00045163,-0.01949067,-0.01159116,0.00052256,0.01218837,-0.
 05001566,-0.00122752,-0.12481319,-0.29763779,0.00096977,-0.02682753,0.
 73174028,0.00081141,-0.00084991,0.00020913,-0.00046025,-0.00003680,0.0
 0018897,0.00021265,-0.00001405,0.00000235,-0.00003696,-0.00003895,-0.0
 0001065,0.00007475,-0.00010501,-0.00007883,-0.00025886,0.00011385,-0.0
 0036038,0.00037063,-0.00032042,-0.00140589,0.00001087,-0.00007223,0.00
 017564,-0.00003758,0.00001685,-0.00000507,-0.00000589,-0.00000489,-0.0
 0001818,-0.00001593,-0.00001413,-0.00004534,0.00001300,-0.00001033,-0.
 00003137,-0.00086882,0.00064881,-0.00436760,0.00022009,-0.00052256,0.0
 0112991,-0.00042782,0.00122752,-0.00564671,-0.00114923,-0.00043104,-0.
 04014691,0.00022311,-0.00016176,0.10911264,-0.00051788,0.00042399,-0.0
 0028819,0.00007575,0.00005040,-0.00000603,-0.00006040,-0.00002018,-0.0
 0002754,-0.00002041,0.00004020,0.00000908,0.00007808,0.00003808,0.0000
 9039,0.00001125,0.00002666,0.00023433,0.00022636,-0.00051922,-0.000234
 91,0.00006217,0.00005156,-0.00003736,0.00000756,-0.00000733,0.00002025
 ,-0.00000057,0.00000072,0.00000865,-0.00000751,0.00000334,0.00002776,-
 0.00003168,-0.00004125,-0.00000487,-0.18000451,0.07944461,0.00023655,0
 .04710931,0.01218837,0.00042782,-0.03409105,0.01949067,0.00022009,-0.0
 2579188,-0.05437331,-0.00081625,-0.35642080,0.02255135,0.00042715,0.70
 037814,0.00032622,-0.00007007,-0.00022120,0.00017067,0.00018491,0.0001
 5392,-0.00014840,-0.00005911,0.00002296,0.00000088,0.00001459,0.000002
 74,-0.00003035,0.00011850,0.00003767,0.00008814,-0.00034441,0.00006895
 ,-0.00057957,-0.00040420,-0.00050565,0.00005006,0.00004115,-0.00005873
 ,-0.00000017,-0.00001129,0.00004104,0.00000107,0.00000751,0.00000711,-
 0.00000943,0.00000923,0.00003497,-0.00002320,0.00007405,0.00000583,0.1
 2481319,-0.29763779,0.00096977,-0.01218837,-0.05001566,-0.00122752,0.0
 1949067,-0.01159116,0.00052256,-0.02992453,0.02290657,-0.00045163,-0.0
 2255135,-0.12110987,0.00068610,0.02682752,0.73174028,-0.00081141,-0.00
 084991,0.00020913,0.00046025,-0.00003680,0.00018897,-0.00021265,-0.000
 01405,0.00000235,0.00003696,-0.00003895,-0.00001065,-0.00007475,-0.000
 10501,-0.00007883,0.00025886,0.00011385,-0.00036038,-0.00037063,-0.000
 32042,-0.00140589,-0.00001087,-0.00007223,0.00017564,0.00003758,0.0000
 1685,-0.00000507,0.00000589,-0.00000489,-0.00001818,0.00001593,-0.0000
 1413,-0.00004534,-0.00001300,-0.00001033,-0.00003137,0.00114923,-0.000
 43104,-0.04014691,0.00042782,0.00122752,-0.00564671,-0.00022009,-0.000
 52256,0.00112991,0.00086882,0.00064881,-0.00436760,-0.00042715,0.00068
 610,-0.04258739,-0.00022310,-0.00016176,0.10911264,0.00006762,0.,0.000
 01545,0.00000527,0.00003759,-0.00002721,0.00001762,0.00000062,-0.00000
 847,-0.00000239,0.,-0.00000860,0.00001762,-0.00000062,-0.00000847,0.00
 000527,-0.00003759,-0.00002721,-0.00009755,0.,0.00007421,-0.00001941,-
 0.00000513,0.00000901,-0.00000741,0.00000083,-0.00000421,-0.00000373,0
 .,-0.00000138,-0.00000741,-0.00000083,-0.00000421,-0.00001941,0.000005
 13,0.00000901,-0.34717850,0.,0.00137814,-0.01015679,0.00440941,0.00023
 422,0.00063111,-0.00301923,-0.00008395,0.00081589,0.,0.00012337,0.0006
 3111,0.00301923,-0.00008395,-0.01015679,-0.00440941,0.00023422,0.36520
 943,0.,0.00004568,0.,-0.00003144,0.00000825,-0.00001993,-0.00000076,-0
 .00000029,0.00000266,0.,-0.00000812,0.,0.00000076,-0.00000029,-0.00000
 266,0.00003144,0.00000825,0.00001993,0.,-0.00006997,0.,0.00002534,-0.0
 0000784,-0.00000808,0.00000371,-0.00000135,0.00000223,0.,-0.00000060,0
 .,-0.00000371,-0.00000135,-0.00000223,-0.00002534,-0.00000784,0.000008
 08,0.,-0.05752216,0.,-0.02836105,0.00439686,0.00016653,-0.00266319,-0.
 00467623,-0.00004728,0.,-0.00187519,0.,0.00266319,-0.00467623,0.000047
 28,0.02836105,0.00439686,-0.00016653,0.,0.05763761,0.00016127,0.,-0.00
 002720,0.00000300,0.00005677,-0.00000085,0.00002967,0.00000269,-0.0000
 0252,-0.00002313,0.,-0.00001337,0.00002967,-0.00000269,-0.00000252,0.0
 0000300,-0.00005677,-0.00000085,-0.00008643,0.,0.00014952,-0.00001637,
 0.00002335,-0.00000017,-0.00001189,-0.00000391,0.00000459,0.00000296,0
 .,0.00000521,-0.00001189,0.00000391,0.00000459,-0.00001637,-0.00002335
 ,-0.00000017,0.00189398,0.,-0.03241355,-0.00007806,0.00005093,0.000853
 81,-0.00005990,-0.00010643,0.00770792,0.00009949,0.,-0.00082954,-0.000
 05990,0.00010643,0.00770792,-0.00007806,-0.00005093,0.00085381,-0.0016
 8001,0.,0.02409276,0.00003850,-0.00000070,0.00003803,0.00001582,-0.000
 03189,-0.00002084,0.00000374,0.00000085,0.00000727,-0.00002285,-0.0000
 0230,0.00001926,0.00003184,-0.00006198,-0.00000318,-0.00002643,0.00013
 866,-0.00003960,-0.00007897,0.00000873,0.00003361,-0.00001031,-0.00001
 044,0.00000019,0.00000061,-0.00000244,-0.00000142,0.00000028,-0.000007
 12,0.00000453,0.00000392,0.00000165,-0.00000929,-0.00002644,-0.0000348
 0,-0.00005251,0.01114569,-0.01600781,0.00036158,-0.12980911,0.12518765
 ,-0.00044621,-0.00959563,0.02868987,0.00033536,-0.00581654,-0.00105867
 ,-0.00025590,-0.00120303,-0.00116288,0.00021615,-0.00086850,-0.0035495
 0,-0.00021815,0.00079387,0.00046449,-0.00003065,0.13441035,-0.00003439
 ,0.00002167,-0.00004096,-0.00000036,-0.00002135,0.00002000,-0.00001633
 ,0.00000842,-0.00001127,0.00003273,0.00000807,-0.00000911,-0.00007733,
 0.00005228,0.00003958,0.00003284,-0.00008607,0.00005349,0.00002333,-0.
 00008456,-0.00006294,0.00000026,0.00002313,-0.00001506,0.00000186,0.00
 000098,0.00000004,0.00000368,0.00000765,-0.00000110,0.00000424,0.00000
 062,0.00000803,0.00005873,0.00004745,0.00003564,0.01676503,-0.01692982
 ,-0.00024986,0.12510039,-0.27434865,0.00024604,-0.00406252,0.00380358,
 -0.00025195,-0.00067123,0.00178556,0.00019518,-0.00119032,0.00016028,-
 0.00014814,-0.00390147,-0.00318909,0.00015043,-0.00013435,0.00098883,0
 .00004726,-0.13300605,0.28799673,0.00009343,-0.00001589,0.00005354,0.0
 0004788,0.00001975,-0.00003133,-0.00002947,0.00000360,0.00003672,0.000
 01092,-0.00002587,0.00003356,0.00003899,-0.00009919,-0.00006350,-0.000
 04061,0.00016821,-0.00006576,-0.00009633,0.00006593,0.00012140,-0.0000
 0338,-0.00002295,0.00000770,-0.00000137,-0.00000832,0.00000746,-0.0000
 0511,-0.00001011,0.00001287,-0.00000418,0.00000490,-0.00000871,-0.0000
 6982,-0.00009054,-0.00007034,-0.00009556,-0.00008746,0.00105909,0.0000
 2903,-0.00001289,-0.03317715,0.00005244,0.00006536,0.00159246,-0.00011
 684,-0.00000167,0.00747083,0.00004918,-0.00006604,-0.00084782,0.000026
 95,0.00013588,0.00775646,-0.00006821,-0.00002999,-0.00366146,0.0001137
 9,-0.00002597,0.02445353,0.00003850,0.00000070,-0.00003803,0.00001582,
 0.00003189,0.00002084,0.00000374,-0.00000085,-0.00000727,-0.00002285,0
 .00000230,-0.00001926,0.00003184,0.00006198,0.00000318,-0.00002643,-0.
 00013866,0.00003960,-0.00007897,-0.00000873,-0.00003361,-0.00001031,0.
 00001044,-0.00000019,0.00000061,0.00000244,0.00000142,0.00000028,0.000
 00712,-0.00000453,0.00000392,-0.00000165,0.00000929,-0.00002644,0.0000
 3480,0.00005251,-0.00581654,0.00105867,0.00025590,-0.00959563,-0.02868
 987,-0.00033536,-0.12980911,-0.12518765,0.00044621,0.01114569,0.016007
 81,-0.00036158,-0.00086850,0.00354950,0.00021815,-0.00120303,0.0011628
 8,-0.00021615,-0.00063507,-0.00153797,-0.00002743,0.00106674,0.0003137
 0,0.00006157,0.13441035,0.00003439,0.00002166,-0.00004096,0.00000036,-
 0.00002135,0.00002000,0.00001633,0.00000842,-0.00001127,-0.00003273,0.
 00000807,-0.00000911,0.00007733,0.00005228,0.00003958,-0.00003284,-0.0
 0008607,0.00005349,-0.00002333,-0.00008456,-0.00006294,-0.00000026,0.0
 0002313,-0.00001506,-0.00000186,0.00000098,0.00000004,-0.00000368,0.00
 000765,-0.00000110,-0.00000424,0.00000062,0.00000803,-0.00005873,0.000
 04745,0.00003564,0.00067123,0.00178556,0.00019518,0.00406252,0.0038035
 8,-0.00025195,-0.12510039,-0.27434865,0.00024604,-0.01676503,-0.016929
 82,-0.00024986,0.00390147,-0.00318909,0.00015043,0.00119032,0.00016028
 ,-0.00014814,0.00025499,0.00009725,-0.00001165,-0.00031370,0.00069136,
 0.00002841,0.13300605,0.28799673,-0.00009343,-0.00001589,0.00005354,-0
 .00004788,0.00001975,-0.00003133,0.00002947,0.00000360,0.00003672,-0.0
 0001092,-0.00002587,0.00003356,-0.00003899,-0.00009919,-0.00006350,0.0
 0004061,0.00016821,-0.00006576,0.00009633,0.00006593,0.00012140,0.0000
 0338,-0.00002295,0.00000770,0.00000137,-0.00000832,0.00000746,0.000005
 11,-0.00001011,0.00001287,0.00000418,0.00000490,-0.00000871,0.00006982
 ,-0.00009054,-0.00007034,0.00011684,-0.00000167,0.00747083,-0.00005244
 ,0.00006536,0.00159246,-0.00002903,-0.00001289,-0.03317715,0.00009556,
 -0.00008746,0.00105909,-0.00002695,0.00013588,0.00775646,-0.00004918,-
 0.00006604,-0.00084782,0.00000580,0.00000876,0.00032122,-0.00006157,0.
 00002841,-0.00388142,-0.00011379,-0.00002597,0.02445353,0.00006762,0.,
 -0.00001545,0.00000527,-0.00003759,0.00002721,0.00001762,-0.00000062,0
 .00000847,-0.00000239,0.,0.00000860,0.00001762,0.00000062,0.00000847,0
 .00000527,0.00003759,0.00002721,-0.00009755,0.,-0.00007421,-0.00001941
 ,0.00000513,-0.00000901,-0.00000741,-0.00000083,0.00000421,-0.00000373
 ,0.,0.00000138,-0.00000741,0.00000083,0.00000421,-0.00001941,-0.000005
 13,-0.00000901,0.00081589,0.,-0.00012337,0.00063110,0.00301923,0.00008
 395,-0.01015679,-0.00440941,-0.00023422,-0.34717850,0.,-0.00137814,-0.
 01015679,0.00440941,-0.00023422,0.00063110,-0.00301923,0.00008395,-0.0
 0006914,0.,0.00001515,-0.00063507,-0.00025499,-0.00000580,0.00079386,0
 .00013435,0.00006821,0.36520943,0.,0.00004568,0.,0.00003144,0.00000825
 ,-0.00001993,0.00000076,-0.00000029,0.00000266,0.,-0.00000812,0.,-0.00
 000076,-0.00000029,-0.00000266,-0.00003144,0.00000825,0.00001993,0.,-0
 .00006997,0.,-0.00002534,-0.00000784,-0.00000808,-0.00000371,-0.000001
 35,0.00000223,0.,-0.00000060,0.,0.00000371,-0.00000135,-0.00000223,0.0
 0002534,-0.00000784,0.00000808,0.,-0.00187519,0.,0.00266319,-0.0046762
 3,-0.00004728,0.02836105,0.00439686,0.00016653,0.,-0.05752216,0.,-0.02
 836105,0.00439686,-0.00016653,-0.00266319,-0.00467623,0.00004728,0.,0.
 00018175,0.,0.00153797,0.00009725,0.00000876,-0.00046449,0.00098883,-0
 .00002999,0.,0.05763761,-0.00016127,0.,-0.00002720,-0.00000300,0.00005
 677,-0.00000085,-0.00002967,0.00000269,-0.00000252,0.00002313,0.,-0.00
 001337,-0.00002967,-0.00000269,-0.00000252,-0.00000300,-0.00005677,-0.
 00000085,0.00008643,0.,0.00014952,0.00001637,0.00002335,-0.00000017,0.
 00001189,-0.00000391,0.00000459,-0.00000296,0.,0.00000521,0.00001189,0
 .00000391,0.00000459,0.00001637,-0.00002335,-0.00000017,-0.00009949,0.
 ,-0.00082954,0.00005990,-0.00010643,0.00770792,0.00007806,0.00005093,0
 .00085381,-0.00189398,0.,-0.03241355,0.00007806,-0.00005093,0.00085381
 ,0.00005990,0.00010643,0.00770792,-0.00001515,0.,-0.00140888,0.0000274
 3,-0.00001165,0.00032122,0.00003065,0.00004726,-0.00366146,0.00168001,
 0.,0.02409276,0.00003850,-0.00000070,-0.00003803,-0.00002643,0.0001386
 6,0.00003960,0.00003184,-0.00006198,0.00000318,-0.00002285,-0.00000230
 ,-0.00001926,0.00000373,0.00000085,-0.00000727,0.00001582,-0.00003189,
 0.00002084,-0.00007897,0.00000873,-0.00003361,-0.00002644,-0.00003480,
 0.00005251,0.00000392,0.00000165,0.00000929,0.00000028,-0.00000712,-0.
 00000453,0.00000061,-0.00000244,0.00000142,-0.00001031,-0.00001044,-0.
 00000019,-0.00581654,-0.00105867,0.00025590,-0.00120303,-0.00116288,-0
 .00021615,-0.00086850,-0.00354950,0.00021815,0.01114569,-0.01600781,-0
 .00036158,-0.12980911,0.12518765,0.00044621,-0.00959563,0.02868988,-0.
 00033536,-0.00063507,0.00153797,-0.00002743,0.00011621,0.00011647,0.00
 001519,0.00046532,-0.00089607,0.00000270,0.00079386,0.00046449,0.00003
 065,0.13441035,-0.00003439,0.00002167,0.00004096,0.00003284,-0.0000860
 7,-0.00005349,-0.00007733,0.00005228,-0.00003958,0.00003273,0.00000807
 ,0.00000911,-0.00001633,0.00000842,0.00001127,-0.00000036,-0.00002135,
 -0.00002000,0.00002333,-0.00008456,0.00006294,0.00005873,0.00004745,-0
 .00003564,0.00000424,0.00000062,-0.00000803,0.00000368,0.00000765,0.00
 000110,0.00000186,0.00000098,-0.00000004,0.00000026,0.00002313,0.00001
 506,-0.00067123,0.00178556,-0.00019518,-0.00119032,0.00016028,0.000148
 14,-0.00390147,-0.00318909,-0.00015043,0.01676503,-0.01692982,0.000249
 86,0.12510039,-0.27434865,-0.00024604,-0.00406252,0.00380358,0.0002519
 5,-0.00025499,0.00009725,0.00001165,0.00011647,-0.00000923,-0.00000734
 ,0.00089607,-0.00102508,0.00000343,-0.00013435,0.00098883,-0.00004726,
 -0.13300605,0.28799673,-0.00009343,0.00001589,0.00005354,0.00004061,-0
 .00016821,-0.00006576,-0.00003899,0.00009919,-0.00006350,-0.00001092,0
 .00002587,0.00003356,0.00002947,-0.00000360,0.00003672,-0.00004788,-0.
 00001975,-0.00003133,0.00009633,-0.00006593,0.00012140,0.00006982,0.00
 009054,-0.00007034,0.00000418,-0.00000490,-0.00000871,0.00000511,0.000
 01011,0.00001287,0.00000137,0.00000832,0.00000746,0.00000338,0.0000229
 5,0.00000770,0.00011684,0.00000167,0.00747083,-0.00004918,0.00006604,-
 0.00084782,-0.00002695,-0.00013588,0.00775646,0.00009556,0.00008746,0.
 00105908,-0.00002903,0.00001289,-0.03317715,-0.00005244,-0.00006536,0.
 00159246,0.00000580,-0.00000876,0.00032122,-0.00001519,0.00000734,-0.0
 0138415,0.00000270,-0.00000343,0.00026481,0.00006821,0.00002999,-0.003
 66146,-0.00011379,0.00002597,0.02445353,0.00003850,0.00000070,0.000038
 03,-0.00002643,-0.00013866,-0.00003960,0.00003184,0.00006198,-0.000003
 18,-0.00002285,0.00000230,0.00001926,0.00000374,-0.00000085,0.00000727
 ,0.00001582,0.00003189,-0.00002084,-0.00007897,-0.00000873,0.00003361,
 -0.00002644,0.00003480,-0.00005251,0.00000392,-0.00000165,-0.00000929,
 0.00000028,0.00000712,0.00000453,0.00000061,0.00000244,-0.00000142,-0.
 00001031,0.00001044,0.00000019,0.01114569,0.01600781,0.00036158,-0.000
 86850,0.00354950,-0.00021815,-0.00120303,0.00116288,0.00021615,-0.0058
 1654,0.00105867,-0.00025590,-0.00959563,-0.02868987,0.00033536,-0.1298
 0911,-0.12518765,-0.00044621,0.00079386,-0.00046449,-0.00003065,0.0004
 6532,0.00089607,-0.00000270,0.00011621,-0.00011647,-0.00001519,-0.0006
 3507,-0.00153797,0.00002743,0.00106674,0.00031370,-0.00006157,0.134410
 35,0.00003439,0.00002167,0.00004096,-0.00003284,-0.00008607,-0.0000534
 8,0.00007733,0.00005228,-0.00003958,-0.00003273,0.00000807,0.00000911,
 0.00001633,0.00000842,0.00001127,0.00000036,-0.00002135,-0.00002000,-0
 .00002333,-0.00008456,0.00006294,-0.00005873,0.00004746,-0.00003564,-0
 .00000424,0.00000062,-0.00000803,-0.00000368,0.00000765,0.00000110,-0.
 00000186,0.00000098,-0.00000003,-0.00000026,0.00002313,0.00001506,-0.0
 1676503,-0.01692982,0.00024986,0.00390147,-0.00318909,-0.00015043,0.00
 119032,0.00016028,0.00014814,0.00067123,0.00178555,-0.00019518,0.00406
 252,0.00380358,0.00025195,-0.12510038,-0.27434865,-0.00024604,0.000134
 35,0.00098883,-0.00004726,-0.00089607,-0.00102508,0.00000343,-0.000116
 47,-0.00000923,-0.00000734,0.00025499,0.00009725,0.00001165,-0.0003137
 0,0.00069136,-0.00002841,0.13300605,0.28799673,0.00009343,0.00001589,0
 .00005354,-0.00004061,-0.00016821,-0.00006576,0.00003899,0.00009919,-0
 .00006350,0.00001092,0.00002587,0.00003356,-0.00002947,-0.00000360,0.0
 0003672,0.00004788,-0.00001975,-0.00003133,-0.00009633,-0.00006593,0.0
 0012140,-0.00006982,0.00009054,-0.00007034,-0.00000418,-0.00000490,-0.
 00000871,-0.00000511,0.00001011,0.00001287,-0.00000137,0.00000832,0.00
 000746,-0.00000338,0.00002295,0.00000770,-0.00009556,0.00008746,0.0010
 5908,0.00002695,-0.00013588,0.00775646,0.00004918,0.00006604,-0.000847
 82,-0.00011684,0.00000167,0.00747083,0.00005244,-0.00006536,0.00159246
 ,0.00002903,0.00001289,-0.03317715,-0.00006821,0.00002999,-0.00366146,
 -0.00000270,-0.00000343,0.00026481,0.00001519,0.00000734,-0.00138415,-
 0.00000580,-0.00000876,0.00032122,0.00006157,-0.00002841,-0.00388142,0
 .00011379,0.00002597,0.02445353\\0.,0.,0.00000088,0.,-0.00000686,-0.00
 003845,0.,-0.00000666,0.00002730,0.,0.,0.00002974,0.,0.00000666,0.0000
 2730,0.,0.00000686,-0.00003845,0.,0.,0.00000074,0.,0.00000140,0.000004
 85,0.,-0.00000058,-0.00000481,0.,0.,-0.00000141,0.,0.00000058,-0.00000
 481,0.,-0.00000140,0.00000485,0.00002947,0.,-0.00003761,-0.00008270,0.
 00000658,0.00000567,0.00008270,0.00000658,0.00000567,-0.00002947,0.,-0
 .00003761,0.00008270,-0.00000658,0.00000567,-0.00008270,-0.00000658,0.
 00000567,-0.00000339,0.,0.00001179,0.00000388,-0.00000289,0.00000530,-
 0.00000388,-0.00000289,0.00000530,0.00000339,0.,0.00001179,-0.00000388
 ,0.00000289,0.00000530,0.00000388,0.00000289,0.00000530\\\@


 MOST BUREAUCRACIES FUNCTION LIKE A SEPTIC TANK.
 THE LARGE CHUNKS RISE TO THE TOP.
 Job cpu time:       7 days 21 hours 19 minutes 24.0 seconds.
 File lengths (MBytes):  RWF=  54027 Int=      0 D2E=      0 Chk=     55 Scr=      1
 Normal termination of Gaussian 09 at Thu Oct 13 01:27:17 2016.
