 Entering Gaussian System, Link 0=g09
 Initial command:
 /share/sw/gaussian/D.01/g09/l1.exe "/local/scratch/epluhar/Gau-30113.inp" -scrdir="/local/scratch/epluhar/"
 Entering Link 1 = /share/sw/gaussian/D.01/g09/l1.exe PID=     30114.
  
 Copyright (c) 1988,1990,1992,1993,1995,1998,2003,2009,2013,
            Gaussian, Inc.  All Rights Reserved.
  
 This is part of the Gaussian(R) 09 program.  It is based on
 the Gaussian(R) 03 system (copyright 2003, Gaussian, Inc.),
 the Gaussian(R) 98 system (copyright 1998, Gaussian, Inc.),
 the Gaussian(R) 94 system (copyright 1995, Gaussian, Inc.),
 the Gaussian 92(TM) system (copyright 1992, Gaussian, Inc.),
 the Gaussian 90(TM) system (copyright 1990, Gaussian, Inc.),
 the Gaussian 88(TM) system (copyright 1988, Gaussian, Inc.),
 the Gaussian 86(TM) system (copyright 1986, Carnegie Mellon
 University), and the Gaussian 82(TM) system (copyright 1983,
 Carnegie Mellon University). Gaussian is a federally registered
 trademark of Gaussian, Inc.
  
 This software contains proprietary and confidential information,
 including trade secrets, belonging to Gaussian, Inc.
  
 This software is provided under written license and may be
 used, copied, transmitted, or stored only in accord with that
 written license.
  
 The following legend is applicable only to US Government
 contracts under FAR:
  
                    RESTRICTED RIGHTS LEGEND
  
 Use, reproduction and disclosure by the US Government is
 subject to restrictions as set forth in subparagraphs (a)
 and (c) of the Commercial Computer Software - Restricted
 Rights clause in FAR 52.227-19.
  
 Gaussian, Inc.
 340 Quinnipiac St., Bldg. 40, Wallingford CT 06492
  
  
 ---------------------------------------------------------------
 Warning -- This program may not be used in any manner that
 competes with the business of Gaussian, Inc. or will provide
 assistance to any competitor of Gaussian, Inc.  The licensee
 of this program is prohibited from giving any competitor of
 Gaussian, Inc. access to this program.  By using this program,
 the user acknowledges that Gaussian, Inc. is engaged in the
 business of creating and licensing software in the field of
 computational chemistry and represents and warrants to the
 licensee that it is not a competitor of Gaussian, Inc. and that
 it will not use this program in any manner prohibited above.
 ---------------------------------------------------------------
  

 Cite this work as:
 Gaussian 09, Revision D.01,
 M. J. Frisch, G. W. Trucks, H. B. Schlegel, G. E. Scuseria, 
 M. A. Robb, J. R. Cheeseman, G. Scalmani, V. Barone, B. Mennucci, 
 G. A. Petersson, H. Nakatsuji, M. Caricato, X. Li, H. P. Hratchian, 
 A. F. Izmaylov, J. Bloino, G. Zheng, J. L. Sonnenberg, M. Hada, 
 M. Ehara, K. Toyota, R. Fukuda, J. Hasegawa, M. Ishida, T. Nakajima, 
 Y. Honda, O. Kitao, H. Nakai, T. Vreven, J. A. Montgomery, Jr., 
 J. E. Peralta, F. Ogliaro, M. Bearpark, J. J. Heyd, E. Brothers, 
 K. N. Kudin, V. N. Staroverov, T. Keith, R. Kobayashi, J. Normand, 
 K. Raghavachari, A. Rendell, J. C. Burant, S. S. Iyengar, J. Tomasi, 
 M. Cossi, N. Rega, J. M. Millam, M. Klene, J. E. Knox, J. B. Cross, 
 V. Bakken, C. Adamo, J. Jaramillo, R. Gomperts, R. E. Stratmann, 
 O. Yazyev, A. J. Austin, R. Cammi, C. Pomelli, J. W. Ochterski, 
 R. L. Martin, K. Morokuma, V. G. Zakrzewski, G. A. Voth, 
 P. Salvador, J. J. Dannenberg, S. Dapprich, A. D. Daniels, 
 O. Farkas, J. B. Foresman, J. V. Ortiz, J. Cioslowski, 
 and D. J. Fox, Gaussian, Inc., Wallingford CT, 2013.
 
 ******************************************
 Gaussian 09:  ES64L-G09RevD.01 24-Apr-2013
                11-Oct-2016 
 ******************************************
 %nprocshared=8
 Will use up to    8 processors via shared memory.
 %mem=6GB
 %chk=benzene-mp2
 -----------------------------------
 #opt freq=raman mp2(full)/6-311+g**
 -----------------------------------
 1/18=20,19=15,38=1/1,3;
 2/9=110,12=2,17=6,18=5,40=1/2;
 3/5=4,6=6,7=111,11=9,16=1,25=1,30=1,71=1/1,2,3;
 4//1;
 5/5=2,38=5/2;
 8/6=4,10=90/1;
 9/15=2,16=-3/6;
 10/5=1/2;
 6/7=2,8=2,9=2,10=2/1;
 7/12=2/1,2,3,16;
 1/18=20,19=15/3(2);
 2/9=110/2;
 99//99;
 2/9=110/2;
 3/5=4,6=6,7=111,11=9,16=1,25=1,30=1,71=1/1,2,3;
 4/5=5,16=3,69=1/1;
 5/5=2,38=5/2;
 8/6=4,10=90/1;
 9/15=2,16=-3/6;
 10/5=1/2;
 7/12=2/1,2,3,16;
 1/18=20,19=15/3(-8);
 2/9=110/2;
 6/7=2,8=2,9=2,10=2/1;
 99//99;
 -----
 title
 -----
 Symbolic Z-matrix:
 Charge =  0 Multiplicity = 1
 C                     0.        0.        1.05903 
 C                     0.       -1.20601   1.75767 
 C                     0.       -1.20718   3.15159 
 C                     0.        0.        3.84858 
 C                     0.        1.20718   3.15159 
 C                     0.        1.20601   1.75767 
 H                     0.        0.       -0.02158 
 H                     0.       -2.14164   1.21442 
 H                     0.       -2.14357   3.693 
 H                     0.        0.        4.93015 
 H                     0.        2.14357   3.693 
 H                     0.        2.14164   1.21442 
 C                    -1.39406   0.       -2.45415 
 C                    -0.69705   1.20724  -2.45463 
 C                     0.69705   1.20724  -2.45463 
 C                     1.39406   0.       -2.45415 
 C                     0.69705  -1.20724  -2.45463 
 C                    -0.69705  -1.20724  -2.45463 
 H                    -2.4754    0.       -2.45032 
 H                    -1.23823   2.14357  -2.45368 
 H                     1.23823   2.14357  -2.45368 
 H                     2.4754    0.       -2.45032 
 H                     1.23823  -2.14357  -2.45368 
 H                    -1.23823  -2.14357  -2.45368 
 
 Add virtual bond connecting atoms C13        and H7         Dist= 5.30D+00.
 Add virtual bond connecting atoms C14        and H7         Dist= 5.30D+00.
 Add virtual bond connecting atoms C15        and H7         Dist= 5.30D+00.
 Add virtual bond connecting atoms C16        and H7         Dist= 5.30D+00.
 Add virtual bond connecting atoms C17        and H7         Dist= 5.30D+00.

 GradGradGradGradGradGradGradGradGradGradGradGradGradGradGradGradGradGrad
 Berny optimization.
 Initialization pass.
                           ----------------------------
                           !    Initial Parameters    !
                           ! (Angstroms and Degrees)  !
 --------------------------                            --------------------------
 ! Name  Definition              Value          Derivative Info.                !
 --------------------------------------------------------------------------------
 ! R1    R(1,2)                  1.3938         estimate D2E/DX2                !
 ! R2    R(1,6)                  1.3938         estimate D2E/DX2                !
 ! R3    R(1,7)                  1.0806         estimate D2E/DX2                !
 ! R4    R(2,3)                  1.3939         estimate D2E/DX2                !
 ! R5    R(2,8)                  1.0819         estimate D2E/DX2                !
 ! R6    R(3,4)                  1.3939         estimate D2E/DX2                !
 ! R7    R(3,9)                  1.0816         estimate D2E/DX2                !
 ! R8    R(4,5)                  1.3939         estimate D2E/DX2                !
 ! R9    R(4,10)                 1.0816         estimate D2E/DX2                !
 ! R10   R(5,6)                  1.3939         estimate D2E/DX2                !
 ! R11   R(5,11)                 1.0816         estimate D2E/DX2                !
 ! R12   R(6,12)                 1.0819         estimate D2E/DX2                !
 ! R13   R(7,13)                 2.8037         estimate D2E/DX2                !
 ! R14   R(7,14)                 2.8041         estimate D2E/DX2                !
 ! R15   R(7,15)                 2.8041         estimate D2E/DX2                !
 ! R16   R(7,16)                 2.8037         estimate D2E/DX2                !
 ! R17   R(7,17)                 2.8041         estimate D2E/DX2                !
 ! R18   R(13,14)                1.394          estimate D2E/DX2                !
 ! R19   R(13,18)                1.394          estimate D2E/DX2                !
 ! R20   R(13,19)                1.0813         estimate D2E/DX2                !
 ! R21   R(14,15)                1.3941         estimate D2E/DX2                !
 ! R22   R(14,20)                1.0815         estimate D2E/DX2                !
 ! R23   R(15,16)                1.394          estimate D2E/DX2                !
 ! R24   R(15,21)                1.0815         estimate D2E/DX2                !
 ! R25   R(16,17)                1.394          estimate D2E/DX2                !
 ! R26   R(16,22)                1.0813         estimate D2E/DX2                !
 ! R27   R(17,18)                1.3941         estimate D2E/DX2                !
 ! R28   R(17,23)                1.0815         estimate D2E/DX2                !
 ! R29   R(18,24)                1.0815         estimate D2E/DX2                !
 ! A1    A(2,1,6)              119.8327         estimate D2E/DX2                !
 ! A2    A(2,1,7)              120.0837         estimate D2E/DX2                !
 ! A3    A(6,1,7)              120.0837         estimate D2E/DX2                !
 ! A4    A(1,2,3)              120.1317         estimate D2E/DX2                !
 ! A5    A(1,2,8)              119.7758         estimate D2E/DX2                !
 ! A6    A(3,2,8)              120.0925         estimate D2E/DX2                !
 ! A7    A(2,3,4)              119.9527         estimate D2E/DX2                !
 ! A8    A(2,3,9)              120.0838         estimate D2E/DX2                !
 ! A9    A(4,3,9)              119.9635         estimate D2E/DX2                !
 ! A10   A(3,4,5)              119.9986         estimate D2E/DX2                !
 ! A11   A(3,4,10)             120.0007         estimate D2E/DX2                !
 ! A12   A(5,4,10)             120.0007         estimate D2E/DX2                !
 ! A13   A(4,5,6)              119.9527         estimate D2E/DX2                !
 ! A14   A(4,5,11)             119.9635         estimate D2E/DX2                !
 ! A15   A(6,5,11)             120.0838         estimate D2E/DX2                !
 ! A16   A(1,6,5)              120.1317         estimate D2E/DX2                !
 ! A17   A(1,6,12)             119.7758         estimate D2E/DX2                !
 ! A18   A(5,6,12)             120.0925         estimate D2E/DX2                !
 ! A19   A(1,7,13)             150.1838         estimate D2E/DX2                !
 ! A20   A(1,7,14)             150.1893         estimate D2E/DX2                !
 ! A21   A(1,7,15)             150.1893         estimate D2E/DX2                !
 ! A22   A(1,7,16)             150.1838         estimate D2E/DX2                !
 ! A23   A(1,7,17)             150.1893         estimate D2E/DX2                !
 ! A24   A(13,7,15)             51.0078         estimate D2E/DX2                !
 ! A25   A(13,7,16)             59.6325         estimate D2E/DX2                !
 ! A26   A(13,7,17)             51.0078         estimate D2E/DX2                !
 ! A27   A(14,7,16)             51.0078         estimate D2E/DX2                !
 ! A28   A(14,7,17)             59.6214         estimate D2E/DX2                !
 ! A29   A(15,7,17)             51.0017         estimate D2E/DX2                !
 ! A30   A(7,13,18)             75.622          estimate D2E/DX2                !
 ! A31   A(7,13,19)            119.6133         estimate D2E/DX2                !
 ! A32   A(14,13,18)           119.9988         estimate D2E/DX2                !
 ! A33   A(14,13,19)           120.0005         estimate D2E/DX2                !
 ! A34   A(18,13,19)           120.0005         estimate D2E/DX2                !
 ! A35   A(7,14,20)            119.7602         estimate D2E/DX2                !
 ! A36   A(13,14,15)           120.0006         estimate D2E/DX2                !
 ! A37   A(13,14,20)           119.972          estimate D2E/DX2                !
 ! A38   A(15,14,20)           120.0273         estimate D2E/DX2                !
 ! A39   A(7,15,21)            119.7602         estimate D2E/DX2                !
 ! A40   A(14,15,16)           120.0006         estimate D2E/DX2                !
 ! A41   A(14,15,21)           120.0273         estimate D2E/DX2                !
 ! A42   A(16,15,21)           119.972          estimate D2E/DX2                !
 ! A43   A(7,16,22)            119.6133         estimate D2E/DX2                !
 ! A44   A(15,16,17)           119.9988         estimate D2E/DX2                !
 ! A45   A(15,16,22)           120.0005         estimate D2E/DX2                !
 ! A46   A(17,16,22)           120.0005         estimate D2E/DX2                !
 ! A47   A(7,17,18)             75.6065         estimate D2E/DX2                !
 ! A48   A(7,17,23)            119.7602         estimate D2E/DX2                !
 ! A49   A(16,17,18)           120.0006         estimate D2E/DX2                !
 ! A50   A(16,17,23)           119.972          estimate D2E/DX2                !
 ! A51   A(18,17,23)           120.0273         estimate D2E/DX2                !
 ! A52   A(13,18,17)           120.0006         estimate D2E/DX2                !
 ! A53   A(13,18,24)           119.972          estimate D2E/DX2                !
 ! A54   A(17,18,24)           120.0273         estimate D2E/DX2                !
 ! D1    D(6,1,2,3)              0.0            estimate D2E/DX2                !
 ! D2    D(6,1,2,8)            180.0            estimate D2E/DX2                !
 ! D3    D(7,1,2,3)            180.0            estimate D2E/DX2                !
 ! D4    D(7,1,2,8)              0.0            estimate D2E/DX2                !
 ! D5    D(2,1,6,5)              0.0            estimate D2E/DX2                !
 ! D6    D(2,1,6,12)           180.0            estimate D2E/DX2                !
 ! D7    D(7,1,6,5)            180.0            estimate D2E/DX2                !
 ! D8    D(7,1,6,12)             0.0            estimate D2E/DX2                !
 ! D9    D(2,1,7,13)            90.0            estimate D2E/DX2                !
 ! D10   D(2,1,7,14)           149.9983         estimate D2E/DX2                !
 ! D11   D(2,1,7,15)          -149.9983         estimate D2E/DX2                !
 ! D12   D(2,1,7,16)           -90.0            estimate D2E/DX2                !
 ! D13   D(2,1,7,17)           -30.0017         estimate D2E/DX2                !
 ! D14   D(6,1,7,13)           -90.0            estimate D2E/DX2                !
 ! D15   D(6,1,7,14)           -30.0017         estimate D2E/DX2                !
 ! D16   D(6,1,7,15)            30.0017         estimate D2E/DX2                !
 ! D17   D(6,1,7,16)            90.0            estimate D2E/DX2                !
 ! D18   D(6,1,7,17)           149.9983         estimate D2E/DX2                !
 ! D19   D(1,2,3,4)              0.0            estimate D2E/DX2                !
 ! D20   D(1,2,3,9)            180.0            estimate D2E/DX2                !
 ! D21   D(8,2,3,4)            180.0            estimate D2E/DX2                !
 ! D22   D(8,2,3,9)              0.0            estimate D2E/DX2                !
 ! D23   D(2,3,4,5)              0.0            estimate D2E/DX2                !
 ! D24   D(2,3,4,10)           180.0            estimate D2E/DX2                !
 ! D25   D(9,3,4,5)            180.0            estimate D2E/DX2                !
 ! D26   D(9,3,4,10)             0.0            estimate D2E/DX2                !
 ! D27   D(3,4,5,6)              0.0            estimate D2E/DX2                !
 ! D28   D(3,4,5,11)           180.0            estimate D2E/DX2                !
 ! D29   D(10,4,5,6)           180.0            estimate D2E/DX2                !
 ! D30   D(10,4,5,11)            0.0            estimate D2E/DX2                !
 ! D31   D(4,5,6,1)              0.0            estimate D2E/DX2                !
 ! D32   D(4,5,6,12)           180.0            estimate D2E/DX2                !
 ! D33   D(11,5,6,1)           180.0            estimate D2E/DX2                !
 ! D34   D(11,5,6,12)            0.0            estimate D2E/DX2                !
 ! D35   D(1,7,13,18)         -116.6169         estimate D2E/DX2                !
 ! D36   D(1,7,13,19)            0.0            estimate D2E/DX2                !
 ! D37   D(15,7,13,18)          97.0195         estimate D2E/DX2                !
 ! D38   D(15,7,13,19)        -146.3636         estimate D2E/DX2                !
 ! D39   D(16,7,13,18)          63.3831         estimate D2E/DX2                !
 ! D40   D(16,7,13,19)         180.0            estimate D2E/DX2                !
 ! D41   D(17,7,13,18)          29.7467         estimate D2E/DX2                !
 ! D42   D(17,7,13,19)         146.3636         estimate D2E/DX2                !
 ! D43   D(1,7,14,20)           -0.0296         estimate D2E/DX2                !
 ! D44   D(16,7,14,20)        -146.3867         estimate D2E/DX2                !
 ! D45   D(17,7,14,20)         179.9704         estimate D2E/DX2                !
 ! D46   D(1,7,15,21)            0.0296         estimate D2E/DX2                !
 ! D47   D(13,7,15,21)         146.3867         estimate D2E/DX2                !
 ! D48   D(17,7,15,21)        -146.3288         estimate D2E/DX2                !
 ! D49   D(1,7,16,22)            0.0            estimate D2E/DX2                !
 ! D50   D(13,7,16,22)         180.0            estimate D2E/DX2                !
 ! D51   D(14,7,16,22)         146.3636         estimate D2E/DX2                !
 ! D52   D(1,7,17,18)          116.6102         estimate D2E/DX2                !
 ! D53   D(1,7,17,23)           -0.0296         estimate D2E/DX2                !
 ! D54   D(13,7,17,18)         -29.7469         estimate D2E/DX2                !
 ! D55   D(13,7,17,23)        -146.3867         estimate D2E/DX2                !
 ! D56   D(14,7,17,18)         -63.3898         estimate D2E/DX2                !
 ! D57   D(14,7,17,23)         179.9704         estimate D2E/DX2                !
 ! D58   D(15,7,17,18)         -97.0314         estimate D2E/DX2                !
 ! D59   D(15,7,17,23)         146.3288         estimate D2E/DX2                !
 ! D60   D(18,13,14,15)         -0.0452         estimate D2E/DX2                !
 ! D61   D(18,13,14,20)       -179.9644         estimate D2E/DX2                !
 ! D62   D(19,13,14,15)        179.7657         estimate D2E/DX2                !
 ! D63   D(19,13,14,20)         -0.1535         estimate D2E/DX2                !
 ! D64   D(7,13,18,17)         -63.5957         estimate D2E/DX2                !
 ! D65   D(7,13,18,24)         116.3235         estimate D2E/DX2                !
 ! D66   D(14,13,18,17)          0.0452         estimate D2E/DX2                !
 ! D67   D(14,13,18,24)        179.9644         estimate D2E/DX2                !
 ! D68   D(19,13,18,17)       -179.7657         estimate D2E/DX2                !
 ! D69   D(19,13,18,24)          0.1535         estimate D2E/DX2                !
 ! D70   D(13,14,15,16)          0.0            estimate D2E/DX2                !
 ! D71   D(13,14,15,21)       -179.9192         estimate D2E/DX2                !
 ! D72   D(20,14,15,16)        179.9192         estimate D2E/DX2                !
 ! D73   D(20,14,15,21)          0.0            estimate D2E/DX2                !
 ! D74   D(14,15,16,17)          0.0452         estimate D2E/DX2                !
 ! D75   D(14,15,16,22)       -179.7657         estimate D2E/DX2                !
 ! D76   D(21,15,16,17)        179.9644         estimate D2E/DX2                !
 ! D77   D(21,15,16,22)          0.1535         estimate D2E/DX2                !
 ! D78   D(15,16,17,18)         -0.0452         estimate D2E/DX2                !
 ! D79   D(15,16,17,23)       -179.9644         estimate D2E/DX2                !
 ! D80   D(22,16,17,18)        179.7657         estimate D2E/DX2                !
 ! D81   D(22,16,17,23)         -0.1535         estimate D2E/DX2                !
 ! D82   D(7,17,18,13)          63.5876         estimate D2E/DX2                !
 ! D83   D(7,17,18,24)        -116.3316         estimate D2E/DX2                !
 ! D84   D(16,17,18,13)          0.0            estimate D2E/DX2                !
 ! D85   D(16,17,18,24)       -179.9192         estimate D2E/DX2                !
 ! D86   D(23,17,18,13)        179.9192         estimate D2E/DX2                !
 ! D87   D(23,17,18,24)          0.0            estimate D2E/DX2                !
 --------------------------------------------------------------------------------
 Trust Radius=3.00D-01 FncErr=1.00D-07 GrdErr=1.00D-07
 Number of steps in this run=    144 maximum allowed number of steps=    144.
 GradGradGradGradGradGradGradGradGradGradGradGradGradGradGradGradGradGrad

                          Input orientation:                          
 ---------------------------------------------------------------------
 Center     Atomic      Atomic             Coordinates (Angstroms)
 Number     Number       Type             X           Y           Z
 ---------------------------------------------------------------------
      1          6           0        0.000000    0.000000    1.059035
      2          6           0        0.000000   -1.206008    1.757674
      3          6           0        0.000000   -1.207177    3.151591
      4          6           0        0.000000    0.000000    3.848575
      5          6           0        0.000000    1.207177    3.151591
      6          6           0        0.000000    1.206008    1.757674
      7          1           0        0.000000    0.000000   -0.021580
      8          1           0        0.000000   -2.141639    1.214422
      9          1           0        0.000000   -2.143566    3.692995
     10          1           0        0.000000    0.000000    4.930150
     11          1           0        0.000000    2.143566    3.692995
     12          1           0        0.000000    2.141639    1.214422
     13          6           0       -1.394063    0.000000   -2.454152
     14          6           0       -0.697047    1.207238   -2.454628
     15          6           0        0.697047    1.207238   -2.454628
     16          6           0        1.394063    0.000000   -2.454152
     17          6           0        0.697047   -1.207238   -2.454628
     18          6           0       -0.697047   -1.207238   -2.454628
     19          1           0       -2.475399    0.000000   -2.450322
     20          1           0       -1.238232    2.143565   -2.453676
     21          1           0        1.238232    2.143565   -2.453676
     22          1           0        2.475399    0.000000   -2.450322
     23          1           0        1.238232   -2.143565   -2.453676
     24          1           0       -1.238232   -2.143565   -2.453676
 ---------------------------------------------------------------------
                    Distance matrix (angstroms):
                    1          2          3          4          5
     1  C    0.000000
     2  C    1.393755   0.000000
     3  C    2.415795   1.393917   0.000000
     4  C    2.789540   2.413778   1.393938   0.000000
     5  C    2.415795   2.786838   2.414354   1.393938   0.000000
     6  C    1.393755   2.412016   2.786838   2.413778   1.393917
     7  H    1.080615   2.149465   3.395039   3.870155   3.395039
     8  H    2.147269   1.081909   2.150777   3.394905   3.868746
     9  H    3.395971   2.150461   1.081639   2.149205   3.394200
    10  H    3.871115   3.393974   2.149546   1.081575   2.149546
    11  H    3.395971   3.868477   3.394200   2.149205   1.081639
    12  H    2.147269   3.391440   3.868746   3.394905   2.150777
    13  C    3.779669   4.597537   5.901275   6.455058   5.901275
    14  C    3.780096   4.904398   6.143693   6.455514   5.649386
    15  C    3.780096   4.904398   6.143693   6.455514   5.649386
    16  C    3.779669   4.597537   5.901275   6.455058   5.901275
    17  C    3.780096   4.269586   5.649386   6.455514   6.143693
    18  C    3.780096   4.269586   5.649386   6.455514   6.143693
    19  H    4.294553   5.028845   6.242300   6.767843   6.242300
    20  H    4.297351   5.521624   6.646782   6.771001   5.816275
    21  H    4.297351   5.521624   6.646782   6.771001   5.816275
    22  H    4.294553   5.028845   6.242300   6.767843   6.242300
    23  H    4.297351   4.488619   5.816275   6.771001   6.646782
    24  H    4.297351   4.488619   5.816275   6.771001   6.646782
                    6          7          8          9         10
     6  C    0.000000
     7  H    2.149465   0.000000
     8  H    3.391440   2.472715   0.000000
     9  H    3.868477   4.288699   2.478574   0.000000
    10  H    3.393974   4.951730   4.288735   2.474960   0.000000
    11  H    2.150461   4.288699   4.950384   4.287132   2.474960
    12  H    1.081909   2.472715   4.283278   4.950384   4.288735
    13  C    4.597537   2.803715   4.470846   6.657755   7.514741
    14  C    4.269586   2.804108   5.016252   7.036123   7.515201
    15  C    4.269586   2.804108   5.016252   7.036123   7.515201
    16  C    4.597537   2.803715   4.470846   6.657755   7.514741
    17  C    4.904398   2.804108   3.849793   6.257464   7.515201
    18  C    4.904398   2.804108   3.849793   6.257464   7.515201
    19  H    5.028845   3.467908   4.913712   6.961524   7.784534
    20  H    4.488619   3.470329   5.775044   7.595675   7.787745
    21  H    4.488619   3.470329   5.775044   7.595675   7.787745
    22  H    5.028845   3.467908   4.913712   6.961524   7.784534
    23  H    5.521624   3.470329   3.871455   6.270150   7.787745
    24  H    5.521624   3.470329   3.871455   6.270150   7.787745
                   11         12         13         14         15
    11  H    0.000000
    12  H    2.478574   0.000000
    13  C    6.657755   4.470846   0.000000
    14  C    6.257464   3.849793   1.394007   0.000000
    15  C    6.257464   3.849793   2.414573   1.394094   0.000000
    16  C    6.657755   4.470846   2.788126   2.414573   1.394007
    17  C    7.036123   5.016252   2.414573   2.788045   2.414476
    18  C    7.036123   5.016252   1.394007   2.414476   2.788045
    19  H    6.961524   4.913712   1.081343   2.149413   3.394386
    20  H    6.270150   3.871455   2.149222   1.081476   2.149887
    21  H    6.270150   3.871455   3.394679   2.149887   1.081476
    22  H    6.961524   4.913712   3.869464   3.394386   2.149413
    23  H    7.595675   5.775044   3.394679   3.869520   3.394225
    24  H    7.595675   5.775044   2.149222   3.394225   3.869520
                   16         17         18         19         20
    16  C    0.000000
    17  C    1.394007   0.000000
    18  C    2.414573   1.394094   0.000000
    19  H    3.869464   3.394386   2.149413   0.000000
    20  H    3.394679   3.869520   3.394225   2.474968   0.000000
    21  H    2.149222   3.394225   3.869520   4.287883   2.476464
    22  H    1.081343   2.149413   3.394386   4.950798   4.287883
    23  H    2.149222   1.081476   2.149887   4.287883   4.950996
    24  H    3.394679   2.149887   1.081476   2.474968   4.287130
                   21         22         23         24
    21  H    0.000000
    22  H    2.474968   0.000000
    23  H    4.287130   2.474968   0.000000
    24  H    4.950996   4.287883   2.476464   0.000000
 Stoichiometry    C12H12
 Framework group  C2V[C2(HCCH),SGV(C4H4),SGV'(C2H2),X(C4H4)]
 Deg. of freedom    21
 Full point group                 C2V     NOp   4
 Largest Abelian subgroup         C2V     NOp   4
 Largest concise Abelian subgroup C2V     NOp   4
                         Standard orientation:                         
 ---------------------------------------------------------------------
 Center     Atomic      Atomic             Coordinates (Angstroms)
 Number     Number       Type             X           Y           Z
 ---------------------------------------------------------------------
      1          6           0        0.000000    0.000000    1.058987
      2          6           0        0.000000    1.206008    1.757626
      3          6           0        0.000000    1.207177    3.151543
      4          6           0        0.000000    0.000000    3.848527
      5          6           0        0.000000   -1.207177    3.151543
      6          6           0        0.000000   -1.206008    1.757626
      7          1           0        0.000000    0.000000   -0.021628
      8          1           0        0.000000    2.141639    1.214374
      9          1           0        0.000000    2.143566    3.692947
     10          1           0        0.000000    0.000000    4.930102
     11          1           0        0.000000   -2.143566    3.692947
     12          1           0        0.000000   -2.141639    1.214374
     13          6           0        1.394063    0.000000   -2.454200
     14          6           0        0.697047   -1.207238   -2.454676
     15          6           0       -0.697047   -1.207238   -2.454676
     16          6           0       -1.394063    0.000000   -2.454200
     17          6           0       -0.697047    1.207238   -2.454676
     18          6           0        0.697047    1.207238   -2.454676
     19          1           0        2.475399    0.000000   -2.450370
     20          1           0        1.238232   -2.143565   -2.453724
     21          1           0       -1.238232   -2.143565   -2.453724
     22          1           0       -2.475399    0.000000   -2.450370
     23          1           0       -1.238232    2.143565   -2.453724
     24          1           0        1.238232    2.143565   -2.453724
 ---------------------------------------------------------------------
 Rotational constants (GHZ):      1.9044769      0.4523176      0.4191644
 Standard basis: 6-311+G(d,p) (5D, 7F)
 There are   127 symmetry adapted cartesian basis functions of A1  symmetry.
 There are    52 symmetry adapted cartesian basis functions of A2  symmetry.
 There are    77 symmetry adapted cartesian basis functions of B1  symmetry.
 There are    92 symmetry adapted cartesian basis functions of B2  symmetry.
 There are   121 symmetry adapted basis functions of A1  symmetry.
 There are    51 symmetry adapted basis functions of A2  symmetry.
 There are    75 symmetry adapted basis functions of B1  symmetry.
 There are    89 symmetry adapted basis functions of B2  symmetry.
   336 basis functions,   528 primitive gaussians,   348 cartesian basis functions
    42 alpha electrons       42 beta electrons
       nuclear repulsion energy       592.4166392068 Hartrees.
 NAtoms=   24 NActive=   24 NUniq=   12 SFac= 4.00D+00 NAtFMM=   60 NAOKFM=F Big=F
 Integral buffers will be    131072 words long.
 Raffenetti 1 integral format.
 Two-electron integral symmetry is turned on.
 One-electron integrals computed using PRISM.
 NBasis=   336 RedAO= T EigKep=  2.04D-06  NBF=   121    51    75    89
 NBsUse=   336 1.00D-06 EigRej= -1.00D+00 NBFU=   121    51    75    89
 ExpMin= 4.38D-02 ExpMax= 4.56D+03 ExpMxC= 6.82D+02 IAcc=2 IRadAn=         4 AccDes= 0.00D+00
 Harris functional with IExCor=  205 and IRadAn=       4 diagonalized for initial guess.
 HarFok:  IExCor=  205 AccDes= 0.00D+00 IRadAn=         4 IDoV= 1 UseB2=F ITyADJ=14
 ICtDFT=  3500011 ScaDFX=  1.000000  1.000000  1.000000  1.000000
 FoFCou: FMM=F IPFlag=           0 FMFlag=      100000 FMFlg1=           0
         NFxFlg=           0 DoJE=T BraDBF=F KetDBF=T FulRan=T
         wScrn=  0.000000 ICntrl=     500 IOpCl=  0 I1Cent=   200000004 NGrid=           0
         NMat0=    1 NMatS0=      1 NMatT0=    0 NMatD0=    1 NMtDS0=    0 NMtDT0=    0
 Petite list used in FoFCou.
 Initial guess orbital symmetries:
       Occupied  (A1) (A1) (B1) (B2) (A1) (B2) (A1) (A2) (A1) (B2)
                 (B1) (A1) (A1) (A1) (B2) (B1) (A1) (B2) (A2) (A1)
                 (A1) (B2) (A1) (A1) (B2) (B2) (A1) (B1) (A1) (B2)
                 (B1) (B2) (A1) (B1) (A1) (A2) (B2) (A1) (B1) (B2)
                 (A2) (B1)
       Virtual   (A2) (A1) (B1) (A2) (A1) (A1) (B1) (B1) (B2) (B1)
                 (A1) (B2) (A1) (A1) (A2) (B2) (A1) (A1) (B1) (B1)
                 (B1) (B2) (A1) (A2) (B2) (B2) (A1) (B1) (B2) (B2)
                 (A1) (A2) (A1) (A1) (A2) (A1) (B1) (B1) (B2) (B2)
                 (A1) (A1) (A2) (A1) (B1) (A1) (B2) (A2) (B1) (A1)
                 (B2) (B1) (B2) (B1) (A1) (A2) (A1) (B2) (A1) (B1)
                 (B2) (A1) (B2) (A1) (B1) (A2) (B2) (A1) (B2) (A1)
                 (B1) (A2) (A1) (B2) (A1) (B2) (A1) (A1) (A2) (B2)
                 (B1) (B2) (B2) (B1) (A1) (A1) (B1) (A2) (B2) (A1)
                 (A2) (B1) (B1) (A1) (B2) (A1) (A2) (B1) (A1) (A2)
                 (B2) (A1) (A1) (A2) (B1) (B1) (A1) (B2) (A1) (B1)
                 (B2) (B1) (B2) (A1) (A1) (B2) (A1) (B1) (B2) (A1)
                 (A2) (A2) (A1) (B2) (B1) (B2) (A1) (B1) (A1) (B2)
                 (B1) (A1) (B2) (A2) (B2) (A2) (B2) (B1) (A1) (A2)
                 (A1) (B1) (B2) (A2) (A2) (A1) (B1) (A1) (A1) (B1)
                 (A1) (A1) (B2) (A1) (B2) (B1) (B2) (B2) (A1) (A1)
                 (A2) (B1) (A1) (A2) (B1) (B1) (A2) (B2) (A1) (A1)
                 (B1) (B2) (B2) (A1) (B1) (B1) (A1) (A2) (B2) (B1)
                 (A1) (B2) (A2) (A1) (B2) (B2) (A2) (B1) (B1) (B2)
                 (B2) (B1) (A1) (B2) (A2) (A1) (B1) (A2) (A1) (B2)
                 (A1) (B2) (A2) (A2) (A1) (B1) (A2) (A2) (B1) (B1)
                 (A1) (B2) (A1) (A2) (B1) (A1) (B2) (B2) (A1) (A1)
                 (B1) (B2) (B1) (A1) (B2) (A1) (B1) (A1) (A1) (B1)
                 (A2) (B2) (A1) (B1) (B2) (B2) (A1) (B1) (A2) (A1)
                 (B1) (A1) (A1) (A2) (A2) (B1) (A1) (B2) (A2) (B2)
                 (A2) (A1) (B2) (A1) (B2) (B1) (B1) (B2) (B2) (A2)
                 (A1) (A1) (B2) (A1) (B1) (B2) (A1) (A1) (B1) (A1)
                 (A2) (A1) (B2) (A1) (B1) (A1) (B1) (B2) (B2) (A1)
                 (A2) (B2) (A1) (A1) (B2) (B1) (A1) (B2) (A2) (A1)
                 (A1) (B2) (B1) (A1)
 The electronic state of the initial guess is 1-A1.
 Requested convergence on RMS density matrix=1.00D-08 within 128 cycles.
 Requested convergence on MAX density matrix=1.00D-06.
 Requested convergence on             energy=1.00D-06.
 No special actions if energy rises.
 Initial convergence to 1.0D-05 achieved.  Increase integral accuracy.
 SCF Done:  E(RHF) =  -461.510760781     A.U. after   13 cycles
            NFock= 13  Conv=0.69D-08     -V/T= 2.0011
 Range of M.O.s used for correlation:     1   336
 NBasis=   336 NAE=    42 NBE=    42 NFC=     0 NFV=     0
 NROrb=    336 NOA=    42 NOB=    42 NVA=   294 NVB=   294

 **** Warning!!: The largest alpha MO coefficient is  0.15333504D+03

 Fully direct method using O(ONN) memory.
 JobTyp=1 Pass  1:  I=   1 to  12 NPSUse=  8 ParTrn=T ParDer=T DoDerP=T.
 JobTyp=1 Pass  2:  I=  13 to  24 NPSUse=  8 ParTrn=T ParDer=T DoDerP=T.
 JobTyp=1 Pass  3:  I=  25 to  36 NPSUse=  8 ParTrn=T ParDer=T DoDerP=T.
 JobTyp=1 Pass  4:  I=  37 to  42 NPSUse=  8 ParTrn=T ParDer=T DoDerP=T.
 Spin components of T(2) and E(2):
     alpha-alpha T2 =       0.8640346604D-01 E2=     -0.2296777407D+00
     alpha-beta  T2 =       0.4520737547D+00 E2=     -0.1432734414D+01
     beta-beta   T2 =       0.8640346604D-01 E2=     -0.2296777407D+00
 ANorm=    0.1274708079D+01
 E2 =    -0.1892089896D+01 EUMP2 =    -0.46340285067639D+03
          IDoAtm=111111111111111111111111
          Differentiating once with respect to electric field.
                with respect to dipole field.
          Differentiating once with respect to nuclear coordinates.
          There are     1 degrees of freedom in the 1st order CPHF.  IDoFFX=0 NUNeed=     1.
 LinEq1:  Iter=  0 NonCon=     1 RMS=2.46D-03 Max=7.07D-02 NDo=     1
 AX will form     1 AO Fock derivatives at one time.
 LinEq1:  Iter=  1 NonCon=     1 RMS=5.91D-04 Max=1.47D-02 NDo=     1
 LinEq1:  Iter=  2 NonCon=     1 RMS=1.67D-04 Max=5.20D-03 NDo=     1
 LinEq1:  Iter=  3 NonCon=     1 RMS=3.62D-05 Max=9.25D-04 NDo=     1
 LinEq1:  Iter=  4 NonCon=     1 RMS=8.38D-06 Max=4.03D-04 NDo=     1
 LinEq1:  Iter=  5 NonCon=     1 RMS=3.45D-06 Max=2.26D-04 NDo=     1
 LinEq1:  Iter=  6 NonCon=     1 RMS=1.58D-06 Max=5.58D-05 NDo=     1
 LinEq1:  Iter=  7 NonCon=     1 RMS=2.62D-07 Max=7.32D-06 NDo=     1
 LinEq1:  Iter=  8 NonCon=     1 RMS=9.99D-08 Max=2.02D-06 NDo=     1
 LinEq1:  Iter=  9 NonCon=     1 RMS=1.55D-08 Max=2.35D-07 NDo=     1
 LinEq1:  Iter= 10 NonCon=     1 RMS=4.33D-09 Max=1.13D-07 NDo=     1
 LinEq1:  Iter= 11 NonCon=     1 RMS=1.17D-09 Max=2.16D-08 NDo=     1
 LinEq1:  Iter= 12 NonCon=     1 RMS=3.07D-10 Max=6.99D-09 NDo=     1
 LinEq1:  Iter= 13 NonCon=     1 RMS=8.42D-11 Max=1.20D-09 NDo=     1
 LinEq1:  Iter= 14 NonCon=     0 RMS=1.17D-11 Max=2.35D-10 NDo=     1
 Linear equations converged to 1.000D-10 1.000D-09 after    14 iterations.
 End of Minotr F.D. properties file   721 does not exist.
 End of Minotr F.D. properties file   722 does not exist.
 End of Minotr F.D. properties file   788 does not exist.

 **********************************************************************

            Population analysis using the SCF density.

 **********************************************************************

 Orbital symmetries:
       Occupied  (A1) (B2) (B1) (A2) (A1) (B1) (A1) (B2) (A1) (A1)
                 (B2) (A1) (A1) (A1) (B2) (B1) (B2) (A1) (A2) (A1)
                 (B2) (A1) (A1) (A1) (B1) (A1) (B2) (B2) (B2) (B1)
                 (A1) (B2) (A1) (A2) (A1) (B1) (B2) (A1) (B1) (B2)
                 (A2) (B1)
       Virtual   (A1) (B2) (A1) (B1) (B2) (A1) (A2) (A1) (A2) (A1)
                 (B1) (A1) (B2) (A2) (B1) (B1) (A1) (B2) (B1) (A1)
                 (B2) (A2) (A1) (A1) (B1) (A2) (B2) (B1) (A1) (B1)
                 (B2) (A2) (B2) (A1) (B2) (B1) (A1) (A2) (B1) (A1)
                 (B2) (A1) (B1) (A2) (A1) (B2) (A2) (A1) (B1) (A1)
                 (A1) (B1) (B2) (B2) (B2) (A1) (B1) (A1) (A1) (B2)
                 (A2) (B1) (A1) (B2) (B1) (A1) (A2) (A1) (B2) (B1)
                 (B2) (A1) (A1) (B2) (A1) (A1) (B2) (B2) (B1) (A1)
                 (B2) (B1) (A1) (A1) (B1) (B2) (A2) (A2) (B2) (A1)
                 (A2) (B1) (B2) (B1) (A1) (A2) (A1) (B1) (A2) (A1)
                 (B2) (B1) (B1) (A1) (A1) (A2) (B1) (B1) (A1) (B2)
                 (B2) (B2) (A1) (A1) (A1) (A1) (A2) (B1) (B2) (A1)
                 (A1) (B2) (B2) (B1) (B2) (B1) (B2) (A1) (A1) (A2)
                 (A1) (B2) (B1) (A2) (A1) (B2) (A1) (B2) (A2) (B1)
                 (A2) (B1) (B2) (A2) (A1) (A1) (A2) (B1) (B1) (A1)
                 (A1) (A1) (B2) (A1) (B2) (B1) (B2) (B2) (A1) (B1)
                 (A1) (A2) (B1) (A1) (A2) (B1) (A2) (A1) (B2) (B1)
                 (A1) (B2) (B2) (A1) (B1) (A1) (B1) (A2) (B2) (B1)
                 (A1) (A2) (B2) (A1) (B2) (B2) (B1) (A2) (B2) (A2)
                 (B1) (B2) (B1) (B2) (A1) (B1) (B2) (A1) (A2) (A1)
                 (A1) (A2) (A1) (B2) (A2) (B1) (B1) (B1) (A2) (A2)
                 (A2) (A1) (A1) (B2) (A1) (B2) (B1) (A1) (B2) (A1)
                 (B2) (B1) (A1) (B2) (A1) (B1) (A1) (B2) (A1) (B1)
                 (A1) (B2) (A2) (B1) (A1) (A1) (B1) (B2) (A1) (A1)
                 (B1) (A2) (B1) (B2) (A2) (B2) (A2) (A1) (A2) (A1)
                 (A2) (B1) (B2) (A1) (B1) (B1) (B2) (B2) (A2) (A1)
                 (B2) (A1) (B2) (B1) (A1) (B2) (A1) (A1) (B1) (A1)
                 (A2) (A1) (B2) (A1) (B1) (A1) (B1) (B2) (B2) (A1)
                 (A2) (B2) (A1) (A1) (B1) (B2) (B2) (A1) (A2) (A1)
                 (B2) (A1) (B1) (A1)
 The electronic state is 1-A1.
 Alpha  occ. eigenvalues --  -11.24304 -11.24254 -11.24240 -11.24131 -11.24115
 Alpha  occ. eigenvalues --  -11.24062 -11.23089 -11.23035 -11.22912 -11.22799
 Alpha  occ. eigenvalues --  -11.22785 -11.22419  -1.15842  -1.14421  -1.02201
 Alpha  occ. eigenvalues --   -1.02173  -1.00874  -1.00805  -0.83049  -0.83037
 Alpha  occ. eigenvalues --   -0.81765  -0.81724  -0.71651  -0.70368  -0.64955
 Alpha  occ. eigenvalues --   -0.63747  -0.62566  -0.61252  -0.59487  -0.59454
 Alpha  occ. eigenvalues --   -0.58370  -0.58221  -0.51070  -0.50091  -0.50076
 Alpha  occ. eigenvalues --   -0.49417  -0.48804  -0.48074  -0.34506  -0.34362
 Alpha  occ. eigenvalues --   -0.32978  -0.32592
 Alpha virt. eigenvalues --    0.06288   0.07153   0.07557   0.07771   0.08877
 Alpha virt. eigenvalues --    0.08984   0.09333   0.09927   0.10154   0.10396
 Alpha virt. eigenvalues --    0.11439   0.11651   0.12043   0.12466   0.12576
 Alpha virt. eigenvalues --    0.12960   0.14344   0.15233   0.15644   0.15711
 Alpha virt. eigenvalues --    0.16042   0.16482   0.18534   0.19681   0.19715
 Alpha virt. eigenvalues --    0.19726   0.20196   0.20522   0.21467   0.22193
 Alpha virt. eigenvalues --    0.22220   0.22242   0.23505   0.24730   0.24757
 Alpha virt. eigenvalues --    0.24811   0.25092   0.25246   0.26862   0.26895
 Alpha virt. eigenvalues --    0.27768   0.28408   0.28749   0.28987   0.29253
 Alpha virt. eigenvalues --    0.29526   0.30205   0.30846   0.31344   0.32036
 Alpha virt. eigenvalues --    0.32266   0.32744   0.32780   0.32970   0.34889
 Alpha virt. eigenvalues --    0.35970   0.36471   0.36532   0.36794   0.37118
 Alpha virt. eigenvalues --    0.37931   0.38279   0.38906   0.39784   0.40350
 Alpha virt. eigenvalues --    0.40918   0.47945   0.48079   0.48727   0.48798
 Alpha virt. eigenvalues --    0.49408   0.50519   0.52062   0.52736   0.57738
 Alpha virt. eigenvalues --    0.60009   0.60329   0.69452   0.69630   0.69931
 Alpha virt. eigenvalues --    0.71785   0.72290   0.73027   0.73582   0.74113
 Alpha virt. eigenvalues --    0.74731   0.74781   0.75724   0.76175   0.76541
 Alpha virt. eigenvalues --    0.76775   0.77441   0.77953   0.80216   0.82264
 Alpha virt. eigenvalues --    0.82551   0.83804   0.84396   0.84448   0.85124
 Alpha virt. eigenvalues --    0.86165   0.88639   0.90484   0.90940   0.92259
 Alpha virt. eigenvalues --    0.92355   0.92446   0.92753   0.93243   0.93258
 Alpha virt. eigenvalues --    0.94301   0.95037   0.95543   0.97731   0.98833
 Alpha virt. eigenvalues --    1.00245   1.00370   1.01028   1.01224   1.01284
 Alpha virt. eigenvalues --    1.02688   1.03309   1.04586   1.08706   1.09371
 Alpha virt. eigenvalues --    1.10809   1.10926   1.11215   1.11802   1.12639
 Alpha virt. eigenvalues --    1.17349   1.19621   1.19838   1.20816   1.22220
 Alpha virt. eigenvalues --    1.22449   1.23831   1.24992   1.26326   1.32084
 Alpha virt. eigenvalues --    1.33280   1.34722   1.36965   1.38678   1.38825
 Alpha virt. eigenvalues --    1.40049   1.40118   1.40942   1.49889   1.52127
 Alpha virt. eigenvalues --    1.58253   1.64275   1.70769   1.76255   1.76684
 Alpha virt. eigenvalues --    1.77731   1.77866   1.78989   1.80283   1.81774
 Alpha virt. eigenvalues --    1.82311   1.83933   1.83989   1.84583   1.85612
 Alpha virt. eigenvalues --    1.85714   1.91015   1.91354   1.92551   1.92600
 Alpha virt. eigenvalues --    1.92664   1.93131   1.95939   1.96569   2.01158
 Alpha virt. eigenvalues --    2.02978   2.05418   2.06331   2.06660   2.08167
 Alpha virt. eigenvalues --    2.09550   2.09870   2.10055   2.12389   2.12972
 Alpha virt. eigenvalues --    2.14441   2.23377   2.23519   2.23560   2.24663
 Alpha virt. eigenvalues --    2.24702   2.24745   2.25009   2.25517   2.26870
 Alpha virt. eigenvalues --    2.29002   2.29349   2.30171   2.33867   2.34336
 Alpha virt. eigenvalues --    2.37057   2.37580   2.38084   2.38108   2.38809
 Alpha virt. eigenvalues --    2.41203   2.63729   2.65547   2.65808   2.67149
 Alpha virt. eigenvalues --    2.72429   2.72819   2.73769   2.74221   2.75144
 Alpha virt. eigenvalues --    2.77035   2.77893   2.80504   2.80847   2.85386
 Alpha virt. eigenvalues --    2.94992   2.95382   2.96439   2.97288   2.97714
 Alpha virt. eigenvalues --    2.98872   2.99728   3.02619   3.03452   3.04638
 Alpha virt. eigenvalues --    3.05041   3.05137   3.05589   3.06564   3.06975
 Alpha virt. eigenvalues --    3.07372   3.08156   3.09329   3.09716   3.18266
 Alpha virt. eigenvalues --    3.19959   3.20323   3.23586   3.24773   3.26301
 Alpha virt. eigenvalues --    3.28406   3.29172   3.29949   3.30752   3.31050
 Alpha virt. eigenvalues --    3.31267   3.31821   3.33053   3.35133   3.47804
 Alpha virt. eigenvalues --    3.49962   3.54517   3.60560   3.77630   3.77852
 Alpha virt. eigenvalues --    3.78808   3.80487   3.91915   3.92031   3.92329
 Alpha virt. eigenvalues --    3.94813   3.95987   4.00065   4.07706   4.09448
 Alpha virt. eigenvalues --    4.39200   4.39360   4.40692   4.41923   4.49187
 Alpha virt. eigenvalues --    4.50699   4.56708   4.57094   4.58413   4.61161
 Alpha virt. eigenvalues --    5.27338   5.29382  24.75312  24.79051  25.12419
 Alpha virt. eigenvalues --   25.13332  25.13748  25.14669  25.25363  25.25409
 Alpha virt. eigenvalues --   25.26821  25.26946  25.36411  25.37966
          Condensed to atoms (all electrons):
               1          2          3          4          5          6
     1  C    7.024790  -0.460227  -0.109047  -0.382793  -0.109047  -0.460227
     2  C   -0.460227   9.930873  -0.535808   0.072625  -0.398868  -2.711891
     3  C   -0.109047  -0.535808   6.141370   0.471889   0.260473  -0.398868
     4  C   -0.382793   0.072625   0.471889   5.044847   0.471889   0.072625
     5  C   -0.109047  -0.398868   0.260473   0.471889   6.141370  -0.535808
     6  C   -0.460227  -2.711891  -0.398868   0.072625  -0.535808   9.930873
     7  H    0.392631  -0.049409   0.011612   0.005181   0.011612  -0.049409
     8  H    0.050024   0.369436  -0.035089  -0.010568  -0.002509  -0.005070
     9  H   -0.010211  -0.017130   0.394093   0.016422  -0.006112  -0.009356
    10  H    0.018951  -0.032710   0.011852   0.392896   0.011852  -0.032710
    11  H   -0.010211  -0.009356  -0.006112   0.016422   0.394093  -0.017130
    12  H    0.050024  -0.005070  -0.002509  -0.010568  -0.035089   0.369436
    13  C   -0.167255   0.020113   0.033024   0.002956   0.033024   0.020113
    14  C   -0.059982  -0.241161  -0.010718   0.001817   0.006731   0.303470
    15  C   -0.059982  -0.241161  -0.010718   0.001817   0.006731   0.303470
    16  C   -0.167255   0.020113   0.033024   0.002956   0.033024   0.020113
    17  C   -0.059982   0.303470   0.006731   0.001817  -0.010718  -0.241161
    18  C   -0.059982   0.303470   0.006731   0.001817  -0.010718  -0.241161
    19  H   -0.005161   0.000924   0.000280  -0.000009   0.000280   0.000924
    20  H   -0.001228   0.001224  -0.000090   0.000048  -0.000434  -0.001714
    21  H   -0.001228   0.001224  -0.000090   0.000048  -0.000434  -0.001714
    22  H   -0.005161   0.000924   0.000280  -0.000009   0.000280   0.000924
    23  H   -0.001228  -0.001714  -0.000434   0.000048  -0.000090   0.001224
    24  H   -0.001228  -0.001714  -0.000434   0.000048  -0.000090   0.001224
               7          8          9         10         11         12
     1  C    0.392631   0.050024  -0.010211   0.018951  -0.010211   0.050024
     2  C   -0.049409   0.369436  -0.017130  -0.032710  -0.009356  -0.005070
     3  C    0.011612  -0.035089   0.394093   0.011852  -0.006112  -0.002509
     4  C    0.005181  -0.010568   0.016422   0.392896   0.016422  -0.010568
     5  C    0.011612  -0.002509  -0.006112   0.011852   0.394093  -0.035089
     6  C   -0.049409  -0.005070  -0.009356  -0.032710  -0.017130   0.369436
     7  H    0.500881  -0.006257  -0.000100   0.000041  -0.000100  -0.006257
     8  H   -0.006257   0.511918  -0.004609  -0.000125   0.000036  -0.000071
     9  H   -0.000100  -0.004609   0.509114  -0.005068  -0.000119   0.000036
    10  H    0.000041  -0.000125  -0.005068   0.508361  -0.005068  -0.000125
    11  H   -0.000100   0.000036  -0.000119  -0.005068   0.509114  -0.004609
    12  H   -0.006257  -0.000071   0.000036  -0.000125  -0.004609   0.511918
    13  C    0.008194  -0.002314   0.000048  -0.000019   0.000048  -0.002314
    14  C    0.001416   0.000904   0.000000   0.000008   0.000053   0.002057
    15  C    0.001416   0.000904   0.000000   0.000008   0.000053   0.002057
    16  C    0.008194  -0.002314   0.000048  -0.000019   0.000048  -0.002314
    17  C    0.001416   0.002057   0.000053   0.000008   0.000000   0.000904
    18  C    0.001416   0.002057   0.000053   0.000008   0.000000   0.000904
    19  H    0.000455   0.000002   0.000000   0.000000   0.000000   0.000002
    20  H    0.000194  -0.000002   0.000000   0.000000   0.000000  -0.000070
    21  H    0.000194  -0.000002   0.000000   0.000000   0.000000  -0.000070
    22  H    0.000455   0.000002   0.000000   0.000000   0.000000   0.000002
    23  H    0.000194  -0.000070   0.000000   0.000000   0.000000  -0.000002
    24  H    0.000194  -0.000070   0.000000   0.000000   0.000000  -0.000002
              13         14         15         16         17         18
     1  C   -0.167255  -0.059982  -0.059982  -0.167255  -0.059982  -0.059982
     2  C    0.020113  -0.241161  -0.241161   0.020113   0.303470   0.303470
     3  C    0.033024  -0.010718  -0.010718   0.033024   0.006731   0.006731
     4  C    0.002956   0.001817   0.001817   0.002956   0.001817   0.001817
     5  C    0.033024   0.006731   0.006731   0.033024  -0.010718  -0.010718
     6  C    0.020113   0.303470   0.303470   0.020113  -0.241161  -0.241161
     7  H    0.008194   0.001416   0.001416   0.008194   0.001416   0.001416
     8  H   -0.002314   0.000904   0.000904  -0.002314   0.002057   0.002057
     9  H    0.000048   0.000000   0.000000   0.000048   0.000053   0.000053
    10  H   -0.000019   0.000008   0.000008  -0.000019   0.000008   0.000008
    11  H    0.000048   0.000053   0.000053   0.000048   0.000000   0.000000
    12  H   -0.002314   0.002057   0.002057  -0.002314   0.000904   0.000904
    13  C    5.082155   0.404127  -0.054750   0.048309  -0.054750   0.404127
    14  C    0.404127   4.965426   0.531532  -0.054750  -0.085533   0.003331
    15  C   -0.054750   0.531532   4.965426   0.404127   0.003331  -0.085533
    16  C    0.048309  -0.054750   0.404127   5.082155   0.404127  -0.054750
    17  C   -0.054750  -0.085533   0.003331   0.404127   4.965426   0.531532
    18  C    0.404127   0.003331  -0.085533  -0.054750   0.531532   4.965426
    19  H    0.422043  -0.014271  -0.009805   0.006886  -0.009805  -0.014271
    20  H   -0.010962   0.418028  -0.012767  -0.006672   0.002586  -0.007907
    21  H   -0.006672  -0.012767   0.418028  -0.010962  -0.007907   0.002586
    22  H    0.006886  -0.009805  -0.014271   0.422043  -0.014271  -0.009805
    23  H   -0.006672   0.002586  -0.007907  -0.010962   0.418028  -0.012767
    24  H   -0.010962  -0.007907   0.002586  -0.006672  -0.012767   0.418028
              19         20         21         22         23         24
     1  C   -0.005161  -0.001228  -0.001228  -0.005161  -0.001228  -0.001228
     2  C    0.000924   0.001224   0.001224   0.000924  -0.001714  -0.001714
     3  C    0.000280  -0.000090  -0.000090   0.000280  -0.000434  -0.000434
     4  C   -0.000009   0.000048   0.000048  -0.000009   0.000048   0.000048
     5  C    0.000280  -0.000434  -0.000434   0.000280  -0.000090  -0.000090
     6  C    0.000924  -0.001714  -0.001714   0.000924   0.001224   0.001224
     7  H    0.000455   0.000194   0.000194   0.000455   0.000194   0.000194
     8  H    0.000002  -0.000002  -0.000002   0.000002  -0.000070  -0.000070
     9  H    0.000000   0.000000   0.000000   0.000000   0.000000   0.000000
    10  H    0.000000   0.000000   0.000000   0.000000   0.000000   0.000000
    11  H    0.000000   0.000000   0.000000   0.000000   0.000000   0.000000
    12  H    0.000002  -0.000070  -0.000070   0.000002  -0.000002  -0.000002
    13  C    0.422043  -0.010962  -0.006672   0.006886  -0.006672  -0.010962
    14  C   -0.014271   0.418028  -0.012767  -0.009805   0.002586  -0.007907
    15  C   -0.009805  -0.012767   0.418028  -0.014271  -0.007907   0.002586
    16  C    0.006886  -0.006672  -0.010962   0.422043  -0.010962  -0.006672
    17  C   -0.009805   0.002586  -0.007907  -0.014271   0.418028  -0.012767
    18  C   -0.014271  -0.007907   0.002586  -0.009805  -0.012767   0.418028
    19  H    0.493465  -0.005232  -0.000122   0.000013  -0.000122  -0.005232
    20  H   -0.005232   0.493508  -0.005648  -0.000122   0.000018  -0.000122
    21  H   -0.000122  -0.005648   0.493508  -0.005232  -0.000122   0.000018
    22  H    0.000013  -0.000122  -0.005232   0.493465  -0.005232  -0.000122
    23  H   -0.000122   0.000018  -0.000122  -0.005232   0.493508  -0.005648
    24  H   -0.005232  -0.000122   0.000018  -0.000122  -0.005648   0.493508
 Mulliken charges:
               1
     1  C    0.595017
     2  C   -0.318175
     3  C   -0.261443
     4  C   -0.174219
     5  C   -0.261443
     6  C   -0.318175
     7  H    0.165833
     8  H    0.131729
     9  H    0.132840
    10  H    0.131858
    11  H    0.132840
    12  H    0.131729
    13  C   -0.168497
    14  C   -0.144592
    15  C   -0.144592
    16  C   -0.168497
    17  C   -0.144592
    18  C   -0.144592
    19  H    0.138758
    20  H    0.137363
    21  H    0.137363
    22  H    0.138758
    23  H    0.137363
    24  H    0.137363
 Sum of Mulliken charges =   0.00000
 Mulliken charges with hydrogens summed into heavy atoms:
               1
     1  C    0.760851
     2  C   -0.186446
     3  C   -0.128603
     4  C   -0.042360
     5  C   -0.128603
     6  C   -0.186446
    13  C   -0.029739
    14  C   -0.007229
    15  C   -0.007229
    16  C   -0.029739
    17  C   -0.007229
    18  C   -0.007229
 Electronic spatial extent (au):  <R**2>=           2726.1498
 Charge=              0.0000 electrons
 Dipole moment (field-independent basis, Debye):
    X=              0.0000    Y=              0.0000    Z=             -0.5150  Tot=              0.5150
 Quadrupole moment (field-independent basis, Debye-Ang):
   XX=            -72.9150   YY=            -64.2146   ZZ=            -74.2315
   XY=              0.0000   XZ=              0.0000   YZ=              0.0000
 Traceless Quadrupole moment (field-independent basis, Debye-Ang):
   XX=             -2.4613   YY=              6.2391   ZZ=             -3.7778
   XY=              0.0000   XZ=              0.0000   YZ=              0.0000
 Octapole moment (field-independent basis, Debye-Ang**2):
  XXX=              0.0000  YYY=              0.0000  ZZZ=             60.4787  XYY=              0.0000
  XXY=              0.0000  XXZ=            -24.1219  XZZ=              0.0000  YZZ=              0.0000
  YYZ=             -1.4950  XYZ=              0.0000
 Hexadecapole moment (field-independent basis, Debye-Ang**3):
 XXXX=           -320.2973 YYYY=           -543.9050 ZZZZ=          -2986.6768 XXXY=              0.0000
 XXXZ=              0.0000 YYYX=              0.0000 YYYZ=              0.0000 ZZZX=              0.0000
 ZZZY=              0.0000 XXYY=           -156.0515 XXZZ=           -572.7581 YYZZ=           -543.7138
 XXYZ=              0.0000 YYXZ=              0.0000 ZZXY=              0.0000
 N-N= 5.924166392068D+02 E-N=-2.258675713446D+03  KE= 4.610224293572D+02
 Symmetry A1   KE= 2.227863551124D+02
 Symmetry A2   KE= 3.972639003025D+01
 Symmetry B1   KE= 7.791906537162D+01
 Symmetry B2   KE= 1.205906188429D+02
 Calling FoFJK, ICntrl=  10002127 FMM=F ISym2X=1 I1Cent= 0 IOpClX= 0 NMat=1 NMatS=1 NMatT=0.
 ***** Axes restored to original set *****
 -------------------------------------------------------------------
 Center     Atomic                   Forces (Hartrees/Bohr)
 Number     Number              X              Y              Z
 -------------------------------------------------------------------
      1        6           0.000000000    0.000000000   -0.003045869
      2        6           0.000000000   -0.001352077   -0.000956610
      3        6           0.000000000   -0.001472696    0.000777021
      4        6           0.000000000    0.000000000    0.001646562
      5        6           0.000000000    0.001472696    0.000777021
      6        6           0.000000000    0.001352077   -0.000956610
      7        1           0.000000000    0.000000000   -0.003101086
      8        1           0.000000000   -0.002974793   -0.001769144
      9        1           0.000000000   -0.003041354    0.001732245
     10        1           0.000000000    0.000000000    0.003513337
     11        1           0.000000000    0.003041354    0.001732245
     12        1           0.000000000    0.002974793   -0.001769144
     13        6          -0.001751588    0.000000000    0.000130633
     14        6          -0.000841824    0.001411359    0.000299353
     15        6           0.000841824    0.001411359    0.000299353
     16        6           0.001751588    0.000000000    0.000130633
     17        6           0.000841824   -0.001411359    0.000299353
     18        6          -0.000841824   -0.001411359    0.000299353
     19        1          -0.003602707    0.000000000    0.000068551
     20        1          -0.001773525    0.003154533   -0.000043936
     21        1           0.001773525    0.003154533   -0.000043936
     22        1           0.003602707    0.000000000    0.000068551
     23        1           0.001773525   -0.003154533   -0.000043936
     24        1          -0.001773525   -0.003154533   -0.000043936
 -------------------------------------------------------------------
 Cartesian Forces:  Max     0.003602707 RMS     0.001620755

 GradGradGradGradGradGradGradGradGradGradGradGradGradGradGradGradGradGrad
 Berny optimization.
 FormGI is forming the generalized inverse of G from B-inverse, IUseBI=4.
 Internal  Forces:  Max     0.005213546 RMS     0.001605641
 Search for a local minimum.
 Step number   1 out of a maximum of  144
 All quantities printed in internal units (Hartrees-Bohrs-Radians)
 Mixed Optimization -- RFO/linear search
 Second derivative matrix not updated -- first step.
 ITU=  0
     Eigenvalues ---    0.00359   0.01215   0.01277   0.01857   0.02153
     Eigenvalues ---    0.02167   0.02169   0.02169   0.02169   0.02169
     Eigenvalues ---    0.02170   0.02170   0.02170   0.02171   0.02207
     Eigenvalues ---    0.02410   0.02555   0.02863   0.03297   0.03787
     Eigenvalues ---    0.03992   0.04325   0.04572   0.04900   0.05180
     Eigenvalues ---    0.05536   0.05754   0.06155   0.06200   0.13891
     Eigenvalues ---    0.16000   0.16000   0.16000   0.16000   0.16000
     Eigenvalues ---    0.16000   0.16000   0.16908   0.19800   0.22000
     Eigenvalues ---    0.22000   0.22000   0.32946   0.35765   0.35765
     Eigenvalues ---    0.35779   0.35797   0.35797   0.35805   0.35817
     Eigenvalues ---    0.35817   0.35817   0.35817   0.35833   0.35833
     Eigenvalues ---    0.35920   0.37299   0.38759   0.41597   0.42260
     Eigenvalues ---    0.42279   0.42488   0.46641   0.46644   0.46656
     Eigenvalues ---    0.46667
 RFO step:  Lambda=-1.06901939D-03 EMin= 3.58975618D-03
 Linear search not attempted -- first point.
 Iteration  1 RMS(Cart)=  0.00623499 RMS(Int)=  0.00000485
 Iteration  2 RMS(Cart)=  0.00000741 RMS(Int)=  0.00000118
 Iteration  3 RMS(Cart)=  0.00000000 RMS(Int)=  0.00000118
 ClnCor:  largest displacement from symmetrization is 5.31D-03 for atom    24.
 Variable       Old X    -DE/DX   Delta X   Delta X   Delta X     New X
                                 (Linear)    (Quad)   (Total)
    R1        2.63381   0.00491   0.00000   0.01047   0.00946   2.64327
    R2        2.63381   0.00491   0.00000   0.01047   0.00946   2.64327
    R3        2.04207   0.00168   0.00000   0.00467   0.00467   2.04673
    R4        2.63412   0.00509   0.00000   0.01089   0.01089   2.64501
    R5        2.04451   0.00346   0.00000   0.00965   0.00965   2.05416
    R6        2.63416   0.00521   0.00000   0.01119   0.01188   2.64604
    R7        2.04400   0.00350   0.00000   0.00975   0.00975   2.05375
    R8        2.63416   0.00521   0.00000   0.01119   0.01188   2.64604
    R9        2.04388   0.00351   0.00000   0.00978   0.00978   2.05366
   R10        2.63412   0.00509   0.00000   0.01089   0.01089   2.64501
   R11        2.04400   0.00350   0.00000   0.00975   0.00975   2.05375
   R12        2.04451   0.00346   0.00000   0.00965   0.00965   2.05416
   R13        5.29825   0.00028   0.00000  -0.00079  -0.00135   5.29691
   R14        5.29900   0.00032   0.00000  -0.00090  -0.00034   5.29865
   R15        5.29900   0.00034   0.00000  -0.00078  -0.00034   5.29865
   R16        5.29825   0.00034   0.00000  -0.00033  -0.00135   5.29691
   R17        5.29900   0.00025   0.00000  -0.00115  -0.00034   5.29865
   R18        2.63429   0.00439   0.00000   0.01070   0.01023   2.64452
   R19        2.63429   0.00441   0.00000   0.01049   0.01023   2.64452
   R20        2.04344   0.00360   0.00000   0.01002   0.01002   2.05347
   R21        2.63446   0.00430   0.00000   0.01026   0.00924   2.64370
   R22        2.04369   0.00362   0.00000   0.01007   0.01007   2.05377
   R23        2.63429   0.00433   0.00000   0.01027   0.01023   2.64452
   R24        2.04369   0.00362   0.00000   0.01007   0.01007   2.05377
   R25        2.63429   0.00439   0.00000   0.01070   0.01023   2.64452
   R26        2.04344   0.00360   0.00000   0.01002   0.01002   2.05347
   R27        2.63446   0.00439   0.00000   0.01049   0.00924   2.64370
   R28        2.04369   0.00362   0.00000   0.01007   0.01007   2.05377
   R29        2.04369   0.00362   0.00000   0.01007   0.01007   2.05377
    A1        2.09147   0.00018   0.00000   0.00070   0.00100   2.09247
    A2        2.09586  -0.00009   0.00000  -0.00035  -0.00050   2.09536
    A3        2.09586  -0.00009   0.00000  -0.00035  -0.00050   2.09536
    A4        2.09669  -0.00004   0.00000  -0.00026  -0.00004   2.09665
    A5        2.09048  -0.00002   0.00000  -0.00010  -0.00032   2.09016
    A6        2.09601   0.00006   0.00000   0.00036   0.00036   2.09637
    A7        2.09357  -0.00005   0.00000  -0.00014  -0.00029   2.09328
    A8        2.09586   0.00000   0.00000  -0.00007  -0.00007   2.09578
    A9        2.09376   0.00005   0.00000   0.00021   0.00037   2.09412
   A10        2.09437  -0.00001   0.00000   0.00011  -0.00033   2.09404
   A11        2.09441   0.00000   0.00000  -0.00005   0.00017   2.09457
   A12        2.09441   0.00000   0.00000  -0.00005   0.00017   2.09457
   A13        2.09357  -0.00005   0.00000  -0.00014  -0.00029   2.09328
   A14        2.09376   0.00005   0.00000   0.00021   0.00037   2.09412
   A15        2.09586   0.00000   0.00000  -0.00007  -0.00007   2.09578
   A16        2.09669  -0.00004   0.00000  -0.00026  -0.00004   2.09665
   A17        2.09048  -0.00002   0.00000  -0.00010  -0.00032   2.09016
   A18        2.09601   0.00006   0.00000   0.00036   0.00036   2.09637
   A19        2.62120  -0.00092   0.00000  -0.00276  -0.00233   2.61887
   A20        2.62130  -0.00090   0.00000  -0.00179  -0.00218   2.61912
   A21        2.62130  -0.00091   0.00000  -0.00153  -0.00218   2.61912
   A22        2.62120  -0.00091   0.00000  -0.00184  -0.00233   2.61887
   A23        2.62130  -0.00091   0.00000  -0.00270  -0.00218   2.61912
   A24        0.89025   0.00153   0.00000   0.00402   0.00372   0.89397
   A25        1.04078   0.00184   0.00000   0.00460   0.00467   1.04545
   A26        0.89025   0.00152   0.00000   0.00368   0.00372   0.89397
   A27        0.89025   0.00151   0.00000   0.00373   0.00372   0.89397
   A28        1.04059   0.00182   0.00000   0.00449   0.00435   1.04494
   A29        0.89015   0.00152   0.00000   0.00393   0.00369   0.89384
   A30        1.31985  -0.00045   0.00000  -0.00135  -0.00067   1.31918
   A31        2.08765   0.00063   0.00000   0.00036   0.00018   2.08782
   A32        2.09437   0.00001   0.00000   0.00044  -0.00027   2.09410
   A33        2.09440   0.00002   0.00000  -0.00019   0.00013   2.09454
   A34        2.09440  -0.00003   0.00000  -0.00027   0.00013   2.09454
   A35        2.09021   0.00069   0.00000   0.00101   0.00119   2.09140
   A36        2.09441   0.00002   0.00000   0.00028   0.00014   2.09454
   A37        2.09391  -0.00005   0.00000   0.00010   0.00000   2.09390
   A38        2.09487   0.00002   0.00000  -0.00039  -0.00014   2.09473
   A39        2.09021   0.00070   0.00000   0.00103   0.00119   2.09140
   A40        2.09441   0.00001   0.00000  -0.00036   0.00014   2.09454
   A41        2.09487  -0.00002   0.00000  -0.00008  -0.00014   2.09473
   A42        2.09391   0.00000   0.00000   0.00044   0.00000   2.09390
   A43        2.08765   0.00067   0.00000   0.00040   0.00018   2.08782
   A44        2.09437  -0.00003   0.00000  -0.00013  -0.00027   2.09410
   A45        2.09440   0.00005   0.00000   0.00008   0.00013   2.09454
   A46        2.09440  -0.00003   0.00000   0.00005   0.00013   2.09454
   A47        1.31958  -0.00044   0.00000  -0.00123  -0.00092   1.31866
   A48        2.09021   0.00065   0.00000   0.00099   0.00119   2.09140
   A49        2.09441   0.00006   0.00000   0.00086   0.00014   2.09454
   A50        2.09391   0.00000   0.00000  -0.00014   0.00000   2.09390
   A51        2.09487  -0.00006   0.00000  -0.00072  -0.00014   2.09473
   A52        2.09441  -0.00008   0.00000  -0.00109   0.00014   2.09454
   A53        2.09391   0.00008   0.00000   0.00082   0.00000   2.09390
   A54        2.09487   0.00000   0.00000   0.00027  -0.00014   2.09473
    D1        0.00000   0.00000   0.00000   0.00000   0.00000   0.00000
    D2        3.14159   0.00000   0.00000   0.00000   0.00000   3.14159
    D3        3.14159   0.00000   0.00000   0.00000   0.00000   3.14159
    D4        0.00000   0.00000   0.00000   0.00000   0.00000   0.00000
    D5        0.00000   0.00000   0.00000   0.00000   0.00000   0.00000
    D6        3.14159   0.00000   0.00000   0.00000   0.00000   3.14159
    D7        3.14159   0.00000   0.00000   0.00000   0.00000   3.14159
    D8        0.00000   0.00000   0.00000   0.00000   0.00000   0.00000
    D9        1.57080  -0.00001   0.00000  -0.00158   0.00000   1.57080
   D10        2.61796   0.00001   0.00000  -0.00129   0.00013   2.61809
   D11       -2.61796   0.00000   0.00000   0.00004  -0.00013  -2.61809
   D12       -1.57080  -0.00001   0.00000   0.00127   0.00000  -1.57080
   D13       -0.52363   0.00001   0.00000   0.00156   0.00013  -0.52350
   D14       -1.57080  -0.00001   0.00000  -0.00158   0.00000  -1.57080
   D15       -0.52363   0.00001   0.00000  -0.00129   0.00013  -0.52350
   D16        0.52363   0.00000   0.00000   0.00004  -0.00013   0.52350
   D17        1.57080  -0.00001   0.00000   0.00127   0.00000   1.57080
   D18        2.61796   0.00001   0.00000   0.00156   0.00013   2.61809
   D19        0.00000   0.00000   0.00000   0.00000   0.00000   0.00000
   D20        3.14159   0.00000   0.00000   0.00000   0.00000   3.14159
   D21        3.14159   0.00000   0.00000   0.00000   0.00000   3.14159
   D22        0.00000   0.00000   0.00000   0.00000   0.00000   0.00000
   D23        0.00000   0.00000   0.00000   0.00000   0.00000   0.00000
   D24        3.14159   0.00000   0.00000   0.00000   0.00000   3.14159
   D25        3.14159   0.00000   0.00000   0.00000   0.00000   3.14159
   D26        0.00000   0.00000   0.00000   0.00000   0.00000   0.00000
   D27        0.00000   0.00000   0.00000   0.00000   0.00000   0.00000
   D28        3.14159   0.00000   0.00000   0.00000   0.00000   3.14159
   D29        3.14159   0.00000   0.00000   0.00000   0.00000   3.14159
   D30        0.00000   0.00000   0.00000   0.00000   0.00000   0.00000
   D31        0.00000   0.00000   0.00000   0.00000   0.00000   0.00000
   D32        3.14159   0.00000   0.00000   0.00000   0.00000   3.14159
   D33        3.14159   0.00000   0.00000   0.00000   0.00000   3.14159
   D34        0.00000   0.00000   0.00000   0.00000   0.00000   0.00000
   D35       -2.03535   0.00028   0.00000   0.00307   0.00019  -2.03516
   D36        0.00000   0.00002   0.00000   0.00208   0.00000   0.00000
   D37        1.69331   0.00051   0.00000   0.00206   0.00076   1.69407
   D38       -2.55453   0.00024   0.00000   0.00106   0.00057  -2.55395
   D39        1.10624   0.00028   0.00000   0.00142   0.00019   1.10643
   D40        3.14159   0.00001   0.00000   0.00043   0.00000   3.14159
   D41        0.51918   0.00003   0.00000   0.00071  -0.00039   0.51879
   D42        2.55453  -0.00023   0.00000  -0.00028  -0.00057   2.55395
   D43       -0.00052  -0.00004   0.00000   0.00165   0.00001  -0.00050
   D44       -2.55493   0.00021   0.00000   0.00079   0.00077  -2.55416
   D45        3.14108  -0.00004   0.00000   0.00001   0.00001   3.14109
   D46        0.00052  -0.00002   0.00000  -0.00042  -0.00001   0.00050
   D47        2.55493  -0.00026   0.00000  -0.00083  -0.00077   2.55416
   D48       -2.55392   0.00022   0.00000   0.00001   0.00043  -2.55349
   D49        0.00000   0.00006   0.00000  -0.00124   0.00000   0.00000
   D50        3.14159   0.00006   0.00000   0.00041   0.00000   3.14159
   D51        2.55453  -0.00019   0.00000  -0.00033  -0.00057   2.55395
   D52        2.03523  -0.00029   0.00000  -0.00312  -0.00062   2.03461
   D53       -0.00052   0.00000   0.00000  -0.00166   0.00001  -0.00050
   D54       -0.51918  -0.00003   0.00000  -0.00069   0.00014  -0.51904
   D55       -2.55493   0.00026   0.00000   0.00077   0.00077  -2.55416
   D56       -1.10636  -0.00029   0.00000  -0.00148  -0.00062  -1.10698
   D57        3.14108   0.00000   0.00000  -0.00002   0.00001   3.14109
   D58       -1.69352  -0.00052   0.00000  -0.00219  -0.00106  -1.69458
   D59        2.55392  -0.00023   0.00000  -0.00073  -0.00043   2.55349
   D60       -0.00079   0.00004   0.00000   0.00061  -0.00112  -0.00191
   D61       -3.14097   0.00032   0.00000   0.00224   0.00057  -3.14040
   D62        3.13750  -0.00034   0.00000  -0.00242  -0.00249   3.13501
   D63       -0.00268  -0.00006   0.00000  -0.00079  -0.00079  -0.00347
   D64       -1.10995   0.00076   0.00000   0.00122   0.00235  -1.10761
   D65        2.03023   0.00047   0.00000   0.00155   0.00065   2.03088
   D66        0.00079  -0.00010   0.00000  -0.00153   0.00112   0.00191
   D67        3.14097  -0.00039   0.00000  -0.00120  -0.00057   3.14040
   D68       -3.13750   0.00027   0.00000   0.00150   0.00249  -3.13501
   D69        0.00268  -0.00002   0.00000   0.00183   0.00079   0.00347
   D70        0.00000   0.00003   0.00000   0.00053   0.00000   0.00000
   D71       -3.14018   0.00028   0.00000   0.00165   0.00170  -3.13848
   D72        3.14018  -0.00025   0.00000  -0.00109  -0.00170   3.13848
   D73        0.00000   0.00000   0.00000   0.00002   0.00000   0.00000
   D74        0.00079  -0.00003   0.00000  -0.00077   0.00112   0.00191
   D75       -3.13750   0.00028   0.00000   0.00201   0.00249  -3.13501
   D76        3.14097  -0.00028   0.00000  -0.00188  -0.00057   3.14040
   D77        0.00268   0.00003   0.00000   0.00090   0.00079   0.00347
   D78       -0.00079  -0.00004   0.00000  -0.00015  -0.00112  -0.00191
   D79       -3.14097   0.00030   0.00000   0.00178   0.00057  -3.14040
   D80        3.13750  -0.00035   0.00000  -0.00292  -0.00249   3.13501
   D81       -0.00268  -0.00001   0.00000  -0.00099  -0.00079  -0.00347
   D82        1.10981  -0.00076   0.00000  -0.00115  -0.00260   1.10721
   D83       -2.03037  -0.00047   0.00000  -0.00148  -0.00090  -2.03127
   D84        0.00000   0.00010   0.00000   0.00130   0.00000   0.00000
   D85       -3.14018   0.00039   0.00000   0.00096   0.00170  -3.13848
   D86        3.14018  -0.00024   0.00000  -0.00064  -0.00170   3.13848
   D87        0.00000   0.00005   0.00000  -0.00097   0.00000   0.00000
         Item               Value     Threshold  Converged?
 Maximum Force            0.005214     0.000450     NO 
 RMS     Force            0.001606     0.000300     NO 
 Maximum Displacement     0.023470     0.001800     NO 
 RMS     Displacement     0.006104     0.001200     NO 
 Predicted change in Energy=-5.331957D-04
 GradGradGradGradGradGradGradGradGradGradGradGradGradGradGradGradGradGrad

                          Input orientation:                          
 ---------------------------------------------------------------------
 Center     Atomic      Atomic             Coordinates (Angstroms)
 Number     Number       Type             X           Y           Z
 ---------------------------------------------------------------------
      1          6           0        0.000000    0.000000    1.055267
      2          6           0        0.000000   -1.210690    1.755811
      3          6           0        0.000000   -1.212504    3.155488
      4          6           0        0.000000    0.000000    3.855818
      5          6           0        0.000000    1.212504    3.155488
      6          6           0        0.000000    1.210690    1.755811
      7          1           0        0.000000    0.000000   -0.027817
      8          1           0        0.000000   -2.150288    1.209226
      9          1           0        0.000000   -2.153648    3.698973
     10          1           0        0.000000    0.000000    4.942570
     11          1           0        0.000000    2.153648    3.698973
     12          1           0        0.000000    2.150288    1.209226
     13          6           0       -1.399381    0.000000   -2.456510
     14          6           0       -0.699493    1.211830   -2.457669
     15          6           0        0.699493    1.211830   -2.457669
     16          6           0        1.399381    0.000000   -2.456510
     17          6           0        0.699493   -1.211830   -2.457669
     18          6           0       -0.699493   -1.211830   -2.457669
     19          1           0       -2.486011    0.000000   -2.450319
     20          1           0       -1.243216    2.152845   -2.455643
     21          1           0        1.243216    2.152845   -2.455643
     22          1           0        2.486011    0.000000   -2.450319
     23          1           0        1.243216   -2.152845   -2.455643
     24          1           0       -1.243216   -2.152845   -2.455643
 ---------------------------------------------------------------------
                    Distance matrix (angstroms):
                    1          2          3          4          5
     1  C    0.000000
     2  C    1.398761   0.000000
     3  C    2.425097   1.399678   0.000000
     4  C    2.800551   2.424004   1.400224   0.000000
     5  C    2.425097   2.798386   2.425008   1.400224   0.000000
     6  C    1.398761   2.421379   2.798386   2.424004   1.399678
     7  H    1.083084   2.155713   3.406405   3.883635   3.406405
     8  H    2.155793   1.087015   2.160411   3.410013   3.885397
     9  H    3.409895   2.159873   1.086797   2.159352   3.409745
    10  H    3.887303   3.408988   2.159590   1.086752   2.159590
    11  H    3.409895   3.885183   3.409745   2.159352   1.086797
    12  H    2.155793   3.405133   3.885397   3.410013   2.160411
    13  C    3.780324   4.600836   5.909565   6.465582   5.909565
    14  C    3.781341   4.910327   6.154203   6.466679   5.656574
    15  C    3.781341   4.910327   6.154203   6.466679   5.656574
    16  C    3.780324   4.600836   5.909565   6.465582   5.909565
    17  C    3.781341   4.271148   5.656574   6.466679   6.154203
    18  C    3.781341   4.271148   5.656574   6.466679   6.154203
    19  H    4.297602   5.033642   6.251039   6.778467   6.251039
    20  H    4.301955   5.531302   6.660027   6.783426   5.823626
    21  H    4.301955   5.531302   6.660027   6.783426   5.823626
    22  H    4.297602   5.033642   6.251039   6.778467   6.251039
    23  H    4.301955   4.491057   5.823626   6.783426   6.660027
    24  H    4.301955   4.491057   5.823626   6.783426   6.660027
                    6          7          8          9         10
     6  C    0.000000
     7  H    2.155713   0.000000
     8  H    3.405133   2.480729   0.000000
     9  H    3.885183   4.304320   2.489750   0.000000
    10  H    3.408988   4.970387   4.308317   2.486913   0.000000
    11  H    2.159873   4.304320   4.972194   4.307297   2.486913
    12  H    1.087015   2.480729   4.300577   4.972194   4.308317
    13  C    4.600836   2.803002   4.474330   6.669816   7.530249
    14  C    4.271148   2.803926   5.023868   7.051240   7.531359
    15  C    4.271148   2.803926   5.023868   7.051240   7.531359
    16  C    4.600836   2.803002   4.474330   6.669816   7.530249
    17  C    4.910327   2.803926   3.849170   6.267420   7.531359
    18  C    4.910327   2.803926   3.849170   6.267420   7.531359
    19  H    5.033642   3.471134   4.918970   6.973683   7.799683
    20  H    4.491057   3.474862   5.787384   7.613854   7.804735
    21  H    4.491057   3.474862   5.787384   7.613854   7.804735
    22  H    5.033642   3.471134   4.918970   6.973683   7.799683
    23  H    5.531302   3.474862   3.869994   6.278924   7.804735
    24  H    5.531302   3.474862   3.869994   6.278924   7.804735
                   11         12         13         14         15
    11  H    0.000000
    12  H    2.489750   0.000000
    13  C    6.669816   4.474330   0.000000
    14  C    6.267420   3.849170   1.399420   0.000000
    15  C    6.267420   3.849170   2.423593   1.398986   0.000000
    16  C    6.669816   4.474330   2.798762   2.423593   1.399420
    17  C    7.051240   5.023868   2.423593   2.798444   2.423660
    18  C    7.051240   5.023868   1.399420   2.423660   2.798444
    19  H    6.973683   4.918970   1.086648   2.158757   3.408229
    20  H    6.278924   3.869994   2.158502   1.086806   2.158618
    21  H    6.278924   3.869994   3.408528   2.158618   1.086806
    22  H    6.973683   4.918970   3.885397   3.408229   2.158757
    23  H    7.613854   5.787384   3.408528   3.885249   3.408325
    24  H    7.613854   5.787384   2.158502   3.408325   3.885249
                   16         17         18         19         20
    16  C    0.000000
    17  C    1.399420   0.000000
    18  C    2.423593   1.398986   0.000000
    19  H    3.885397   3.408229   2.158757   0.000000
    20  H    3.408528   3.885249   3.408325   2.485822   0.000000
    21  H    2.158502   3.408325   3.885249   4.306031   2.486431
    22  H    1.086648   2.158757   3.408229   4.972022   4.306031
    23  H    2.158502   1.086806   2.158618   4.306031   4.972053
    24  H    3.408528   2.158618   1.086806   2.485822   4.305690
                   21         22         23         24
    21  H    0.000000
    22  H    2.485822   0.000000
    23  H    4.305690   2.485822   0.000000
    24  H    4.972053   4.306031   2.486431   0.000000
 Stoichiometry    C12H12
 Framework group  C2V[C2(HCCH),SGV(C4H4),SGV'(C2H2),X(C4H4)]
 Deg. of freedom    21
 Full point group                 C2V     NOp   4
 Largest Abelian subgroup         C2V     NOp   4
 Largest concise Abelian subgroup C2V     NOp   4
                         Standard orientation:                         
 ---------------------------------------------------------------------
 Center     Atomic      Atomic             Coordinates (Angstroms)
 Number     Number       Type             X           Y           Z
 ---------------------------------------------------------------------
      1          6           0        0.000000    0.000000    1.055888
      2          6           0        0.000000    1.210690    1.756432
      3          6           0        0.000000    1.212504    3.156109
      4          6           0        0.000000    0.000000    3.856439
      5          6           0        0.000000   -1.212504    3.156109
      6          6           0        0.000000   -1.210690    1.756432
      7          1           0        0.000000    0.000000   -0.027196
      8          1           0        0.000000    2.150288    1.209846
      9          1           0        0.000000    2.153648    3.699594
     10          1           0        0.000000    0.000000    4.943191
[...]
 00057957,-0.00040420,0.00050565,-0.00002320,0.00007405,-0.00000582,-0.
 00000943,0.00000923,-0.00003497,0.00000107,0.00000751,-0.00000711,-0.0
 0000017,-0.00001129,-0.00004104,0.00005006,0.00004115,0.00005873,-0.02
 992454,0.02290657,0.00045163,-0.02255135,-0.12110989,-0.00068610,0.026
 82753,0.73174033,0.00081141,0.00084991,0.00020913,-0.00025886,-0.00011
 385,-0.00036038,0.00007474,0.00010501,-0.00007883,-0.00003696,0.000038
 95,-0.00001065,0.00021264,0.00001405,0.00000235,-0.00046025,0.00003680
 ,0.00018897,0.00037063,0.00032042,-0.00140589,0.00001300,0.00001033,-0
 .00003137,-0.00001593,0.00001413,-0.00004534,-0.00000589,0.00000489,-0
 .00001818,-0.00003758,-0.00001685,-0.00000507,0.00001087,0.00007223,0.
 00017564,-0.00086882,-0.00064880,-0.00436763,0.00042714,-0.00068610,-0
 .04258737,0.00022311,0.00016176,0.10911260,0.00039313,0.,0.00029113,-0
 .00010464,-0.00000564,-0.00012735,0.00003781,0.00002665,-0.00003572,0.
 00002774,0.,-0.00004377,0.00003781,-0.00002665,-0.00003572,-0.00010464
 ,0.00000564,-0.00012735,-0.00078601,0.,0.00054624,-0.00002106,-0.00003
 061,0.00006298,0.00000098,0.00001768,-0.00003614,-0.00000169,0.,-0.000
 02286,0.00000098,-0.00001768,-0.00003614,-0.00002106,0.00003061,0.0000
 6298,-0.00027843,0.,-0.00067694,-0.02579188,0.02992454,0.00086882,-0.1
 8000452,0.12481317,-0.00114924,0.74811617,0.,-0.00057292,0.,0.00000953
 ,0.00010661,0.00016008,0.00005950,-0.00008577,0.00000689,0.,-0.0000133
 7,0.,-0.00005950,-0.00008577,-0.00000689,-0.00000953,0.00010661,-0.000
 16008,0.,0.00051577,0.,-0.00006343,-0.00009838,0.00008084,-0.00000508,
 0.00000128,0.00000809,0.,-0.00001150,0.,0.00000508,0.00000128,-0.00000
 809,0.00006343,-0.00009838,-0.00008084,0.,-0.04549355,0.,0.05437331,0.
 02290657,-0.00064880,0.07944460,-0.29763779,0.00043103,0.,0.68487641,0
 .00075444,0.,-0.00007775,0.00037720,-0.00017503,0.00004644,-0.00024906
 ,-0.00001037,0.00002305,0.00005786,0.,-0.00007303,-0.00024906,0.000010
 37,0.00002305,0.00037720,0.00017503,0.00004644,0.00033496,0.,-0.001364
 23,-0.00004221,0.00003028,0.00005229,0.00000397,0.00001295,-0.00001863
 ,0.00001477,0.,-0.00001657,0.00000397,-0.00001295,-0.00001863,-0.00004
 221,-0.00003028,0.00005229,0.00067694,0.,0.00025372,-0.00081625,0.0004
 5163,-0.00436763,-0.00023656,-0.00096977,-0.04014688,0.00257656,0.,0.1
 0628383,-0.00051788,-0.00042399,0.00028819,0.00007575,-0.00005040,0.00
 000603,-0.00006040,0.00002018,0.00002754,-0.00002041,-0.00004020,-0.00
 000908,0.00007808,-0.00003808,-0.00009039,0.00001125,-0.00002666,-0.00
 023433,0.00022636,0.00051922,0.00023491,0.00006217,-0.00005156,0.00003
 736,0.00000756,0.00000733,-0.00002025,-0.00000057,-0.00000072,-0.00000
 865,-0.00000751,-0.00000334,-0.00002776,-0.00003168,0.00004125,0.00000
 487,-0.02579188,0.05437331,0.00081625,-0.03409106,-0.01949068,-0.00022
 009,0.04710933,-0.01218837,-0.00042782,-0.18000452,-0.07944460,-0.0002
 3656,0.70037814,-0.00032621,-0.00007007,-0.00022121,-0.00017067,0.0001
 8491,0.00015392,0.00014840,-0.00005911,0.00002296,-0.00000088,0.000014
 59,0.00000274,0.00003035,0.00011850,0.00003767,-0.00008814,-0.00034441
 ,0.00006895,0.00057957,-0.00040420,-0.00050565,-0.00005006,0.00004115,
 -0.00005873,0.00000017,-0.00001129,0.00004104,-0.00000107,0.00000751,0
 .00000711,0.00000943,0.00000923,0.00003497,0.00002319,0.00007405,0.000
 00582,0.02992454,0.02290657,-0.00045163,-0.01949068,-0.01159115,0.0005
 2255,0.01218837,-0.05001569,-0.00122751,-0.12481317,-0.29763779,0.0009
 6978,-0.02682753,0.73174033,0.00081141,-0.00084991,0.00020913,-0.00046
 025,-0.00003680,0.00018897,0.00021264,-0.00001405,0.00000235,-0.000036
 95,-0.00003895,-0.00001065,0.00007474,-0.00010501,-0.00007883,-0.00025
 886,0.00011385,-0.00036038,0.00037063,-0.00032042,-0.00140589,0.000010
 87,-0.00007223,0.00017564,-0.00003758,0.00001685,-0.00000507,-0.000005
 89,-0.00000489,-0.00001818,-0.00001593,-0.00001413,-0.00004534,0.00001
 300,-0.00001033,-0.00003137,-0.00086882,0.00064881,-0.00436763,0.00022
 009,-0.00052255,0.00112993,-0.00042782,0.00122751,-0.00564672,-0.00114
 924,-0.00043103,-0.04014688,0.00022311,-0.00016176,0.10911259,-0.00051
 788,0.00042399,-0.00028819,0.00007575,0.00005040,-0.00000603,-0.000060
 40,-0.00002018,-0.00002754,-0.00002041,0.00004020,0.00000908,0.0000780
 8,0.00003808,0.00009039,0.00001125,0.00002666,0.00023433,0.00022636,-0
 .00051922,-0.00023491,0.00006217,0.00005156,-0.00003736,0.00000756,-0.
 00000733,0.00002025,-0.00000057,0.00000072,0.00000865,-0.00000751,0.00
 000334,0.00002776,-0.00003168,-0.00004125,-0.00000487,-0.18000452,0.07
 944460,0.00023656,0.04710933,0.01218837,0.00042782,-0.03409106,0.01949
 068,0.00022009,-0.02579188,-0.05437331,-0.00081625,-0.35642078,0.02255
 135,0.00042714,0.70037814,0.00032621,-0.00007008,-0.00022121,0.0001706
 7,0.00018491,0.00015392,-0.00014840,-0.00005911,0.00002296,0.00000088,
 0.00001459,0.00000274,-0.00003035,0.00011850,0.00003767,0.00008814,-0.
 00034441,0.00006895,-0.00057957,-0.00040420,-0.00050565,0.00005006,0.0
 0004115,-0.00005873,-0.00000017,-0.00001129,0.00004104,0.00000107,0.00
 000751,0.00000711,-0.00000943,0.00000923,0.00003497,-0.00002319,0.0000
 7405,0.00000583,0.12481317,-0.29763779,0.00096977,-0.01218837,-0.05001
 569,-0.00122751,0.01949068,-0.01159115,0.00052255,-0.02992454,0.022906
 57,-0.00045164,-0.02255134,-0.12110989,0.00068610,0.02682753,0.7317403
 3,-0.00081141,-0.00084991,0.00020913,0.00046025,-0.00003680,0.00018897
 ,-0.00021264,-0.00001405,0.00000235,0.00003696,-0.00003895,-0.00001065
 ,-0.00007474,-0.00010501,-0.00007883,0.00025886,0.00011385,-0.00036038
 ,-0.00037063,-0.00032042,-0.00140589,-0.00001087,-0.00007223,0.0001756
 4,0.00003758,0.00001685,-0.00000507,0.00000589,-0.00000489,-0.00001818
 ,0.00001593,-0.00001413,-0.00004534,-0.00001300,-0.00001033,-0.0000313
 7,0.00114924,-0.00043103,-0.04014688,0.00042782,0.00122751,-0.00564672
 ,-0.00022009,-0.00052255,0.00112993,0.00086882,0.00064881,-0.00436763,
 -0.00042714,0.00068610,-0.04258736,-0.00022311,-0.00016176,0.10911260,
 0.00006762,0.,0.00001545,0.00000527,0.00003759,-0.00002721,0.00001762,
 0.00000062,-0.00000847,-0.00000239,0.,-0.00000860,0.00001762,-0.000000
 62,-0.00000847,0.00000527,-0.00003759,-0.00002721,-0.00009755,0.,0.000
 07421,-0.00001941,-0.00000513,0.00000901,-0.00000741,0.00000083,-0.000
 00421,-0.00000373,0.,-0.00000138,-0.00000741,-0.00000083,-0.00000421,-
 0.00001941,0.00000513,0.00000901,-0.34717849,0.,0.00137814,-0.01015679
 ,0.00440941,0.00023422,0.00063111,-0.00301923,-0.00008395,0.00081589,0
 .,0.00012337,0.00063111,0.00301923,-0.00008395,-0.01015679,-0.00440941
 ,0.00023422,0.36520943,0.,0.00004568,0.,-0.00003144,0.00000825,-0.0000
 1993,-0.00000076,-0.00000029,0.00000266,0.,-0.00000812,0.,0.00000076,-
 0.00000029,-0.00000266,0.00003144,0.00000825,0.00001993,0.,-0.00006997
 ,0.,0.00002534,-0.00000784,-0.00000808,0.00000371,-0.00000135,0.000002
 23,0.,-0.00000060,0.,-0.00000371,-0.00000135,-0.00000223,-0.00002534,-
 0.00000784,0.00000808,0.,-0.05752216,0.,-0.02836105,0.00439686,0.00016
 653,-0.00266319,-0.00467623,-0.00004728,0.,-0.00187519,0.,0.00266319,-
 0.00467623,0.00004728,0.02836105,0.00439686,-0.00016653,0.,0.05763760,
 0.00016127,0.,-0.00002721,0.00000300,0.00005677,-0.00000085,0.00002967
 ,0.00000269,-0.00000252,-0.00002313,0.,-0.00001337,0.00002967,-0.00000
 269,-0.00000252,0.00000300,-0.00005677,-0.00000085,-0.00008643,0.,0.00
 014952,-0.00001637,0.00002335,-0.00000017,-0.00001189,-0.00000391,0.00
 000459,0.00000296,0.,0.00000521,-0.00001189,0.00000391,0.00000459,-0.0
 0001637,-0.00002335,-0.00000017,0.00189399,0.,-0.03241355,-0.00007807,
 0.00005093,0.00085381,-0.00005990,-0.00010643,0.00770792,0.00009949,0.
 ,-0.00082954,-0.00005990,0.00010643,0.00770792,-0.00007807,-0.00005093
 ,0.00085381,-0.00168001,0.,0.02409276,0.00003850,-0.00000070,0.0000380
 3,0.00001582,-0.00003189,-0.00002084,0.00000374,0.00000085,0.00000727,
 -0.00002285,-0.00000230,0.00001926,0.00003184,-0.00006198,-0.00000318,
 -0.00002643,0.00013866,-0.00003960,-0.00007897,0.00000873,0.00003361,-
 0.00001031,-0.00001044,0.00000019,0.00000061,-0.00000244,-0.00000142,0
 .00000028,-0.00000712,0.00000453,0.00000392,0.00000165,-0.00000929,-0.
 00002644,-0.00003480,-0.00005251,0.01114569,-0.01600781,0.00036158,-0.
 12980912,0.12518765,-0.00044621,-0.00959563,0.02868988,0.00033536,-0.0
 0581654,-0.00105867,-0.00025590,-0.00120303,-0.00116288,0.00021615,-0.
 00086850,-0.00354950,-0.00021815,0.00079387,0.00046449,-0.00003065,0.1
 3441035,-0.00003439,0.00002166,-0.00004096,-0.00000036,-0.00002135,0.0
 0002000,-0.00001633,0.00000842,-0.00001127,0.00003273,0.00000807,-0.00
 000911,-0.00007732,0.00005228,0.00003958,0.00003284,-0.00008607,0.0000
 5349,0.00002333,-0.00008456,-0.00006294,0.00000026,0.00002313,-0.00001
 506,0.00000186,0.00000098,0.00000004,0.00000368,0.00000765,-0.00000110
 ,0.00000424,0.00000062,0.00000803,0.00005873,0.00004745,0.00003564,0.0
 1676503,-0.01692982,-0.00024986,0.12510038,-0.27434865,0.00024604,-0.0
 0406252,0.00380358,-0.00025195,-0.00067123,0.00178556,0.00019518,-0.00
 119032,0.00016028,-0.00014815,-0.00390147,-0.00318909,0.00015043,-0.00
 013435,0.00098883,0.00004726,-0.13300605,0.28799673,0.00009343,-0.0000
 1588,0.00005354,0.00004788,0.00001975,-0.00003133,-0.00002947,0.000003
 60,0.00003672,0.00001092,-0.00002587,0.00003356,0.00003899,-0.00009919
 ,-0.00006350,-0.00004061,0.00016821,-0.00006577,-0.00009633,0.00006593
 ,0.00012140,-0.00000338,-0.00002295,0.00000770,-0.00000137,-0.00000832
 ,0.00000746,-0.00000511,-0.00001011,0.00001287,-0.00000418,0.00000490,
 -0.00000871,-0.00006982,-0.00009054,-0.00007034,-0.00009556,-0.0000874
 6,0.00105909,0.00002903,-0.00001289,-0.03317715,0.00005244,0.00006536,
 0.00159246,-0.00011684,-0.00000167,0.00747083,0.00004918,-0.00006604,-
 0.00084782,0.00002695,0.00013588,0.00775646,-0.00006821,-0.00002999,-0
 .00366146,0.00011379,-0.00002597,0.02445353,0.00003850,0.00000070,-0.0
 0003803,0.00001582,0.00003189,0.00002084,0.00000373,-0.00000085,-0.000
 00727,-0.00002285,0.00000230,-0.00001926,0.00003184,0.00006198,0.00000
 318,-0.00002643,-0.00013866,0.00003960,-0.00007897,-0.00000873,-0.0000
 3361,-0.00001031,0.00001044,-0.00000019,0.00000061,0.00000244,0.000001
 42,0.00000028,0.00000712,-0.00000453,0.00000392,-0.00000165,0.00000929
 ,-0.00002644,0.00003480,0.00005251,-0.00581654,0.00105867,0.00025590,-
 0.00959563,-0.02868988,-0.00033536,-0.12980912,-0.12518765,0.00044621,
 0.01114569,0.01600781,-0.00036158,-0.00086850,0.00354950,0.00021815,-0
 .00120303,0.00116288,-0.00021615,-0.00063507,-0.00153797,-0.00002743,0
 .00106674,0.00031370,0.00006157,0.13441035,0.00003439,0.00002166,-0.00
 004096,0.00000036,-0.00002135,0.00002000,0.00001633,0.00000842,-0.0000
 1127,-0.00003273,0.00000807,-0.00000911,0.00007732,0.00005228,0.000039
 58,-0.00003284,-0.00008607,0.00005349,-0.00002333,-0.00008456,-0.00006
 294,-0.00000026,0.00002313,-0.00001506,-0.00000186,0.00000098,0.000000
 04,-0.00000368,0.00000765,-0.00000110,-0.00000424,0.00000062,0.0000080
 3,-0.00005873,0.00004745,0.00003564,0.00067123,0.00178556,0.00019518,0
 .00406252,0.00380358,-0.00025195,-0.12510038,-0.27434865,0.00024604,-0
 .01676503,-0.01692982,-0.00024986,0.00390147,-0.00318909,0.00015043,0.
 00119032,0.00016028,-0.00014815,0.00025499,0.00009725,-0.00001165,-0.0
 0031370,0.00069136,0.00002841,0.13300605,0.28799673,-0.00009343,-0.000
 01588,0.00005354,-0.00004788,0.00001975,-0.00003133,0.00002947,0.00000
 360,0.00003672,-0.00001092,-0.00002587,0.00003356,-0.00003899,-0.00009
 919,-0.00006350,0.00004061,0.00016821,-0.00006577,0.00009633,0.0000659
 3,0.00012140,0.00000338,-0.00002295,0.00000770,0.00000137,-0.00000832,
 0.00000746,0.00000511,-0.00001011,0.00001287,0.00000418,0.00000490,-0.
 00000871,0.00006982,-0.00009054,-0.00007034,0.00011684,-0.00000167,0.0
 0747083,-0.00005244,0.00006536,0.00159246,-0.00002903,-0.00001289,-0.0
 3317715,0.00009556,-0.00008746,0.00105909,-0.00002695,0.00013588,0.007
 75646,-0.00004918,-0.00006604,-0.00084782,0.00000580,0.00000876,0.0003
 2122,-0.00006157,0.00002841,-0.00388142,-0.00011379,-0.00002597,0.0244
 5353,0.00006762,0.,-0.00001545,0.00000527,-0.00003759,0.00002721,0.000
 01762,-0.00000062,0.00000847,-0.00000239,0.,0.00000860,0.00001762,0.00
 000062,0.00000847,0.00000527,0.00003759,0.00002721,-0.00009755,0.,-0.0
 0007421,-0.00001941,0.00000513,-0.00000901,-0.00000741,-0.00000083,0.0
 0000421,-0.00000373,0.,0.00000138,-0.00000741,0.00000083,0.00000421,-0
 .00001941,-0.00000513,-0.00000901,0.00081589,0.,-0.00012337,0.00063111
 ,0.00301923,0.00008395,-0.01015679,-0.00440941,-0.00023422,-0.34717849
 ,0.,-0.00137814,-0.01015679,0.00440941,-0.00023422,0.00063111,-0.00301
 923,0.00008395,-0.00006914,0.,0.00001515,-0.00063507,-0.00025499,-0.00
 000580,0.00079386,0.00013435,0.00006821,0.36520943,0.,0.00004568,0.,0.
 00003144,0.00000825,-0.00001993,0.00000076,-0.00000029,0.00000266,0.,-
 0.00000812,0.,-0.00000076,-0.00000029,-0.00000266,-0.00003144,0.000008
 25,0.00001993,0.,-0.00006997,0.,-0.00002534,-0.00000784,-0.00000808,-0
 .00000371,-0.00000135,0.00000223,0.,-0.00000060,0.,0.00000371,-0.00000
 135,-0.00000223,0.00002534,-0.00000784,0.00000808,0.,-0.00187519,0.,0.
 00266319,-0.00467623,-0.00004728,0.02836105,0.00439686,0.00016653,0.,-
 0.05752216,0.,-0.02836105,0.00439686,-0.00016653,-0.00266319,-0.004676
 23,0.00004728,0.,0.00018175,0.,0.00153797,0.00009725,0.00000876,-0.000
 46449,0.00098883,-0.00002999,0.,0.05763760,-0.00016127,0.,-0.00002721,
 -0.00000300,0.00005677,-0.00000085,-0.00002967,0.00000269,-0.00000252,
 0.00002313,0.,-0.00001337,-0.00002967,-0.00000269,-0.00000252,-0.00000
 300,-0.00005677,-0.00000085,0.00008643,0.,0.00014952,0.00001637,0.0000
 2335,-0.00000017,0.00001189,-0.00000391,0.00000459,-0.00000296,0.,0.00
 000521,0.00001189,0.00000391,0.00000459,0.00001637,-0.00002335,-0.0000
 0017,-0.00009949,0.,-0.00082954,0.00005990,-0.00010643,0.00770792,0.00
 007807,0.00005093,0.00085381,-0.00189399,0.,-0.03241355,0.00007807,-0.
 00005093,0.00085381,0.00005990,0.00010643,0.00770792,-0.00001515,0.,-0
 .00140888,0.00002743,-0.00001165,0.00032122,0.00003065,0.00004726,-0.0
 0366146,0.00168001,0.,0.02409275,0.00003850,-0.00000070,-0.00003803,-0
 .00002643,0.00013866,0.00003960,0.00003184,-0.00006198,0.00000318,-0.0
 0002285,-0.00000230,-0.00001926,0.00000373,0.00000085,-0.00000727,0.00
 001582,-0.00003189,0.00002084,-0.00007897,0.00000873,-0.00003361,-0.00
 002644,-0.00003480,0.00005251,0.00000392,0.00000165,0.00000929,0.00000
 028,-0.00000712,-0.00000453,0.00000061,-0.00000244,0.00000142,-0.00001
 031,-0.00001044,-0.00000019,-0.00581654,-0.00105867,0.00025590,-0.0012
 0303,-0.00116288,-0.00021615,-0.00086850,-0.00354950,0.00021815,0.0111
 4569,-0.01600781,-0.00036158,-0.12980912,0.12518765,0.00044621,-0.0095
 9563,0.02868988,-0.00033536,-0.00063507,0.00153797,-0.00002743,0.00011
 621,0.00011647,0.00001519,0.00046532,-0.00089607,0.00000270,0.00079386
 ,0.00046449,0.00003065,0.13441035,-0.00003439,0.00002166,0.00004096,0.
 00003284,-0.00008607,-0.00005349,-0.00007733,0.00005228,-0.00003958,0.
 00003273,0.00000807,0.00000911,-0.00001633,0.00000842,0.00001127,-0.00
 000036,-0.00002135,-0.00002000,0.00002333,-0.00008456,0.00006294,0.000
 05873,0.00004745,-0.00003564,0.00000424,0.00000062,-0.00000803,0.00000
 368,0.00000765,0.00000110,0.00000186,0.00000098,-0.00000004,0.00000026
 ,0.00002313,0.00001506,-0.00067123,0.00178556,-0.00019518,-0.00119032,
 0.00016028,0.00014815,-0.00390147,-0.00318909,-0.00015043,0.01676503,-
 0.01692982,0.00024986,0.12510038,-0.27434865,-0.00024604,-0.00406252,0
 .00380358,0.00025195,-0.00025499,0.00009725,0.00001165,0.00011647,-0.0
 0000923,-0.00000734,0.00089607,-0.00102508,0.00000343,-0.00013435,0.00
 098883,-0.00004726,-0.13300605,0.28799673,-0.00009343,0.00001589,0.000
 05354,0.00004061,-0.00016821,-0.00006577,-0.00003899,0.00009919,-0.000
 06350,-0.00001092,0.00002587,0.00003356,0.00002947,-0.00000360,0.00003
 672,-0.00004788,-0.00001975,-0.00003133,0.00009633,-0.00006593,0.00012
 140,0.00006982,0.00009054,-0.00007034,0.00000418,-0.00000490,-0.000008
 71,0.00000511,0.00001011,0.00001287,0.00000137,0.00000832,0.00000746,0
 .00000338,0.00002295,0.00000770,0.00011684,0.00000167,0.00747083,-0.00
 004918,0.00006604,-0.00084782,-0.00002695,-0.00013588,0.00775646,0.000
 09556,0.00008746,0.00105909,-0.00002903,0.00001289,-0.03317715,-0.0000
 5244,-0.00006536,0.00159246,0.00000580,-0.00000876,0.00032122,-0.00001
 519,0.00000734,-0.00138415,0.00000270,-0.00000343,0.00026481,0.0000682
 1,0.00002999,-0.00366146,-0.00011379,0.00002597,0.02445353,0.00003850,
 0.00000070,0.00003803,-0.00002643,-0.00013866,-0.00003960,0.00003184,0
 .00006198,-0.00000318,-0.00002285,0.00000230,0.00001926,0.00000373,-0.
 00000085,0.00000727,0.00001582,0.00003189,-0.00002084,-0.00007897,-0.0
 0000873,0.00003361,-0.00002644,0.00003480,-0.00005251,0.00000392,-0.00
 000165,-0.00000929,0.00000028,0.00000712,0.00000453,0.00000061,0.00000
 244,-0.00000142,-0.00001031,0.00001044,0.00000019,0.01114569,0.0160078
 1,0.00036158,-0.00086850,0.00354950,-0.00021815,-0.00120303,0.00116288
 ,0.00021615,-0.00581654,0.00105867,-0.00025590,-0.00959563,-0.02868988
 ,0.00033536,-0.12980912,-0.12518765,-0.00044621,0.00079387,-0.00046449
 ,-0.00003065,0.00046532,0.00089607,-0.00000270,0.00011621,-0.00011647,
 -0.00001519,-0.00063507,-0.00153797,0.00002743,0.00106674,0.00031370,-
 0.00006157,0.13441035,0.00003439,0.00002166,0.00004096,-0.00003284,-0.
 00008607,-0.00005349,0.00007733,0.00005228,-0.00003958,-0.00003273,0.0
 0000807,0.00000911,0.00001633,0.00000842,0.00001127,0.00000036,-0.0000
 2135,-0.00002000,-0.00002333,-0.00008456,0.00006294,-0.00005873,0.0000
 4746,-0.00003564,-0.00000424,0.00000062,-0.00000803,-0.00000368,0.0000
 0765,0.00000110,-0.00000186,0.00000098,-0.00000003,-0.00000026,0.00002
 313,0.00001506,-0.01676503,-0.01692982,0.00024986,0.00390147,-0.003189
 09,-0.00015043,0.00119031,0.00016028,0.00014815,0.00067123,0.00178556,
 -0.00019518,0.00406252,0.00380358,0.00025195,-0.12510038,-0.27434865,-
 0.00024604,0.00013435,0.00098883,-0.00004726,-0.00089607,-0.00102508,0
 .00000343,-0.00011647,-0.00000923,-0.00000734,0.00025499,0.00009725,0.
 00001165,-0.00031370,0.00069136,-0.00002841,0.13300605,0.28799673,0.00
 009343,0.00001589,0.00005354,-0.00004061,-0.00016821,-0.00006577,0.000
 03899,0.00009919,-0.00006350,0.00001092,0.00002587,0.00003356,-0.00002
 947,-0.00000360,0.00003672,0.00004788,-0.00001975,-0.00003133,-0.00009
 633,-0.00006593,0.00012140,-0.00006982,0.00009054,-0.00007034,-0.00000
 418,-0.00000490,-0.00000871,-0.00000511,0.00001011,0.00001287,-0.00000
 137,0.00000832,0.00000746,-0.00000338,0.00002295,0.00000770,-0.0000955
 6,0.00008746,0.00105909,0.00002695,-0.00013588,0.00775646,0.00004918,0
 .00006604,-0.00084782,-0.00011684,0.00000167,0.00747083,0.00005244,-0.
 00006536,0.00159246,0.00002903,0.00001289,-0.03317715,-0.00006821,0.00
 002999,-0.00366146,-0.00000270,-0.00000343,0.00026481,0.00001519,0.000
 00734,-0.00138415,-0.00000580,-0.00000876,0.00032122,0.00006157,-0.000
 02841,-0.00388142,0.00011379,0.00002597,0.02445353\\0.,0.,0.00000088,0
 .,-0.00000685,-0.00003844,0.,-0.00000664,0.00002731,0.,0.,0.00002973,0
 .,0.00000664,0.00002731,0.,0.00000685,-0.00003844,0.,0.,0.00000074,0.,
 0.00000140,0.00000485,0.,-0.00000058,-0.00000482,0.,0.,-0.00000141,0.,
 0.00000058,-0.00000482,0.,-0.00000140,0.00000485,0.00002946,0.,-0.0000
 3761,-0.00008270,0.00000658,0.00000567,0.00008270,0.00000658,0.0000056
 7,-0.00002946,0.,-0.00003761,0.00008270,-0.00000658,0.00000567,-0.0000
 8270,-0.00000658,0.00000567,-0.00000339,0.,0.00001179,0.00000388,-0.00
 000289,0.00000530,-0.00000388,-0.00000289,0.00000530,0.00000339,0.,0.0
 0001179,-0.00000388,0.00000289,0.00000530,0.00000388,0.00000289,0.0000
 0530\\\@


 WISDOM IS KNOWING WHAT TO DO,
 SKILL IS KNOWING HOW TO DO IT,
 AND VIRTUE IS NOT DOING IT.
 Job cpu time:       3 days 22 hours 51 minutes 53.5 seconds.
 File lengths (MBytes):  RWF=  53943 Int=      0 D2E=      0 Chk=     56 Scr=      1
 Normal termination of Gaussian 09 at Wed Oct 12 00:09:11 2016.
