 Entering Gaussian System, Link 0=g09
 Initial command:
 /share/sw/gaussian/D.01/g09/l1.exe "/local/scratch/epluhar/Gau-27477.inp" -scrdir="/local/scratch/epluhar/"
 Entering Link 1 = /share/sw/gaussian/D.01/g09/l1.exe PID=     27484.
  
 Copyright (c) 1988,1990,1992,1993,1995,1998,2003,2009,2013,
            Gaussian, Inc.  All Rights Reserved.
  
 This is part of the Gaussian(R) 09 program.  It is based on
 the Gaussian(R) 03 system (copyright 2003, Gaussian, Inc.),
 the Gaussian(R) 98 system (copyright 1998, Gaussian, Inc.),
 the Gaussian(R) 94 system (copyright 1995, Gaussian, Inc.),
 the Gaussian 92(TM) system (copyright 1992, Gaussian, Inc.),
 the Gaussian 90(TM) system (copyright 1990, Gaussian, Inc.),
 the Gaussian 88(TM) system (copyright 1988, Gaussian, Inc.),
 the Gaussian 86(TM) system (copyright 1986, Carnegie Mellon
 University), and the Gaussian 82(TM) system (copyright 1983,
 Carnegie Mellon University). Gaussian is a federally registered
 trademark of Gaussian, Inc.
  
 This software contains proprietary and confidential information,
 including trade secrets, belonging to Gaussian, Inc.
  
 This software is provided under written license and may be
 used, copied, transmitted, or stored only in accord with that
 written license.
  
 The following legend is applicable only to US Government
 contracts under FAR:
  
                    RESTRICTED RIGHTS LEGEND
  
 Use, reproduction and disclosure by the US Government is
 subject to restrictions as set forth in subparagraphs (a)
 and (c) of the Commercial Computer Software - Restricted
 Rights clause in FAR 52.227-19.
  
 Gaussian, Inc.
 340 Quinnipiac St., Bldg. 40, Wallingford CT 06492
  
  
 ---------------------------------------------------------------
 Warning -- This program may not be used in any manner that
 competes with the business of Gaussian, Inc. or will provide
 assistance to any competitor of Gaussian, Inc.  The licensee
 of this program is prohibited from giving any competitor of
 Gaussian, Inc. access to this program.  By using this program,
 the user acknowledges that Gaussian, Inc. is engaged in the
 business of creating and licensing software in the field of
 computational chemistry and represents and warrants to the
 licensee that it is not a competitor of Gaussian, Inc. and that
 it will not use this program in any manner prohibited above.
 ---------------------------------------------------------------
  

 Cite this work as:
 Gaussian 09, Revision D.01,
 M. J. Frisch, G. W. Trucks, H. B. Schlegel, G. E. Scuseria, 
 M. A. Robb, J. R. Cheeseman, G. Scalmani, V. Barone, B. Mennucci, 
 G. A. Petersson, H. Nakatsuji, M. Caricato, X. Li, H. P. Hratchian, 
 A. F. Izmaylov, J. Bloino, G. Zheng, J. L. Sonnenberg, M. Hada, 
 M. Ehara, K. Toyota, R. Fukuda, J. Hasegawa, M. Ishida, T. Nakajima, 
 Y. Honda, O. Kitao, H. Nakai, T. Vreven, J. A. Montgomery, Jr., 
 J. E. Peralta, F. Ogliaro, M. Bearpark, J. J. Heyd, E. Brothers, 
 K. N. Kudin, V. N. Staroverov, T. Keith, R. Kobayashi, J. Normand, 
 K. Raghavachari, A. Rendell, J. C. Burant, S. S. Iyengar, J. Tomasi, 
 M. Cossi, N. Rega, J. M. Millam, M. Klene, J. E. Knox, J. B. Cross, 
 V. Bakken, C. Adamo, J. Jaramillo, R. Gomperts, R. E. Stratmann, 
 O. Yazyev, A. J. Austin, R. Cammi, C. Pomelli, J. W. Ochterski, 
 R. L. Martin, K. Morokuma, V. G. Zakrzewski, G. A. Voth, 
 P. Salvador, J. J. Dannenberg, S. Dapprich, A. D. Daniels, 
 O. Farkas, J. B. Foresman, J. V. Ortiz, J. Cioslowski, 
 and D. J. Fox, Gaussian, Inc., Wallingford CT, 2013.
 
 ******************************************
 Gaussian 09:  ES64L-G09RevD.01 24-Apr-2013
                13-Oct-2016 
 ******************************************
 %mem=6GB
 %nprocshared=2
 Will use up to    2 processors via shared memory.
 %chk=H20Aggmp2
 ------------------------------------------------------
 # opt freq=raman mp2(full)/6-311+g** geom=connectivity
 ------------------------------------------------------
 1/18=20,19=15,38=1,57=2/1,3;
 2/9=110,12=2,17=6,18=5,40=1/2;
 3/5=4,6=6,7=111,11=9,16=1,25=1,30=1,71=1/1,2,3;
 4//1;
 5/5=2,38=5/2;
 8/6=4,10=90/1;
 9/15=2,16=-3/6;
 10/5=1/2;
 6/7=2,8=2,9=2,10=2/1;
 7/12=2/1,2,3,16;
 1/18=20,19=15/3(2);
 2/9=110/2;
 99//99;
 2/9=110/2;
 3/5=4,6=6,7=111,11=9,16=1,25=1,30=1,71=1/1,2,3;
 4/5=5,16=3,69=1/1;
 5/5=2,38=5/2;
 8/6=4,10=90/1;
 9/15=2,16=-3/6;
 10/5=1/2;
 7/12=2/1,2,3,16;
 1/18=20,19=15/3(-8);
 2/9=110/2;
 6/7=2,8=2,9=2,10=2/1;
 99//99;
 -------------------
 Title Card Required
 -------------------
 Symbolic Z-matrix:
 Charge =  0 Multiplicity = 1
 O
 H                    1    B1
 H                    1    B2       2    A1
 O                    1    B3       2    A2       3    D1       0
 H                    4    B4       1    A3       2    D2       0
 H                    4    B5       1    A4       2    D3       0
       Variables:
  B1                    0.96                     
  B2                    0.96                     
  B3                    2.36964                  
  B4                    0.96                     
  B5                    0.96                     
  A1                  109.5                      
  A2                    1.21094                  
  A3                  169.42556                  
  A4                   81.07444                  
  D1                    0.                       
  D2                  180.                       
  D3                    0.                       
 

 GradGradGradGradGradGradGradGradGradGradGradGradGradGradGradGradGradGrad
 Berny optimization.
 Initialization pass.
                           ----------------------------
                           !    Initial Parameters    !
                           ! (Angstroms and Degrees)  !
 --------------------------                            --------------------------
 ! Name  Definition              Value          Derivative Info.                !
 --------------------------------------------------------------------------------
 ! R1    R(1,2)                  0.96           estimate D2E/DX2                !
 ! R2    R(1,3)                  0.96           estimate D2E/DX2                !
 ! R3    R(2,4)                  1.41           estimate D2E/DX2                !
 ! R4    R(4,5)                  0.96           estimate D2E/DX2                !
 ! R5    R(4,6)                  0.96           estimate D2E/DX2                !
 ! A1    A(2,1,3)              109.5            estimate D2E/DX2                !
 ! A2    A(2,4,6)               80.25           estimate D2E/DX2                !
 ! A3    A(5,4,6)              109.5            estimate D2E/DX2                !
 ! A4    L(1,2,4,3,-1)         177.9646         estimate D2E/DX2                !
 ! A5    L(2,4,5,6,-1)         189.75           estimate D2E/DX2                !
 ! A6    L(1,2,4,3,-2)         180.0            estimate D2E/DX2                !
 ! A7    L(2,4,5,6,-2)         180.0            estimate D2E/DX2                !
 ! D1    D(3,1,4,6)            180.0            estimate D2E/DX2                !
 ! D2    D(2,4,5,6)            180.0            estimate D2E/DX2                !
 --------------------------------------------------------------------------------
 Trust Radius=3.00D-01 FncErr=1.00D-07 GrdErr=1.00D-07
 Number of steps in this run=     24 maximum allowed number of steps=    100.
 GradGradGradGradGradGradGradGradGradGradGradGradGradGradGradGradGradGrad

                          Input orientation:                          
 ---------------------------------------------------------------------
 Center     Atomic      Atomic             Coordinates (Angstroms)
 Number     Number       Type             X           Y           Z
 ---------------------------------------------------------------------
      1          8           0        0.000000    0.000000    0.000000
      2          1           0        0.000000    0.000000    0.960000
      3          1           0        0.904936    0.000000   -0.320455
      4          8           0        0.050078    0.000000    2.369110
      5          1           0        0.246155    0.000000    3.308873
      6          1           0       -0.901233    0.000000    2.240241
 ---------------------------------------------------------------------
                    Distance matrix (angstroms):
                    1          2          3          4          5
     1  O    0.000000
     2  H    0.960000   0.000000
     3  H    0.960000   1.567952   0.000000
     4  O    2.369640   1.410000   2.822152   0.000000
     5  H    3.318017   2.361736   3.688633   0.960000   0.000000
     6  H    2.414726   1.565643   3.133593   0.960000   1.567952
                    6
     6  H    0.000000
 Stoichiometry    H4O2
 Framework group  CS[SG(H4O2)]
 Deg. of freedom     9
 Full point group                 CS      NOp   2
 Largest Abelian subgroup         CS      NOp   2
 Largest concise Abelian subgroup C1      NOp   1
                         Standard orientation:                         
 ---------------------------------------------------------------------
 Center     Atomic      Atomic             Coordinates (Angstroms)
 Number     Number       Type             X           Y           Z
 ---------------------------------------------------------------------
      1          8           0       -0.005951   -1.257484    0.000000
      2          1           0       -0.026239   -0.297698    0.000000
      3          1           0        0.905555   -1.558742    0.000000
      4          8           0       -0.005951    1.112156    0.000000
      5          1           0        0.170221    2.055853    0.000000
      6          1           0       -0.954326    0.963211    0.000000
 ---------------------------------------------------------------------
 Rotational constants (GHZ):    297.5411786      9.5627892      9.2650172
 Standard basis: 6-311+G(d,p) (5D, 7F)
 There are    54 symmetry adapted cartesian basis functions of A'  symmetry.
 There are    16 symmetry adapted cartesian basis functions of A"  symmetry.
 There are    52 symmetry adapted basis functions of A'  symmetry.
 There are    16 symmetry adapted basis functions of A"  symmetry.
    68 basis functions,   104 primitive gaussians,    70 cartesian basis functions
    10 alpha electrons       10 beta electrons
       nuclear repulsion energy        41.0123592975 Hartrees.
 NAtoms=    6 NActive=    6 NUniq=    6 SFac= 1.00D+00 NAtFMM=   60 NAOKFM=F Big=F
 Integral buffers will be    131072 words long.
 Raffenetti 1 integral format.
 Two-electron integral symmetry is turned on.
 One-electron integrals computed using PRISM.
 NBasis=    68 RedAO= T EigKep=  1.54D-03  NBF=    52    16
 NBsUse=    68 1.00D-06 EigRej= -1.00D+00 NBFU=    52    16
 ExpMin= 8.45D-02 ExpMax= 8.59D+03 ExpMxC= 1.30D+03 IAcc=2 IRadAn=         4 AccDes= 0.00D+00
 Harris functional with IExCor=  205 and IRadAn=       4 diagonalized for initial guess.
 HarFok:  IExCor=  205 AccDes= 0.00D+00 IRadAn=         4 IDoV= 1 UseB2=F ITyADJ=14
 ICtDFT=  3500011 ScaDFX=  1.000000  1.000000  1.000000  1.000000
 FoFCou: FMM=F IPFlag=           0 FMFlag=      100000 FMFlg1=           0
         NFxFlg=           0 DoJE=T BraDBF=F KetDBF=T FulRan=T
         wScrn=  0.000000 ICntrl=     500 IOpCl=  0 I1Cent=   200000004 NGrid=           0
         NMat0=    1 NMatS0=      1 NMatT0=    0 NMatD0=    1 NMtDS0=    0 NMtDT0=    0
 Petite list used in FoFCou.
 Initial guess orbital symmetries:
       Occupied  (A') (A') (A') (A') (A') (A') (A') (A') (A") (A")
       Virtual   (A') (A') (A') (A") (A') (A') (A') (A") (A') (A')
                 (A') (A') (A') (A') (A') (A') (A') (A") (A') (A')
                 (A") (A') (A") (A') (A") (A') (A') (A") (A') (A")
                 (A') (A') (A') (A') (A') (A') (A') (A') (A') (A")
                 (A') (A") (A") (A") (A') (A') (A') (A') (A') (A')
                 (A") (A") (A') (A') (A') (A') (A') (A')
 The electronic state of the initial guess is 1-A'.
 Keep R1 ints in memory in symmetry-blocked form, NReq=4286288.
 Requested convergence on RMS density matrix=1.00D-08 within 128 cycles.
 Requested convergence on MAX density matrix=1.00D-06.
 Requested convergence on             energy=1.00D-06.
 No special actions if energy rises.
 SCF Done:  E(RHF) =  -152.085143677     A.U. after   11 cycles
            NFock= 11  Conv=0.52D-08     -V/T= 1.9997
 Range of M.O.s used for correlation:     1    68
 NBasis=    68 NAE=    10 NBE=    10 NFC=     0 NFV=     0
 NROrb=     68 NOA=    10 NOB=    10 NVA=    58 NVB=    58

 **** Warning!!: The largest alpha MO coefficient is  0.12993458D+02

 Fully direct method using O(ONN) memory.
 JobTyp=1 Pass  1:  I=   1 to  10 NPSUse=  2 ParTrn=T ParDer=T DoDerP=T.
 Spin components of T(2) and E(2):
     alpha-alpha T2 =       0.1439781349D-01 E2=     -0.6018487121D-01
     alpha-beta  T2 =       0.8194168995D-01 E2=     -0.3662918880D+00
     beta-beta   T2 =       0.1439781349D-01 E2=     -0.6018487121D-01
 ANorm=    0.1053915232D+01
 E2 =    -0.4866616305D+00 EUMP2 =    -0.15257180530748D+03
          IDoAtm=111111
          Differentiating once with respect to electric field.
                with respect to dipole field.
          Differentiating once with respect to nuclear coordinates.
 Keep R1 ints in memory in symmetry-blocked form, NReq=4253041.
          There are     1 degrees of freedom in the 1st order CPHF.  IDoFFX=0 NUNeed=     1.
 LinEq1:  Iter=  0 NonCon=     1 RMS=5.81D-03 Max=6.19D-02 NDo=     1
 AX will form     1 AO Fock derivatives at one time.
 LinEq1:  Iter=  1 NonCon=     1 RMS=5.58D-04 Max=3.84D-03 NDo=     1
 LinEq1:  Iter=  2 NonCon=     1 RMS=8.55D-05 Max=9.14D-04 NDo=     1
 LinEq1:  Iter=  3 NonCon=     1 RMS=2.31D-05 Max=1.40D-04 NDo=     1
 LinEq1:  Iter=  4 NonCon=     1 RMS=5.92D-06 Max=3.90D-05 NDo=     1
 LinEq1:  Iter=  5 NonCon=     1 RMS=1.44D-06 Max=8.43D-06 NDo=     1
 LinEq1:  Iter=  6 NonCon=     1 RMS=4.13D-07 Max=3.16D-06 NDo=     1
 LinEq1:  Iter=  7 NonCon=     1 RMS=1.68D-07 Max=9.13D-07 NDo=     1
 LinEq1:  Iter=  8 NonCon=     1 RMS=2.61D-08 Max=1.86D-07 NDo=     1
 LinEq1:  Iter=  9 NonCon=     1 RMS=4.78D-09 Max=3.34D-08 NDo=     1
 LinEq1:  Iter= 10 NonCon=     1 RMS=8.21D-10 Max=6.29D-09 NDo=     1
 LinEq1:  Iter= 11 NonCon=     1 RMS=1.06D-10 Max=5.35D-10 NDo=     1
 LinEq1:  Iter= 12 NonCon=     0 RMS=1.49D-11 Max=9.70D-11 NDo=     1
 Linear equations converged to 1.000D-10 1.000D-09 after    12 iterations.
 End of Minotr F.D. properties file   721 does not exist.
 End of Minotr F.D. properties file   722 does not exist.
 End of Minotr F.D. properties file   788 does not exist.

 **********************************************************************

            Population analysis using the SCF density.

 **********************************************************************

 Orbital symmetries:
       Occupied  (A') (A') (A') (A') (A') (A') (A') (A") (A') (A")
       Virtual   (A') (A') (A') (A') (A") (A') (A') (A") (A') (A')
                 (A') (A') (A') (A') (A') (A') (A') (A") (A') (A')
                 (A") (A') (A") (A') (A") (A') (A") (A') (A') (A")
                 (A') (A') (A') (A') (A') (A') (A') (A') (A') (A')
                 (A") (A") (A") (A') (A") (A') (A') (A') (A') (A')
                 (A") (A") (A') (A') (A') (A') (A') (A')
 The electronic state is 1-A'.
 Alpha  occ. eigenvalues --  -20.60426 -20.50713  -1.41008  -1.30262  -0.80425
 Alpha  occ. eigenvalues --   -0.69896  -0.61605  -0.55953  -0.51212  -0.45914
 Alpha virt. eigenvalues --    0.11593   0.16530   0.19727   0.22838   0.23009
 Alpha virt. eigenvalues --    0.25158   0.27204   0.29594   0.30038   0.35252
 Alpha virt. eigenvalues --    0.44260   0.54656   0.60926   0.68421   0.72916
 Alpha virt. eigenvalues --    0.86174   1.12352   1.18189   1.19840   1.26696
 Alpha virt. eigenvalues --    1.30970   1.32210   1.42552   1.50705   1.55159
 Alpha virt. eigenvalues --    1.63965   1.69274   1.69878   1.79495   1.85623
 Alpha virt. eigenvalues --    1.86471   2.09411   2.23626   2.37016   2.43383
 Alpha virt. eigenvalues --    2.56404   2.80413   2.87837   2.94874   3.25500
 Alpha virt. eigenvalues --    3.38100   3.47007   3.53734   3.64965   3.66106
 Alpha virt. eigenvalues --    3.79089   4.04563   4.14161   4.29008   4.68685
 Alpha virt. eigenvalues --    5.44821   5.55756   5.80977   5.98726   6.16623
 Alpha virt. eigenvalues --    6.60172  51.57127  51.70927
          Condensed to atoms (all electrons):
               1          2          3          4          5          6
     1  O    8.189996   0.215895   0.332860   0.035828   0.005873   0.002486
     2  H    0.215895   0.385817  -0.026236  -0.168441   0.005613   0.002707
     3  H    0.332860  -0.026236   0.426220   0.004873  -0.000917  -0.000187
     4  O    0.035828  -0.168441   0.004873   8.139742   0.336342   0.334971
     5  H    0.005873   0.005613  -0.000917   0.336342   0.332493  -0.019072
     6  H    0.002486   0.002707  -0.000187   0.334971  -0.019072   0.400546
 Mulliken charges:
               1
     1  O   -0.782938
     2  H    0.584646
     3  H    0.263388
     4  O   -0.683314
     5  H    0.339669
     6  H    0.278549
 Sum of Mulliken charges =   0.00000
 Mulliken charges with hydrogens summed into heavy atoms:
               1
     1  O    0.065096
     4  O   -0.065096
 Electronic spatial extent (au):  <R**2>=            140.3131
 Charge=              0.0000 electrons
 Dipole moment (field-independent basis, Debye):
    X=              0.2824    Y=              3.7895    Z=              0.0000  Tot=              3.8000
 Quadrupole moment (field-independent basis, Debye-Ang):
   XX=            -10.1056   YY=             -9.9573   ZZ=            -15.0621
   XY=             -3.8869   XZ=              0.0000   YZ=              0.0000
 Traceless Quadrupole moment (field-independent basis, Debye-Ang):
   XX=              1.6027   YY=              1.7510   ZZ=             -3.3538
   XY=             -3.8869   XZ=              0.0000   YZ=              0.0000
 Octapole moment (field-independent basis, Debye-Ang**2):
  XXX=             -0.2189  YYY=             19.0623  ZZZ=              0.0000  XYY=              5.8209
  XXY=              0.4455  XXZ=              0.0000  XZZ=              0.0774  YZZ=              1.1103
  YYZ=              0.0000  XYZ=              0.0000
 Hexadecapole moment (field-independent basis, Debye-Ang**3):
 XXXX=            -11.1483 YYYY=            -97.2327 ZZZZ=            -13.2107 XXXY=             -2.0371
 XXXZ=              0.0000 YYYX=             -3.3373 YYYZ=              0.0000 ZZZX=              0.0000
 ZZZY=              0.0000 XXYY=            -18.7049 XXZZ=             -4.7202 YYZZ=            -26.4253
 XXYZ=              0.0000 YYXZ=              0.0000 ZZXY=              0.7058
 N-N= 4.101235929753D+01 E-N=-4.433800021429D+02  KE= 1.521332715936D+02
 Symmetry A'   KE= 1.432324616446D+02
 Symmetry A"   KE= 8.900809949001D+00
 Calling FoFJK, ICntrl=  10002127 FMM=F ISym2X=1 I1Cent= 0 IOpClX= 0 NMat=1 NMatS=1 NMatT=0.
 ***** Axes restored to original set *****
 -------------------------------------------------------------------
 Center     Atomic                   Forces (Hartrees/Bohr)
 Number     Number              X              Y              Z
 -------------------------------------------------------------------
      1        8          -0.011908402    0.000000000   -0.035141863
      2        1           0.028574407    0.000000000   -0.024113420
      3        1          -0.003761667    0.000000000    0.008816419
      4        8          -0.003379856    0.000000000    0.034179960
      5        1          -0.004437059    0.000000000   -0.000423583
      6        1          -0.005087423    0.000000000    0.016682485
 -------------------------------------------------------------------
 Cartesian Forces:  Max     0.035141863 RMS     0.015581936

 GradGradGradGradGradGradGradGradGradGradGradGradGradGradGradGradGradGrad
 Berny optimization.
 FormGI is forming the generalized inverse of G from B-inverse, IUseBI=4.
 Internal  Forces:  Max     0.049948723 RMS     0.017272669
 Search for a local minimum.
 Step number   1 out of a maximum of   24
 All quantities printed in internal units (Hartrees-Bohrs-Radians)
 Mixed Optimization -- RFO/linear search
 Second derivative matrix not updated -- first step.
 The second derivative matrix:
                          R1        R2        R3        R4        R5
           R1           0.55473
           R2           0.00000   0.55473
           R3           0.00000   0.00000   0.14022
           R4           0.00000   0.00000   0.00000   0.55473
           R5           0.00000   0.00000   0.00000   0.00000   0.55473
           A1           0.00000   0.00000   0.00000   0.00000   0.00000
           A2           0.00000   0.00000   0.00000   0.00000   0.00000
           A3           0.00000   0.00000   0.00000   0.00000   0.00000
           A4           0.00000   0.00000   0.00000   0.00000   0.00000
           A5           0.00000   0.00000   0.00000   0.00000   0.00000
           A6           0.00000   0.00000   0.00000   0.00000   0.00000
           A7           0.00000   0.00000   0.00000   0.00000   0.00000
           D1           0.00000   0.00000   0.00000   0.00000   0.00000
           D2           0.00000   0.00000   0.00000   0.00000   0.00000
                          A1        A2        A3        A4        A5
           A1           0.16000
           A2           0.00000   0.16000
           A3           0.00000   0.00000   0.16000
           A4           0.00000   0.00000   0.00000   0.00230
           A5           0.00000   0.00000   0.00000   0.00000   0.01558
           A6           0.00000   0.00000   0.00000   0.00000   0.00000
           A7           0.00000   0.00000   0.00000   0.00000   0.00000
           D1           0.00000   0.00000   0.00000   0.00000   0.00000
           D2           0.00000   0.00000   0.00000   0.00000   0.00000
                          A6        A7        D1        D2
           A6           0.00230
           A7           0.00000   0.01558
           D1           0.00000   0.00000   0.00230
           D2           0.00000   0.00000   0.00000   0.01558
 ITU=  0
     Eigenvalues ---    0.00230   0.00230   0.00230   0.01558   0.06372
     Eigenvalues ---    0.14022   0.16000   0.16000   0.55473   0.55473
     Eigenvalues ---    0.55473   0.55473
 RFO step:  Lambda=-2.80642683D-02 EMin= 2.30000000D-03
 Linear search not attempted -- first point.
 Maximum step size (   0.300) exceeded in Quadratic search.
    -- Step size scaled by   0.488
 Iteration  1 RMS(Cart)=  0.09929300 RMS(Int)=  0.01613337
 Iteration  2 RMS(Cart)=  0.02454533 RMS(Int)=  0.00049674
 Iteration  3 RMS(Cart)=  0.00068091 RMS(Int)=  0.00000005
 Iteration  4 RMS(Cart)=  0.00000005 RMS(Int)=  0.00000000
 ClnCor:  largest displacement from symmetrization is 8.66D-12 for atom     3.
 Variable       Old X    -DE/DX   Delta X   Delta X   Delta X     New X
                                 (Linear)    (Quad)   (Total)
    R1        1.81414   0.02633   0.00000   0.02202   0.02202   1.83616
    R2        1.81414  -0.00649   0.00000  -0.00543  -0.00543   1.80871
    R3        2.66451   0.04995   0.00000   0.14472   0.14472   2.80924
    R4        1.81414  -0.00132   0.00000  -0.00111  -0.00111   1.81303
    R5        1.81414   0.00280   0.00000   0.00234   0.00234   1.81648
    A1        1.91114  -0.01280   0.00000  -0.03318  -0.03318   1.87795
    A2        1.40063   0.01825   0.00000   0.05446   0.05446   1.45508
    A3        1.91114  -0.01298   0.00000  -0.02651  -0.02651   1.88463
    A4        3.10607   0.01563   0.00000   0.25096   0.25096   3.35703
    A5        3.31176   0.00526   0.00000   0.02795   0.02795   3.33971
    A6        3.14159   0.00000   0.00000   0.00000   0.00000   3.14159
    A7        3.14159   0.00000   0.00000   0.00000   0.00000   3.14159
    D1        3.14159   0.00000   0.00000   0.00000   0.00000   3.14159
    D2        3.14159   0.00000   0.00000   0.00000   0.00000   3.14159
         Item               Value     Threshold  Converged?
 Maximum Force            0.049949     0.000450     NO 
 RMS     Force            0.017273     0.000300     NO 
 Maximum Displacement     0.263587     0.001800     NO 
 RMS     Displacement     0.114251     0.001200     NO 
 Predicted change in Energy=-1.161059D-02
 GradGradGradGradGradGradGradGradGradGradGradGradGradGradGradGradGradGrad

                          Input orientation:                          
 ---------------------------------------------------------------------
 Center     Atomic      Atomic             Coordinates (Angstroms)
 Number     Number       Type             X           Y           Z
 ---------------------------------------------------------------------
      1          8           0       -0.007325    0.000000   -0.015030
      2          1           0        0.139484    0.000000    0.945470
      3          1           0        0.850809    0.000000   -0.438940
      4          8           0        0.044752    0.000000    2.429033
      5          1           0        0.173264    0.000000    3.379802
      6          1           0       -0.901048    0.000000    2.257435
 ---------------------------------------------------------------------
                    Distance matrix (angstroms):
                    1          2          3          4          5
     1  O    0.000000
     2  H    0.971655   0.000000
     3  H    0.957127   1.556462   0.000000
     4  O    2.444618   1.486585   2.979094   0.000000
     5  H    3.399632   2.434567   3.878384   0.959415   0.000000
     6  H    2.441893   1.674503   3.215500   0.961240   1.553658
                    6
     6  H    0.000000
 Stoichiometry    H4O2
 Framework group  CS[SG(H4O2)]
 Deg. of freedom     9
 Full point group                 CS      NOp   2
 Largest Abelian subgroup         CS      NOp   2
 Largest concise Abelian subgroup C1      NOp   1
                         Standard orientation:                         
 ---------------------------------------------------------------------
 Center     Atomic      Atomic             Coordinates (Angstroms)
 Number     Number       Type             X           Y           Z
 ---------------------------------------------------------------------
      1          8           0       -0.007979   -1.288282    0.000000
      2          1           0        0.118335   -0.324873    0.000000
      3          1           0        0.858990   -1.693815    0.000000
      4          8           0       -0.007979    1.156336    0.000000
      5          1           0        0.100250    2.109627    0.000000
      6          1           0       -0.949909    0.964629    0.000000
 ---------------------------------------------------------------------
 Rotational constants (GHZ):    317.7990433      8.9586401      8.7130232
 Standard basis: 6-311+G(d,p) (5D, 7F)
 There are    54 symmetry adapted cartesian basis functions of A'  symmetry.
 There are    16 symmetry adapted cartesian basis functions of A"  symmetry.
 There are    52 symmetry adapted basis functions of A'  symmetry.
 There are    16 symmetry adapted basis functions of A"  symmetry.
    68 basis functions,   104 primitive gaussians,    70 cartesian basis functions
    10 alpha electrons       10 beta electrons
       nuclear repulsion energy        40.2131071968 Hartrees.
 NAtoms=    6 NActive=    6 NUniq=    6 SFac= 1.00D+00 NAtFMM=   60 NAOKFM=F Big=F
 Integral buffers will be    131072 words long.
 Raffenetti 1 integral format.
 Two-electron integral symmetry is turned on.
 One-electron integrals computed using PRISM.
 NBasis=    68 RedAO= T EigKep=  1.83D-03  NBF=    52    16
 NBsUse=    68 1.00D-06 EigRej= -1.00D+00 NBFU=    52    16
 Initial guess from the checkpoint file:  "H20Aggmp2.chk"
 B after Tr=     0.000000    0.000000    0.000000
         Rot=    1.000000    0.000000    0.000000    0.000102 Ang=   0.01 deg.
 Initial guess orbital symmetries:
       Occupied  (A') (A') (A') (A') (A') (A') (A') (A") (A') (A")
       Virtual   (A') (A') (A') (A') (A') (A') (A') (A') (A') (A')
                 (A') (A') (A') (A') (A') (A') (A') (A') (A') (A')
                 (A') (A') (A') (A') (A') (A') (A') (A') (A') (A')
                 (A') (A') (A') (A') (A') (A') (A') (A') (A') (A')
                 (A') (A') (A') (A') (A") (A") (A") (A") (A") (A")
                 (A") (A") (A") (A") (A") (A") (A") (A")
 ExpMin= 8.45D-02 ExpMax= 8.59D+03 ExpMxC= 1.30D+03 IAcc=2 IRadAn=         4 AccDes= 0.00D+00
 Harris functional with IExCor=  205 and IRadAn=       4 diagonalized for initial guess.
 HarFok:  IExCor=  205 AccDes= 0.00D+00 IRadAn=         4 IDoV= 1 UseB2=F ITyADJ=14
 ICtDFT=  3500011 ScaDFX=  1.000000  1.000000  1.000000  1.000000
 FoFCou: FMM=F IPFlag=           0 FMFlag=      100000 FMFlg1=           0
         NFxFlg=           0 DoJE=T BraDBF=F KetDBF=T FulRan=T
         wScrn=  0.000000 ICntrl=     500 IOpCl=  0 I1Cent=   200000004 NGrid=           0
         NMat0=    1 NMatS0=      1 NMatT0=    0 NMatD0=    1 NMtDS0=    0 NMtDT0=    0
 Petite list used in FoFCou.
 Keep R1 ints in memory in symmetry-blocked form, NReq=4286288.
 Requested convergence on RMS density matrix=1.00D-08 within 128 cycles.
 Requested convergence on MAX density matrix=1.00D-06.
 Requested convergence on             energy=1.00D-06.
 No special actions if energy rises.
 SCF Done:  E(RHF) =  -152.095698473     A.U. after   10 cycles
            NFock= 10  Conv=0.80D-08     -V/T= 2.0002
 Range of M.O.s used for correlation:     1    68
 NBasis=    68 NAE=    10 NBE=    10 NFC=     0 NFV=     0
 NROrb=     68 NOA=    10 NOB=    10 NVA=    58 NVB=    58

 **** Warning!!: The largest alpha MO coefficient is  0.11975508D+02

 Fully direct method using O(ONN) memory.
 JobTyp=1 Pass  1:  I=   1 to  10 NPSUse=  2 ParTrn=T ParDer=T DoDerP=T.
 Spin components of T(2) and E(2):
     alpha-alpha T2 =       0.1442412993D-01 E2=     -0.6002885778D-01
     alpha-beta  T2 =       0.8237281841D-01 E2=     -0.3663874706D+00
     beta-beta   T2 =       0.1442412993D-01 E2=     -0.6002885778D-01
 ANorm=    0.1054144714D+01
 E2 =    -0.4864451862D+00 EUMP2 =    -0.15258214365884D+03
          IDoAtm=111111
          Differentiating once with respect to electric field.
                with respect to dipole field.
          Differentiating once with respect to nuclear coordinates.
 Keep R1 ints in memory in symmetry-blocked form, NReq=4253041.
          There are     1 degrees of freedom in the 1st order CPHF.  IDoFFX=0 NUNeed=     1.
 LinEq1:  Iter=  0 NonCon=     1 RMS=5.81D-03 Max=6.20D-02 NDo=     1
 AX will form     1 AO Fock derivatives at one time.
 LinEq1:  Iter=  1 NonCon=     1 RMS=5.57D-04 Max=4.08D-03 NDo=     1
 LinEq1:  Iter=  2 NonCon=     1 RMS=8.28D-05 Max=8.41D-04 NDo=     1
 LinEq1:  Iter=  3 NonCon=     1 RMS=1.91D-05 Max=1.31D-04 NDo=     1
 LinEq1:  Iter=  4 NonCon=     1 RMS=5.61D-06 Max=3.82D-05 NDo=     1
 LinEq1:  Iter=  5 NonCon=     1 RMS=1.36D-06 Max=8.00D-06 NDo=     1
 LinEq1:  Iter=  6 NonCon=     1 RMS=3.38D-07 Max=2.29D-06 NDo=     1
 LinEq1:  Iter=  7 NonCon=     1 RMS=1.45D-07 Max=8.72D-07 NDo=     1
 LinEq1:  Iter=  8 NonCon=     1 RMS=2.51D-08 Max=1.90D-07 NDo=     1
 LinEq1:  Iter=  9 NonCon=     1 RMS=4.49D-09 Max=3.13D-08 NDo=     1
 LinEq1:  Iter= 10 NonCon=     1 RMS=7.36D-10 Max=6.93D-09 NDo=     1
 LinEq1:  Iter= 11 NonCon=     0 RMS=9.36D-11 Max=5.24D-10 NDo=     1
 Linear equations converged to 1.000D-10 1.000D-09 after    11 iterations.
 End of Minotr F.D. properties file   721 does not exist.
 End of Minotr F.D. properties file   722 does not exist.
 End of Minotr F.D. properties file   788 does not exist.
 Calling FoFJK, ICntrl=  10002127 FMM=F ISym2X=1 I1Cent= 0 IOpClX= 0 NMat=1 NMatS=1 NMatT=0.
 ***** Axes restored to original set *****
 -------------------------------------------------------------------
 Center     Atomic                   Forces (Hartrees/Bohr)
 Number     Number              X              Y              Z
 -------------------------------------------------------------------
      1        8          -0.007892970    0.000000000   -0.011545463
      2        1           0.017878195    0.000000000   -0.024573220
      3        1          -0.000000648    0.000000000    0.004321178
      4        8          -0.005283822    0.000000000    0.021868878
      5        1          -0.001789795    0.000000000   -0.000743548
      6        1          -0.002910960    0.000000000    0.010672177
 -------------------------------------------------------------------
 Cartesian Forces:  Max     0.024573220 RMS     0.009916412

 GradGradGradGradGradGradGradGradGradGradGradGradGradGradGradGradGradGrad
 Berny optimization.
 Using GEDIIS/GDIIS optimizer.
 FormGI is forming the generalized inverse of G from B-inverse, IUseBI=4.
 Internal  Forces:  Max     0.032369143 RMS     0.010116849
 Search for a local minimum.
 Step number   2 out of a maximum of   24
 All quantities printed in internal units (Hartrees-Bohrs-Radians)
 Mixed Optimization -- RFO/linear search
 Update second derivatives using D2CorX and points    1    2
 DE= -1.03D-02 DEPred=-1.16D-02 R= 8.90D-01
 TightC=F SS=  1.41D+00  RLast= 3.00D-01 DXNew= 5.0454D-01 9.0000D-01
 Trust test= 8.90D-01 RLast= 3.00D-01 DXMaxT set to 5.05D-01
 The second derivative matrix:
                          R1        R2        R3        R4        R5
           R1           0.57069
           R2          -0.00434   0.55591
           R3          -0.00903   0.00183   0.09050
           R4           0.00081  -0.00019   0.00203   0.55466
           R5           0.00149  -0.00041  -0.00116   0.00009   0.55487
           A1          -0.00108   0.00040   0.00964  -0.00046  -0.00005
           A2          -0.00860   0.00199  -0.02596   0.00096  -0.00098
           A3          -0.00281   0.00081   0.00580  -0.00033  -0.00024
           A4           0.02808  -0.00715   0.02628  -0.00048   0.00287
           A5           0.00048  -0.00013  -0.00040   0.00003   0.00004
           A6           0.00000   0.00000   0.00000   0.00000   0.00000
           A7           0.00000   0.00000   0.00000   0.00000   0.00000
           D1           0.00000   0.00000   0.00000   0.00000   0.00000
           D2           0.00000   0.00000   0.00000   0.00000   0.00000
                          A1        A2        A3        A4        A5
           A1           0.15859
           A2           0.00566   0.14730
           A3          -0.00050   0.00388   0.16017
           A4          -0.00885   0.00857  -0.00818   0.01929
           A5          -0.00001  -0.00033  -0.00008   0.00095   0.01559
           A6           0.00000   0.00000   0.00000   0.00000   0.00000
           A7           0.00000   0.00000   0.00000   0.00000   0.00000
           D1           0.00000   0.00000   0.00000   0.00000   0.00000
           D2           0.00000   0.00000   0.00000   0.00000   0.00000
                          A6        A7        D1        D2
           A6           0.00230
           A7           0.00000   0.01558
           D1           0.00000   0.00000   0.00230
           D2           0.00000   0.00000   0.00000   0.01558
 ITU=  1  0
 Use linear search instead of GDIIS.
 Linear search step of   0.600 exceeds DXMaxT=   0.505 but not scaled.
 Quartic linear search produced a step of  2.00000.
 Iteration  1 RMS(Cart)=  0.10230250 RMS(Int)=  0.08589301
 Iteration  2 RMS(Cart)=  0.08752612 RMS(Int)=  0.03130581
 New curvilinear step failed, DQL= 2.95D-02 SP=-7.48D-01.
 ITry= 1 IFail=1 DXMaxC= 4.36D-01 DCOld= 1.00D+10 DXMaxT= 5.05D-01 DXLimC= 3.00D+00 Rises=F
 Iteration  1 RMS(Cart)=  0.10230250 RMS(Int)=  0.08589301
 Iteration  2 RMS(Cart)=  0.08752612 RMS(Int)=  0.03130581
 New curvilinear step failed, DQL= 2.95D-02 SP=-7.48D-01.
 ITry= 2 IFail=1 DXMaxC= 4.36D-01 DCOld= 1.00D+10 DXMaxT= 5.05D-01 DXLimC= 3.00D+00 Rises=F
 Iteration  1 RMS(Cart)=  0.10230250 RMS(Int)=  0.08589301
 Iteration  2 RMS(Cart)=  0.08752612 RMS(Int)=  0.03130581
 New curvilinear step failed, DQL= 2.95D-02 SP=-7.48D-01.
 ITry= 3 IFail=1 DXMaxC= 4.36D-01 DCOld= 1.00D+10 DXMaxT= 5.05D-01 DXLimC= 3.00D+00 Rises=F
 Iteration  1 RMS(Cart)=  0.10230250 RMS(Int)=  0.08589301
 Iteration  2 RMS(Cart)=  0.08752612 RMS(Int)=  0.03130581
 New curvilinear step failed, DQL= 2.95D-02 SP=-7.48D-01.
 ITry= 4 IFail=1 DXMaxC= 4.36D-01 DCOld= 1.00D+10 DXMaxT= 5.05D-01 DXLimC= 3.00D+00 Rises=F
 Iteration  1 RMS(Cart)=  0.10230250 RMS(Int)=  0.08589301
 Iteration  2 RMS(Cart)=  0.08752612 RMS(Int)=  0.03130581
 New curvilinear step failed, DQL= 2.95D-02 SP=-7.48D-01.
 ITry= 5 IFail=1 DXMaxC= 4.36D-01 DCOld= 1.00D+10 DXMaxT= 5.05D-01 DXLimC= 3.00D+00 Rises=F
 Iteration  1 RMS(Cart)=  0.10230250 RMS(Int)=  0.08589301
 Iteration  2 RMS(Cart)=  0.08752612 RMS(Int)=  0.03130581
 New curvilinear step failed, DQL= 2.95D-02 SP=-7.48D-01.
 ITry= 6 IFail=1 DXMaxC= 4.36D-01 DCOld= 1.00D+10 DXMaxT= 5.05D-01 DXLimC= 3.00D+00 Rises=F
 Iteration  1 RMS(Cart)=  0.10230250 RMS(Int)=  0.08589301
 Iteration  2 RMS(Cart)=  0.08752612 RMS(Int)=  0.03130581
 New curvilinear step failed, DQL= 2.95D-02 SP=-7.48D-01.
 ITry= 7 IFail=1 DXMaxC= 4.36D-01 DCOld= 1.00D+10 DXMaxT= 5.05D-01 DXLimC= 3.00D+00 Rises=F
 Iteration  1 RMS(Cart)=  0.10230250 RMS(Int)=  0.08589301
 Iteration  2 RMS(Cart)=  0.08752612 RMS(Int)=  0.03130581
 New curvilinear step failed, DQL= 2.95D-02 SP=-7.48D-01.
 ITry= 8 IFail=1 DXMaxC= 4.36D-01 DCOld= 1.00D+10 DXMaxT= 5.05D-01 DXLimC= 3.00D+00 Rises=F
 Iteration  1 RMS(Cart)=  0.10230250 RMS(Int)=  0.08589301
 Iteration  2 RMS(Cart)=  0.08752612 RMS(Int)=  0.03130581
 New curvilinear step failed, DQL= 2.95D-02 SP=-7.48D-01.
 ITry= 9 IFail=1 DXMaxC= 4.36D-01 DCOld= 1.00D+10 DXMaxT= 5.05D-01 DXLimC= 3.00D+00 Rises=F
 Iteration  1 RMS(Cart)=  0.10230250 RMS(Int)=  0.08589301
 Iteration  2 RMS(Cart)=  0.08752612 RMS(Int)=  0.03130581
 New curvilinear step failed, DQL= 2.95D-02 SP=-7.48D-01.
 ITry=10 IFail=1 DXMaxC= 4.36D-01 DCOld= 1.00D+10 DXMaxT= 5.05D-01 DXLimC= 3.00D+00 Rises=F
 RedQX1 iteration     1 Try  1 RMS(Cart)=  0.04396515 RMS(Int)=  0.12829963 XScale=  4.99699000
 RedQX1 iteration     1 Try  2 RMS(Cart)=  0.04380857 RMS(Int)=  0.09644165 XScale=  2.49667779
 RedQX1 iteration     1 Try  3 RMS(Cart)=  0.04325923 RMS(Int)=  0.06516622 XScale=  1.66277945
 RedQX1 iteration     1 Try  4 RMS(Cart)=  0.04224689 RMS(Int)=  0.03535660 XScale=  1.24496059
 RedQX1 iteration     1 Try  5 RMS(Cart)=  0.04198438 RMS(Int)=  0.03968588 XScale=  1.19421246
 RedQX1 iteration     1 Try  6 RMS(Cart)=  0.06235248 RMS(Int)=  0.07587250 XScale=  1.38579508
 RedQX1 iteration     2 Try  1 RMS(Cart)=  0.02463873 RMS(Int)=  0.09068622 XScale=  1.43376082
 RedQX1 iteration     2 Try  2 RMS(Cart)=  0.03672256 RMS(Int)=  0.11288683 XScale=  1.45241613
 RedQX1 iteration     2 Try  3 RMS(Cart)=  0.06073205 RMS(Int)=  0.14992024 XScale=  1.33948089
 RedQX1 iteration     2 Try  4 RMS(Cart)=  0.12025318 RMS(Int)=  0.22463597 XScale=  0.94373938
 RedQX1 iteration     3 Try  1 RMS(Cart)=  0.04810127 RMS(Int)=  0.17932582 XScale=  1.18398503
 RedQX1 iteration     3 Try  2 RMS(Cart)=  0.07159410 RMS(Int)=  0.22353060 XScale=  0.95288790
 RedQX1 iteration     4 Try  1 RMS(Cart)=  0.05727528 RMS(Int)=  0.21457368 XScale=  0.99652444
 RedQX1 iteration     5 Try  1 RMS(Cart)=  0.01145506 RMS(Int)=  0.18630367 XScale=  1.14584151
 RedQX1 iteration     5 Try  2 RMS(Cart)=  0.01238411 RMS(Int)=  0.19385833 XScale=  1.10495287
 RedQX1 iteration     5 Try  3 RMS(Cart)=  0.01343171 RMS(Int)=  0.20206475 XScale=  1.06151112
 RedQX1 iteration     5 Try  4 RMS(Cart)=  0.01461899 RMS(Int)=  0.21101155 XScale=  1.01575925
 RedQX1 iteration     5 Try  5 RMS(Cart)=  0.01597204 RMS(Int)=  0.22080424 XScale=  0.96798459
 RedQX1 iteration     6 Try  1 RMS(Cart)=  0.01341652 RMS(Int)=  0.21923260 XScale=  0.97549775
 RedQX1 iteration     7 Try  1 RMS(Cart)=  0.00268330 RMS(Int)=  0.21265175 XScale=  1.00760342
 RedQX1 iteration     7 Try  2 RMS(Cart)=  0.00272532 RMS(Int)=  0.21431812 XScale=  0.99938740
 RedQX1 iteration     7 Try  3 RMS(Cart)=  0.00276833 RMS(Int)=  0.21601129 XScale=  0.99111287
 RedQX1 iteration     8 Try  1 RMS(Cart)=  0.00272403 RMS(Int)=  0.21598418 XScale=  0.99124482
 RedQX1 iteration     9 Try  1 RMS(Cart)=  0.00054481 RMS(Int)=  0.21465116 XScale=  0.99775462
 RedQX1 iteration    10 Try  1 RMS(Cart)=  0.00010896 RMS(Int)=  0.21438472 XScale=  0.99906067
 RedQX1 iteration    10 Try  2 RMS(Cart)=  0.00010903 RMS(Int)=  0.21445136 XScale=  0.99873386
 RedQX1 iteration    11 Try  1 RMS(Cart)=  0.00010899 RMS(Int)=  0.21445134 XScale=  0.99873396
 RedQX1 iteration    12 Try  1 RMS(Cart)=  0.00002180 RMS(Int)=  0.21439804 XScale=  0.99899533
 RedQX1 iteration    13 Try  1 RMS(Cart)=  0.00000436 RMS(Int)=  0.21438738 XScale=  0.99904760
 RedQX1 iteration    13 Try  2 RMS(Cart)=  0.00000436 RMS(Int)=  0.21439005 XScale=  0.99903453
 RedQX1 iteration    13 Try  3 RMS(Cart)=  0.00000436 RMS(Int)=  0.21439271 XScale=  0.99902146
 RedQX1 iteration    13 Try  4 RMS(Cart)=  0.00000436 RMS(Int)=  0.21439538 XScale=  0.99900839
 RedQX1 iteration    13 Try  5 RMS(Cart)=  0.00000436 RMS(Int)=  0.21439804 XScale=  0.99899532
 RedQX1 iteration    14 Try  1 RMS(Cart)=  0.00000436 RMS(Int)=  0.21439804 XScale=  0.99899532
 RedQX1 iteration    15 Try  1 RMS(Cart)=  0.00000087 RMS(Int)=  0.21439591 XScale=  0.99900578
 RedQX1 iteration    15 Try  2 RMS(Cart)=  0.00000087 RMS(Int)=  0.21439644 XScale=  0.99900317
 RedQX1 iteration    15 Try  3 RMS(Cart)=  0.00000087 RMS(Int)=  0.21439698 XScale=  0.99900055
 RedQX1 iteration    15 Try  4 RMS(Cart)=  0.00000087 RMS(Int)=  0.21439751 XScale=  0.99899794
 RedQX1 iteration    16 Try  1 RMS(Cart)=  0.00000087 RMS(Int)=  0.21439751 XScale=  0.99899794
 RedQX1 iteration    17 Try  1 RMS(Cart)=  0.00000017 RMS(Int)=  0.21439708 XScale=  0.99900003
 RedQX1 iteration    17 Try  2 RMS(Cart)=  0.00000017 RMS(Int)=  0.21439719 XScale=  0.99899951
 RedQX1 iteration    18 Try  1 RMS(Cart)=  0.00000017 RMS(Int)=  0.21439719 XScale=  0.99899951
 RedQX1 iteration    19 Try  1 RMS(Cart)=  0.00000003 RMS(Int)=  0.21439711 XScale=  0.99899992
 RedQX1 iteration    20 Try  1 RMS(Cart)=  0.00000001 RMS(Int)=  0.21439709 XScale=  0.99900001
 ClnCor:  largest displacement from symmetrization is 9.42D-16 for atom     4.
 TrRot=  0.000000  0.000000  0.000000  0.000000  0.000000  0.000000
 Variable       Old X    -DE/DX   Delta X   Delta X   Delta X     New X
                                 (Linear)    (Quad)   (Total)
    R1        1.83616   0.00833   0.04405   0.00000   0.29358   2.12974
    R2        1.80871  -0.00191  -0.01086   0.00000   0.20281   2.01152
    R3        2.80924   0.03237   0.28945   0.00000   0.40423   3.21347
    R4        1.81303  -0.00098  -0.00221   0.00000   0.05696   1.86999
    R5        1.81648   0.00096   0.00469   0.00000   0.05181   1.86829
    A1        1.87795  -0.00701  -0.06637   0.00000  -0.05744   1.82052
    A2        1.45508   0.01233   0.10892   0.00000   0.09592   1.55100
    A3        1.88463  -0.00768  -0.05302   0.00000  -0.05276   1.83187
    A4        3.35703   0.00532   0.50193   0.00000  -0.21661   3.14042
    A5        3.33971   0.00465   0.05590   0.00000   0.04316   3.38287
    A6        3.14159   0.00000   0.00000   0.00000   0.00000   3.14159
    A7        3.14159   0.00000   0.00000   0.00000   0.00000   3.14159
    D1        3.14159   0.00000   0.00000   0.00000   0.00000   3.14159
    D2        3.14159   0.00000   0.00000   0.00000   0.00000   3.14159
         Item               Value     Threshold  Converged?
 Maximum Force            0.032369     0.000450     NO 
 RMS     Force            0.010117     0.000300     NO 
 Maximum Displacement     1.230752     0.001800     NO 
 RMS     Displacement     0.472217     0.001200     NO 
 Predicted change in Energy=-2.363995D-02
 GradGradGradGradGradGradGradGradGradGradGradGradGradGradGradGradGradGrad

                          Input orientation:                          
 ---------------------------------------------------------------------
 Center     Atomic      Atomic             Coordinates (Angstroms)
 Number     Number       Type             X           Y           Z
 ---------------------------------------------------------------------
      1          8           0       -0.044136    0.000000    0.222552
      2          1           0        0.790770    0.000000    0.979578
      3          1           0        0.453809    0.000000   -0.718247
      4          8           0        0.060913    0.000000    2.515481
      5          1           0       -0.137943    0.000000    3.484850
      6          1           0       -0.823477    0.000000    2.073555
 ---------------------------------------------------------------------
                    Distance matrix (angstroms):
                    1          2          3          4          5
     1  O    0.000000
     2  H    1.127012   0.000000
     3  H    1.064449   1.730940   0.000000
     4  O    2.295334   1.700497   3.257508   0.000000
     5  H    3.263646   2.671871   4.244549   0.989556   0.000000
     6  H    2.008379   1.950021   3.070117   0.988658   1.568984
                    6
     6  H    0.000000
 Stoichiometry    H4O2
 Framework group  CS[SG(H4O2)]
 Deg. of freedom     9
 Full point group                 CS      NOp   2
 Largest Abelian subgroup         CS      NOp   2
 Largest concise Abelian subgroup C1      NOp   1
                         Standard orientation:                         
 ---------------------------------------------------------------------
 Center     Atomic      Atomic             Coordinates (Angstroms)
 Number     Number       Type             X           Y           Z
 ---------------------------------------------------------------------
      1          8           0       -0.011681   -1.165404    0.000000
      2          1           0        0.787704   -0.370960    0.000000
      3          1           0        0.528799   -2.082428    0.000000
      4          8           0       -0.011681    1.129930    0.000000
      5          1           0       -0.254693    2.089183    0.000000
      6          1           0       -0.874919    0.647992    0.000000
 ---------------------------------------------------------------------
 Rotational constants (GHZ):    311.7002996      9.7941439      9.4957709
 Standard basis: 6-311+G(d,p) (5D, 7F)
 There are    54 symmetry adapted cartesian basis functions of A'  symmetry.
 There are    16 symmetry adapted cartesian basis functions of A"  symmetry.
 There are    52 symmetry adapted basis functions of A'  symmetry.
 There are    16 symmetry adapted basis functions of A"  symmetry.
    68 basis functions,   104 primitive gaussians,    70 cartesian basis functions
    10 alpha electrons       10 beta electrons
       nuclear repulsion energy        39.6519468967 Hartrees.
 NAtoms=    6 NActive=    6 NUniq=    6 SFac= 1.00D+00 NAtFMM=   60 NAOKFM=F Big=F
 Integral buffers will be    131072 words long.
 Raffenetti 1 integral format.
 Two-electron integral symmetry is turned on.
 One-electron integrals computed using PRISM.
 NBasis=    68 RedAO= T EigKep=  2.61D-03  NBF=    52    16
 NBsUse=    68 1.00D-06 EigRej= -1.00D+00 NBFU=    52    16
 Initial guess from the checkpoint file:  "H20Aggmp2.chk"
 B after Tr=     0.000000    0.000000    0.000000
         Rot=    0.999990    0.000000    0.000000   -0.004370 Ang=  -0.50 deg.
 Initial guess orbital symmetries:
       Occupied  (A') (A') (A') (A') (A') (A') (A') (A") (A') (A")
       Virtual   (A') (A') (A') (A') (A') (A') (A') (A') (A') (A')
                 (A') (A') (A') (A') (A') (A') (A') (A') (A') (A')
                 (A') (A') (A') (A') (A') (A') (A') (A') (A') (A')
                 (A') (A') (A') (A') (A') (A') (A') (A') (A') (A')
                 (A') (A') (A') (A') (A") (A") (A") (A") (A") (A")
                 (A") (A") (A") (A") (A") (A") (A") (A")
 ExpMin= 8.45D-02 ExpMax= 8.59D+03 ExpMxC= 1.30D+03 IAcc=2 IRadAn=         4 AccDes= 0.00D+00
 Harris functional with IExCor=  205 and IRadAn=       4 diagonalized for initial guess.
 HarFok:  IExCor=  205 AccDes= 0.00D+00 IRadAn=         4 IDoV= 1 UseB2=F ITyADJ=14
 ICtDFT=  3500011 ScaDFX=  1.000000  1.000000  1.000000  1.000000
 FoFCou: FMM=F IPFlag=           0 FMFlag=      100000 FMFlg1=           0
         NFxFlg=           0 DoJE=T BraDBF=F KetDBF=T FulRan=T
         wScrn=  0.000000 ICntrl=     500 IOpCl=  0 I1Cent=   200000004 NGrid=           0
         NMat0=    1 NMatS0=      1 NMatT0=    0 NMatD0=    1 NMtDS0=    0 NMtDT0=    0
 Petite list used in FoFCou.
 Keep R1 ints in memory in symmetry-blocked form, NReq=4286288.
 Requested convergence on RMS density matrix=1.00D-08 within 128 cycles.
 Requested convergence on MAX density matrix=1.00D-06.
 Requested convergence on             energy=1.00D-06.
 No special actions if energy rises.
 SCF Done:  E(RHF) =  -152.057509980     A.U. after   12 cycles
            NFock= 12  Conv=0.49D-08     -V/T= 2.0032
 Range of M.O.s used for correlation:     1    68
 NBasis=    68 NAE=    10 NBE=    10 NFC=     0 NFV=     0
 NROrb=     68 NOA=    10 NOB=    10 NVA=    58 NVB=    58
 Fully direct method using O(ONN) memory.
 JobTyp=1 Pass  1:  I=   1 to  10 NPSUse=  2 ParTrn=T ParDer=T DoDerP=T.
 Spin components of T(2) and E(2):
     alpha-alpha T2 =       0.1576633695D-01 E2=     -0.6131566310D-01
     alpha-beta  T2 =       0.9185996863D-01 E2=     -0.3769515518D+00
     beta-beta   T2 =       0.1576633695D-01 E2=     -0.6131566310D-01
 ANorm=    0.1059902185D+01
 E2 =    -0.4995828780D+00 EUMP2 =    -0.15255709285836D+03
          IDoAtm=111111
          Differentiating once with respect to electric field.
                with respect to dipole field.
          Differentiating once with respect to nuclear coordinates.
 Keep R1 ints in memory in symmetry-blocked form, NReq=4253041.
          There are     1 degrees of freedom in the 1st order CPHF.  IDoFFX=0 NUNeed=     1.
 LinEq1:  Iter=  0 NonCon=     1 RMS=6.71D-03 Max=7.33D-02 NDo=     1
 AX will form     1 AO Fock derivatives at one time.
 LinEq1:  Iter=  1 NonCon=     1 RMS=7.58D-04 Max=4.83D-03 NDo=     1
 LinEq1:  Iter=  2 NonCon=     1 RMS=1.45D-04 Max=1.44D-03 NDo=     1
 LinEq1:  Iter=  3 NonCon=     1 RMS=5.70D-05 Max=3.66D-04 NDo=     1
 LinEq1:  Iter=  4 NonCon=     1 RMS=1.33D-05 Max=8.95D-05 NDo=     1
 LinEq1:  Iter=  5 NonCon=     1 RMS=3.35D-06 Max=1.92D-05 NDo=     1
 LinEq1:  Iter=  6 NonCon=     1 RMS=1.37D-06 Max=1.08D-05 NDo=     1
 LinEq1:  Iter=  7 NonCon=     1 RMS=3.41D-07 Max=1.97D-06 NDo=     1
 LinEq1:  Iter=  8 NonCon=     1 RMS=5.07D-08 Max=3.36D-07 NDo=     1
 LinEq1:  Iter=  9 NonCon=     1 RMS=9.03D-09 Max=4.78D-08 NDo=     1
 LinEq1:  Iter= 10 NonCon=     1 RMS=1.21D-09 Max=8.30D-09 NDo=     1
 LinEq1:  Iter= 11 NonCon=     1 RMS=1.92D-10 Max=9.82D-10 NDo=     1
 LinEq1:  Iter= 12 NonCon=     0 RMS=3.13D-11 Max=1.75D-10 NDo=     1
 Linear equations converged to 1.000D-10 1.000D-09 after    12 iterations.
 End of Minotr F.D. properties file   721 does not exist.
 End of Minotr F.D. properties file   722 does not exist.
 End of Minotr F.D. properties file   788 does not exist.
 Calling FoFJK, ICntrl=  10002127 FMM=F ISym2X=1 I1Cent= 0 IOpClX= 0 NMat=1 NMatS=1 NMatT=0.
 ***** Axes restored to original set *****
 -------------------------------------------------------------------
 Center     Atomic                   Forces (Hartrees/Bohr)
 Number     Number              X              Y              Z
 -------------------------------------------------------------------
      1        8           0.104603869    0.000000000   -0.028084965
      2        1          -0.069132996    0.000000000   -0.068501528
      3        1          -0.034623266    0.000000000    0.067391255
      4        8          -0.031240373    0.000000000    0.044566875
      5        1           0.007040472    0.000000000   -0.026587756
      6        1           0.023352294    0.000000000    0.011216118
 -------------------------------------------------------------------
 Cartesian Forces:  Max     0.104603869 RMS     0.041721758

 GradGradGradGradGradGradGradGradGradGradGradGradGradGradGradGradGradGrad
 Berny optimization.
 Using GEDIIS/GDIIS optimizer.
 FormGI is forming the generalized inverse of G from B-inverse, IUseBI=4.
 Internal  Forces:  Max     0.091172567 RMS     0.035279142
 Search for a local minimum.
 Step number   3 out of a maximum of   24
 All quantities printed in internal units (Hartrees-Bohrs-Radians)
 Mixed Optimization -- RFO/linear search
 Update second derivatives using D2CorX and points    1    3    2
 The second derivative matrix:
                          R1        R2        R3        R4        R5
           R1           0.35566
           R2          -0.11353   0.53504
           R3          -0.05151  -0.02538   0.08303
           R4          -0.02978  -0.00507  -0.00575   0.55360
           R5          -0.01895   0.00235  -0.00734   0.00123   0.55792
           A1          -0.05071  -0.06412   0.00625  -0.01964  -0.01970
           A2           0.00837   0.02213  -0.02449   0.00693   0.00501
           A3          -0.00514  -0.00673   0.00638  -0.00263  -0.00288
           A4          -0.04614  -0.08389   0.01798  -0.02308  -0.01902
           A5           0.00351   0.00401  -0.00023   0.00127   0.00132
           A6           0.00000   0.00000   0.00000   0.00000   0.00000
           A7           0.00000   0.00000   0.00000   0.00000   0.00000
           D1           0.00000   0.00000   0.00000   0.00000   0.00000
           D2           0.00000   0.00000   0.00000   0.00000   0.00000
                          A1        A2        A3        A4        A5
           A1           0.19183
           A2          -0.00352   0.14980
           A3           0.00619   0.00195   0.16131
           A4           0.01842   0.00142  -0.00181   0.03777
           A5          -0.00228   0.00030  -0.00052  -0.00095   0.01574
           A6           0.00000   0.00000   0.00000   0.00000   0.00000
           A7           0.00000   0.00000   0.00000   0.00000   0.00000
           D1           0.00000   0.00000   0.00000   0.00000   0.00000
           D2           0.00000   0.00000   0.00000   0.00000   0.00000
                          A6        A7        D1        D2
           A6           0.00230
           A7           0.00000   0.01558
           D1           0.00000   0.00000   0.00230
           D2           0.00000   0.00000   0.00000   0.01558
 ITU=  0  1  0
 Use linear search instead of GDIIS.
     Eigenvalues ---    0.00230   0.00230   0.00801   0.01558   0.05729
     Eigenvalues ---    0.06867   0.15119   0.16119   0.36671   0.55465
     Eigenvalues ---    0.55605   0.60754
 RFO step:  Lambda=-1.01763758D-02 EMin= 2.30000000D-03
 Quartic linear search produced a step of -0.88611.
 Iteration  1 RMS(Cart)=  0.11613312 RMS(Int)=  0.10484008
 Iteration  2 RMS(Cart)=  0.10291797 RMS(Int)=  0.05123457
 Iteration  3 RMS(Cart)=  0.00035338 RMS(Int)=  0.05104682
 Iteration  4 RMS(Cart)=  0.09583040 RMS(Int)=  0.00611182
 Iteration  5 RMS(Cart)=  0.00000044 RMS(Int)=  0.00611150
 ClnCor:  largest displacement from symmetrization is 5.38D-10 for atom     1.
 Variable       Old X    -DE/DX   Delta X   Delta X   Delta X     New X
                                 (Linear)    (Quad)   (Total)
    R1        2.12974  -0.06369  -0.26015   0.07528  -0.16973   1.96001
    R2        2.01152  -0.09117  -0.17971   0.05149  -0.11333   1.89818
    R3        3.21347   0.02673  -0.35820   0.22532  -0.12638   3.08709
    R4        1.86999  -0.02746  -0.05047   0.01200  -0.03462   1.83537
    R5        1.86829  -0.02590  -0.04591   0.01138  -0.03066   1.83764
    A1        1.82052   0.03627   0.05089  -0.00615   0.04467   1.86519
    A2        1.55100   0.00046  -0.08499   0.08076  -0.00423   1.54677
    A3        1.83187   0.00122   0.04675  -0.02179   0.02496   1.85683
    A4        3.14042   0.03996   0.19194   0.40429   0.59632   3.73674
    A5        3.38287   0.00168  -0.03824   0.05897   0.02073   3.40360
    A6        3.14159   0.00000   0.00000   0.00000   0.00000   3.14159
    A7        3.14159   0.00000   0.00000   0.00000   0.00000   3.14159
    D1        3.14159   0.00000   0.00000   0.00000   0.00000   3.14159
    D2        3.14159   0.00000   0.00000   0.00000   0.00000   3.14159
         Item               Value     Threshold  Converged?
 Maximum Force            0.091173     0.000450     NO 
 RMS     Force            0.035279     0.000300     NO 
 Maximum Displacement     0.723301     0.001800     NO 
 RMS     Displacement     0.308972     0.001200     NO 
 Predicted change in Energy=-3.820696D-03
 GradGradGradGradGradGradGradGradGradGradGradGradGradGradGradGradGradGrad

                          Input orientation:                          
 ---------------------------------------------------------------------
 Center     Atomic      Atomic             Coordinates (Angstroms)
 Number     Number       Type             X           Y           Z
 ---------------------------------------------------------------------
      1          8           0       -0.017277    0.000000   -0.009033
      2          1           0        0.408016    0.000000    0.936956
      3          1           0        0.739948    0.000000   -0.669021
      4          8           0        0.027668    0.000000    2.525681
      5          1           0        0.053913    0.000000    3.496564
      6          1           0       -0.912332    0.000000    2.276623
 ---------------------------------------------------------------------
                    Distance matrix (angstroms):
                    1          2          3          4          5
     1  O    0.000000
     2  H    1.037193   0.000000
     3  H    1.004476   1.639920   0.000000
     4  O    2.535113   1.633619   3.273142   0.000000
     5  H    3.506320   2.583986   4.221699   0.971238   0.000000
     6  H    2.454658   1.880964   3.377402   0.972435   1.556242
                    6
     6  H    0.000000
 Stoichiometry    H4O2
 Framework group  CS[SG(H4O2)]
 Deg. of freedom     9
 Full point group                 CS      NOp   2
 Largest Abelian subgroup         CS      NOp   2
 Largest concise Abelian subgroup C1      NOp   1
                         Standard orientation:                         
 ---------------------------------------------------------------------
 Center     Atomic      Atomic             Coordinates (Angstroms)
 Number     Number       Type             X           Y           Z
 ---------------------------------------------------------------------
      1          8           0       -0.012543   -1.318178    0.000000
      2          1           0        0.395911   -0.364798    0.000000
      3          1           0        0.756264   -1.964637    0.000000
      4          8           0       -0.012543    1.216935    0.000000
      5          1           0       -0.003514    2.188131    0.000000
      6          1           0       -0.947980    0.951250    0.000000
 ---------------------------------------------------------------------
 Rotational constants (GHZ):    329.1031420      8.2400599      8.0387854
 Standard basis: 6-311+G(d,p) (5D, 7F)
 There are    54 symmetry adapted cartesian basis functions of A'  symmetry.
 There are    16 symmetry adapted cartesian basis functions of A"  symmetry.
 There are    52 symmetry adapted basis functions of A'  symmetry.
 There are    16 symmetry adapted basis functions of A"  symmetry.
    68 basis functions,   104 primitive gaussians,    70 cartesian basis functions
    10 alpha electrons       10 beta electrons
       nuclear repulsion energy        38.6153740202 Hartrees.
 NAtoms=    6 NActive=    6 NUniq=    6 SFac= 1.00D+00 NAtFMM=   60 NAOKFM=F Big=F
 Integral buffers will be    131072 words long.
 Raffenetti 1 integral format.
 Two-electron integral symmetry is turned on.
 One-electron integrals computed using PRISM.
 NBasis=    68 RedAO= T EigKep=  2.78D-03  NBF=    52    16
 NBsUse=    68 1.00D-06 EigRej= -1.00D+00 NBFU=    52    16
 Lowest energy guess from the checkpoint file:  "H20Aggmp2.chk"
 B after Tr=     0.000000    0.000000    0.000000
         Rot=    0.999999    0.000000    0.000000    0.001275 Ang=   0.15 deg.
 B after Tr=     0.000000    0.000000    0.000000
         Rot=    0.999986    0.000000    0.000000    0.005351 Ang=   0.61 deg.
 Initial guess orbital symmetries:
       Occupied  (A') (A') (A') (A') (A') (A') (A") (A") (A') (A')
       Virtual   (A') (A') (A') (A') (A') (A') (A") (A") (A') (A')
                 (A') (A') (A') (A') (A') (A') (A') (A') (A') (A')
                 (A') (A') (A') (A') (A') (A') (A') (A') (A') (A')
                 (A') (A') (A') (A') (A') (A') (A') (A') (A') (A')
                 (A') (A') (A') (A') (A") (A") (A") (A") (A") (A")
                 (A") (A") (A") (A") (A") (A") (A") (A")
 Keep R1 ints in memory in symmetry-blocked form, NReq=4286288.
 Requested convergence on RMS density matrix=1.00D-08 within 128 cycles.
 Requested convergence on MAX density matrix=1.00D-06.
 Requested convergence on             energy=1.00D-06.
 No special actions if energy rises.
 An orbital has undefined symmetry, so N**3 symmetry is turned off.
 SCF Done:  E(RHF) =  -152.093806626     A.U. after   11 cycles
            NFock= 11  Conv=0.26D-08     -V/T= 2.0021
 Range of M.O.s used for correlation:     1    68
 NBasis=    68 NAE=    10 NBE=    10 NFC=     0 NFV=     0
 NROrb=     68 NOA=    10 NOB=    10 NVA=    58 NVB=    58
 Fully direct method using O(ONN) memory.
 JobTyp=1 Pass  1:  I=   1 to  10 NPSUse=  2 ParTrn=T ParDer=T DoDerP=T.
 Spin components of T(2) and E(2):
     alpha-alpha T2 =       0.1491773198D-01 E2=     -0.6026293476D-01
     alpha-beta  T2 =       0.8611974981D-01 E2=     -0.3700487016D+00
     beta-beta   T2 =       0.1491773198D-01 E2=     -0.6026293476D-01
 ANorm=    0.1056387814D+01
 E2 =    -0.4905745711D+00 EUMP2 =    -0.15258438119680D+03
          IDoAtm=111111
          Differentiating once with respect to electric field.
                with respect to dipole field.
          Differentiating once with respect to nuclear coordinates.
 Keep R1 ints in memory in canonical form, NReq=3610653.
          There are     1 degrees of freedom in the 1st order CPHF.  IDoFFX=0 NUNeed=     1.
 LinEq1:  Iter=  0 NonCon=     1 RMS=6.15D-03 Max=6.37D-02 NDo=     1
 AX will form     1 AO Fock derivatives at one time.
 LinEq1:  Iter=  1 NonCon=     1 RMS=6.26D-04 Max=3.97D-03 NDo=     1
 LinEq1:  Iter=  2 NonCon=     1 RMS=9.35D-05 Max=8.76D-04 NDo=     1
 LinEq1:  Iter=  3 NonCon=     1 RMS=2.10D-05 Max=1.32D-04 NDo=     1
 LinEq1:  Iter=  4 NonCon=     1 RMS=6.94D-06 Max=4.63D-05 NDo=     1
 LinEq1:  Iter=  5 NonCon=     1 RMS=1.71D-06 Max=9.38D-06 NDo=     1
 LinEq1:  Iter=  6 NonCon=     1 RMS=3.39D-07 Max=2.28D-06 NDo=     1
 LinEq1:  Iter=  7 NonCon=     1 RMS=1.35D-07 Max=9.17D-07 NDo=     1
 LinEq1:  Iter=  8 NonCon=     1 RMS=3.27D-08 Max=2.31D-07 NDo=     1
 LinEq1:  Iter=  9 NonCon=     1 RMS=6.42D-09 Max=5.75D-08 NDo=     1
 LinEq1:  Iter= 10 NonCon=     1 RMS=1.07D-09 Max=1.12D-08 NDo=     1
 LinEq1:  Iter= 11 NonCon=     1 RMS=1.38D-10 Max=7.70D-10 NDo=     1
 LinEq1:  Iter= 12 NonCon=     0 RMS=1.81D-11 Max=1.34D-10 NDo=     1
 Linear equations converged to 1.000D-10 1.000D-09 after    12 iterations.
 End of Minotr F.D. properties file   721 does not exist.
 End of Minotr F.D. properties file   722 does not exist.
 End of Minotr F.D. properties file   788 does not exist.
 Calling FoFJK, ICntrl=  10002127 FMM=F ISym2X=1 I1Cent= 0 IOpClX= 0 NMat=1 NMatS=1 NMatT=0.
 ***** Axes restored to original set *****
 -------------------------------------------------------------------
 Center     Atomic                   Forces (Hartrees/Bohr)
 Number     Number              X              Y              Z
 -------------------------------------------------------------------
      1        8           0.047340673    0.000000000    0.013488562
      2        1          -0.013639541    0.000000000   -0.058472156
      3        1          -0.029400671    0.000000000    0.031178792
      4        8          -0.013139923    0.000000000    0.019864589
      5        1          -0.000522140    0.000000000   -0.012725537
      6        1           0.009361602    0.000000000    0.006665750
 -------------------------------------------------------------------
 Cartesian Forces:  Max     0.058472156 RMS     0.022017885

 GradGradGradGradGradGradGradGradGradGradGradGradGradGradGradGradGradGrad
 Berny optimization.
 Using GEDIIS/GDIIS optimizer.
 FormGI is forming the generalized inverse of G from B-inverse, IUseBI=4.
 Internal  Forces:  Max     0.046537604 RMS     0.018280142
 Search for a local minimum.
 Step number   4 out of a maximum of   24
 All quantities printed in internal units (Hartrees-Bohrs-Radians)
 Mixed Optimization -- RFO/linear search
 Update second derivatives using D2CorX and points    2    4
 DE= -2.24D-03 DEPred=-3.82D-03 R= 5.86D-01
 TightC=F SS=  1.41D+00  RLast= 5.09D-01 DXNew= 8.4853D-01 1.5271D+00
 Trust test= 5.86D-01 RLast= 5.09D-01 DXMaxT set to 8.49D-01
 The second derivative matrix:
                          R1        R2        R3        R4        R5
           R1           0.52627
           R2           0.01943   0.63677
           R3          -0.00142   0.02193   0.06153
           R4           0.00732   0.02306   0.00857   0.56134
           R5           0.01725   0.03089   0.00181   0.00924   0.56554
           A1          -0.05798  -0.07312   0.01872  -0.02261  -0.02065
           A2           0.02827   0.04253  -0.04007   0.01329   0.00836
           A3          -0.01955  -0.02005   0.01130  -0.00663  -0.00556
           A4          -0.04404  -0.07989   0.00822  -0.02164  -0.01900
           A5           0.01049   0.01011  -0.00103   0.00305   0.00269
           A6           0.00000   0.00000   0.00000   0.00000   0.00000
           A7           0.00000   0.00000   0.00000   0.00000   0.00000
           D1           0.00000   0.00000   0.00000   0.00000   0.00000
           D2           0.00000   0.00000   0.00000   0.00000   0.00000
                          A1        A2        A3        A4        A5
           A1           0.18624
           A2           0.00427   0.13945
           A3           0.00311   0.00568   0.16022
           A4           0.02251  -0.00447   0.00064   0.03483
           A5          -0.00143  -0.00057  -0.00039  -0.00168   0.01581
           A6           0.00000   0.00000   0.00000   0.00000   0.00000
           A7           0.00000   0.00000   0.00000   0.00000   0.00000
           D1           0.00000   0.00000   0.00000   0.00000   0.00000
           D2           0.00000   0.00000   0.00000   0.00000   0.00000
                          A6        A7        D1        D2
           A6           0.00230
           A7           0.00000   0.01558
           D1           0.00000   0.00000   0.00230
           D2           0.00000   0.00000   0.00000   0.01558
 ITU=  1  0  1  0
 Use linear search instead of GDIIS.
     Eigenvalues ---    0.00230   0.00230   0.01415   0.01558   0.03697
     Eigenvalues ---    0.07025   0.15239   0.17126   0.52617   0.55453
     Eigenvalues ---    0.55684   0.69583
 RFO step:  Lambda=-1.68894365D-02 EMin= 2.30000000D-03
 Quartic linear search produced a step of -0.43869.
 Iteration  1 RMS(Cart)=  0.12266827 RMS(Int)=  0.07394518
 Iteration  2 RMS(Cart)=  0.09465221 RMS(Int)=  0.01645743
 Iteration  3 RMS(Cart)=  0.03224102 RMS(Int)=  0.00053279
 Iteration  4 RMS(Cart)=  0.00054826 RMS(Int)=  0.00000006
 Iteration  5 RMS(Cart)=  0.00000010 RMS(Int)=  0.00000000
 ClnCor:  largest displacement from symmetrization is 4.49D-10 for atom     1.
 Variable       Old X    -DE/DX   Delta X   Delta X   Delta X     New X
                                 (Linear)    (Quad)   (Total)
    R1        1.96001  -0.04654  -0.05433  -0.09049  -0.14482   1.81519
    R2        1.89818  -0.04426  -0.03925  -0.11839  -0.15764   1.74054
    R3        3.08709   0.01443  -0.12189   0.44758   0.32569   3.41278
    R4        1.83537  -0.01273  -0.00980  -0.03605  -0.04585   1.78953
    R5        1.83764  -0.01076  -0.00928  -0.02007  -0.02935   1.80829
    A1        1.86519  -0.00393   0.00560  -0.11002  -0.10443   1.76077
    A2        1.54677   0.00485  -0.04022   0.21088   0.17066   1.71743
    A3        1.85683  -0.00259   0.01220  -0.08054  -0.06834   1.78848
    A4        3.73674   0.00412  -0.16657  -0.29863  -0.46521   3.27153
    A5        3.40360   0.00226  -0.02803   0.13034   0.10232   3.50592
    A6        3.14159   0.00000   0.00000   0.00000   0.00000   3.14159
    A7        3.14159   0.00000   0.00000   0.00000   0.00000   3.14159
    D1        3.14159   0.00000   0.00000   0.00000   0.00000   3.14159
    D2        3.14159   0.00000   0.00000   0.00000   0.00000   3.14159
         Item               Value     Threshold  Converged?
 Maximum Force            0.046538     0.000450     NO 
 RMS     Force            0.018280     0.000300     NO 
 Maximum Displacement     0.582640     0.001800     NO 
 RMS     Displacement     0.229949     0.001200     NO 
 Predicted change in Energy=-1.209052D-02
 GradGradGradGradGradGradGradGradGradGradGradGradGradGradGradGradGradGrad

                          Input orientation:                          
 ---------------------------------------------------------------------
 Center     Atomic      Atomic             Coordinates (Angstroms)
 Number     Number       Type             X           Y           Z
 ---------------------------------------------------------------------
      1          8           0        0.020441    0.000000    0.167676
      2          1           0        0.716336    0.000000    0.829796
      3          1           0        0.517908    0.000000   -0.607481
      4          8           0        0.003189    0.000000    2.488993
      5          1           0       -0.036211    0.000000    3.435150
      6          1           0       -0.921726    0.000000    2.243636
 ---------------------------------------------------------------------
                    Distance matrix (angstroms):
                    1          2          3          4          5
     1  O    0.000000
     2  H    0.960558   0.000000
     3  H    0.921055   1.450909   0.000000
     4  O    2.321380   1.805966   3.138962   0.000000
     5  H    3.267964   2.711862   4.080430   0.946977   0.000000
     6  H    2.279756   2.163837   3.193965   0.956905   1.484534
                    6
     6  H    0.000000
 Stoichiometry    H4O2
 Framework group  CS[SG(H4O2)]
 Deg. of freedom     9
 Full point group                 CS      NOp   2
 Largest Abelian subgroup         CS      NOp   2
 Largest concise Abelian subgroup C1      NOp   1
                         Standard orientation:                         
 ---------------------------------------------------------------------
 Center     Atomic      Atomic             Coordinates (Angstroms)
 Number     Number       Type             X           Y           Z
 ---------------------------------------------------------------------
      1          8           0       -0.011670   -1.189992    0.000000
      2          1           0        0.689126   -0.533063    0.000000
      3          1           0        0.480022   -1.968825    0.000000
      4          8           0       -0.011670    1.131388    0.000000
      5          1           0       -0.044037    2.077812    0.000000
      6          1           0       -0.938383    0.892912    0.000000
 ---------------------------------------------------------------------
 Rotational constants (GHZ):    335.9704662      9.6143205      9.3468459
 Standard basis: 6-311+G(d,p) (5D, 7F)
 There are    54 symmetry adapted cartesian basis functions of A'  symmetry.
 There are    16 symmetry adapted cartesian basis functions of A"  symmetry.
 There are    52 symmetry adapted basis functions of A'  symmetry.
 There are    16 symmetry adapted basis functions of A"  symmetry.
    68 basis functions,   104 primitive gaussians,    70 cartesian basis functions
    10 alpha electrons       10 beta electrons
       nuclear repulsion energy        40.7887847726 Hartrees.
 NAtoms=    6 NActive=    6 NUniq=    6 SFac= 1.00D+00 NAtFMM=   60 NAOKFM=F Big=F
 Integral buffers will be    131072 words long.
 Raffenetti 1 integral format.
 Two-electron integral symmetry is turned on.
 One-electron integrals computed using PRISM.
 NBasis=    68 RedAO= T EigKep=  2.31D-03  NBF=    52    16
 NBsUse=    68 1.00D-06 EigRej= -1.00D+00 NBFU=    52    16
 Initial guess from the checkpoint file:  "H20Aggmp2.chk"
 B after Tr=     0.000000    0.000000    0.000000
         Rot=    0.999985    0.000000    0.000000    0.005410 Ang=   0.62 deg.
 Initial guess orbital symmetries:
       Occupied  (A') (A') (A') (A') (A') (A') (A') (A") (A') (A")
       Virtual   (A') (A') (A') (A') (A') (A') (A') (A') (A') (A')
                 (A') (A') (A') (A') (A') (A') (A') (A') (A') (A')
                 (A') (A') (A') (A') (A') (A') (A') (A') (A') (A')
                 (A') (A') (A') (A') (A') (A') (A') (A') (A') (A')
                 (A') (A') (A') (A') (A") (A") (A") (A") (A") (A")
                 (A") (A") (A") (A") (A") (A") (A") (A")
 ExpMin= 8.45D-02 ExpMax= 8.59D+03 ExpMxC= 1.30D+03 IAcc=2 IRadAn=         4 AccDes= 0.00D+00
 Harris functional with IExCor=  205 and IRadAn=       4 diagonalized for initial guess.
 HarFok:  IExCor=  205 AccDes= 0.00D+00 IRadAn=         4 IDoV= 1 UseB2=F ITyADJ=14
 ICtDFT=  3500011 ScaDFX=  1.000000  1.000000  1.000000  1.000000
 FoFCou: FMM=F IPFlag=           0 FMFlag=      100000 FMFlg1=           0
         NFxFlg=           0 DoJE=T BraDBF=F KetDBF=T FulRan=T
         wScrn=  0.000000 ICntrl=     500 IOpCl=  0 I1Cent=   200000004 NGrid=           0
         NMat0=    1 NMatS0=      1 NMatT0=    0 NMatD0=    1 NMtDS0=    0 NMtDT0=    0
 Petite list used in FoFCou.
 Keep R1 ints in memory in symmetry-blocked form, NReq=4286288.
 Requested convergence on RMS density matrix=1.00D-08 within 128 cycles.
 Requested convergence on MAX density matrix=1.00D-06.
 Requested convergence on             energy=1.00D-06.
 No special actions if energy rises.
 SCF Done:  E(RHF) =  -152.099347536     A.U. after   11 cycles
            NFock= 11  Conv=0.97D-08     -V/T= 1.9994
 Range of M.O.s used for correlation:     1    68
 NBasis=    68 NAE=    10 NBE=    10 NFC=     0 NFV=     0
 NROrb=     68 NOA=    10 NOB=    10 NVA=    58 NVB=    58
 Fully direct method using O(ONN) memory.
 JobTyp=1 Pass  1:  I=   1 to  10 NPSUse=  2 ParTrn=T ParDer=T DoDerP=T.
 Spin components of T(2) and E(2):
     alpha-alpha T2 =       0.1431330011D-01 E2=     -0.5963037862D-01
     alpha-beta  T2 =       0.8211846898D-01 E2=     -0.3656497671D+00
     beta-beta   T2 =       0.1431330011D-01 E2=     -0.5963037862D-01
 ANorm=    0.1053918910D+01
 E2 =    -0.4849105244D+00 EUMP2 =    -0.15258425806024D+03
          IDoAtm=111111
          Differentiating once with respect to electric field.
                with respect to dipole field.
          Differentiating once with respect to nuclear coordinates.
 Keep R1 ints in memory in symmetry-blocked form, NReq=4253041.
          There are     1 degrees of freedom in the 1st order CPHF.  IDoFFX=0 NUNeed=     1.
 LinEq1:  Iter=  0 NonCon=     1 RMS=5.77D-03 Max=6.70D-02 NDo=     1
 AX will form     1 AO Fock derivatives at one time.
 LinEq1:  Iter=  1 NonCon=     1 RMS=5.93D-04 Max=4.59D-03 NDo=     1
 LinEq1:  Iter=  2 NonCon=     1 RMS=1.13D-04 Max=1.14D-03 NDo=     1
 LinEq1:  Iter=  3 NonCon=     1 RMS=3.96D-05 Max=2.61D-04 NDo=     1
 LinEq1:  Iter=  4 NonCon=     1 RMS=8.08D-06 Max=4.54D-05 NDo=     1
 LinEq1:  Iter=  5 NonCon=     1 RMS=1.51D-06 Max=8.97D-06 NDo=     1
 LinEq1:  Iter=  6 NonCon=     1 RMS=2.33D-07 Max=1.51D-06 NDo=     1
 LinEq1:  Iter=  7 NonCon=     1 RMS=8.11D-08 Max=5.41D-07 NDo=     1
 LinEq1:  Iter=  8 NonCon=     1 RMS=2.36D-08 Max=1.52D-07 NDo=     1
 LinEq1:  Iter=  9 NonCon=     1 RMS=4.52D-09 Max=2.62D-08 NDo=     1
 LinEq1:  Iter= 10 NonCon=     1 RMS=5.81D-10 Max=4.49D-09 NDo=     1
 LinEq1:  Iter= 11 NonCon=     0 RMS=6.96D-11 Max=3.24D-10 NDo=     1
 Linear equations converged to 1.000D-10 1.000D-09 after    11 iterations.
 End of Minotr F.D. properties file   721 does not exist.
 End of Minotr F.D. properties file   722 does not exist.
 End of Minotr F.D. properties file   788 does not exist.
 Calling FoFJK, ICntrl=  10002127 FMM=F ISym2X=1 I1Cent= 0 IOpClX= 0 NMat=1 NMatS=1 NMatT=0.
 ***** Axes restored to original set *****
 -------------------------------------------------------------------
 Center     Atomic                   Forces (Hartrees/Bohr)
 Number     Number              X              Y              Z
 -------------------------------------------------------------------
      1        8          -0.011489536    0.000000000    0.016226736
      2        1          -0.006564285    0.000000000    0.004773737
      3        1           0.017711242    0.000000000   -0.045875636
      4        8          -0.001420790    0.000000000    0.016978310
      5        1           0.003562136    0.000000000    0.015543783
      6        1          -0.001798767    0.000000000   -0.007646930
 -------------------------------------------------------------------
 Cartesian Forces:  Max     0.045875636 RMS     0.013915913

 GradGradGradGradGradGradGradGradGradGradGradGradGradGradGradGradGradGrad
 Berny optimization.
 Using GEDIIS/GDIIS optimizer.
 FormGI is forming the generalized inverse of G from B-inverse, IUseBI=4.
 Internal  Forces:  Max     0.045729700 RMS     0.020427669
 Search for a local minimum.
 Step number   5 out of a maximum of   24
 All quantities printed in internal units (Hartrees-Bohrs-Radians)
 Mixed Optimization -- RFO/linear search
 Update second derivatives using D2CorX and points    2    5    4
 DE=  1.23D-04 DEPred=-1.21D-02 R=-1.02D-02
 Trust test=-1.02D-02 RLast= 6.53D-01 DXMaxT set to 4.24D-01
 The second derivative matrix:
                          R1        R2        R3        R4        R5
           R1           0.50600
           R2           0.01457   0.64669
           R3           0.02315   0.04632   0.06259
           R4           0.01625   0.03655   0.01667   0.56901
           R5           0.00729   0.02429   0.00686   0.00932   0.56224
           A1           0.02542   0.01365   0.02891   0.00894  -0.00501
           A2           0.00990   0.02346  -0.04223   0.00638   0.00490
           A3          -0.00448  -0.00432   0.01323  -0.00087  -0.00275
           A4           0.01434  -0.02086   0.01250  -0.00131  -0.00740
           A5           0.00392   0.00373  -0.00107   0.00104   0.00128
           A6           0.00000   0.00000   0.00000   0.00000   0.00000
           A7           0.00000   0.00000   0.00000   0.00000   0.00000
           D1           0.00000   0.00000   0.00000   0.00000   0.00000
           D2           0.00000   0.00000   0.00000   0.00000   0.00000
                          A1        A2        A3        A4        A5
           A1           0.24469
           A2          -0.00833   0.14216
           A3           0.01400   0.00333   0.16225
           A4           0.05313  -0.01103   0.00639   0.04931
           A5          -0.00327  -0.00019  -0.00075  -0.00223   0.01575
           A6           0.00000   0.00000   0.00000   0.00000   0.00000
           A7           0.00000   0.00000   0.00000   0.00000   0.00000
           D1           0.00000   0.00000   0.00000   0.00000   0.00000
           D2           0.00000   0.00000   0.00000   0.00000   0.00000
                          A6        A7        D1        D2
           A6           0.00230
           A7           0.00000   0.01558
[...]
 Raman Activ --      0.2166                 0.1377                 0.2660
 Depolar (P) --      0.7500                 0.7500                 0.7234
 Depolar (U) --      0.8571                 0.8571                 0.8395
  Atom  AN      X      Y      Z        X      Y      Z        X      Y      Z
     1   8     0.00   0.00   0.04     0.00   0.00  -0.04    -0.02   0.12   0.00
     2   1     0.00   0.00   0.09     0.00   0.00  -0.10     0.39   0.07   0.00
     3   1     0.00   0.00  -0.31     0.00   0.00   0.71    -0.18  -0.29   0.00
     4   8     0.00   0.00  -0.10     0.00   0.00  -0.04     0.05  -0.08   0.00
     5   1     0.00   0.00   0.89     0.00   0.00  -0.01    -0.42   0.28   0.00
     6   1     0.00   0.00   0.29     0.00   0.00   0.70    -0.19  -0.64   0.00
                      4                      5                      6
                     A'                     A'                     A"
 Frequencies --    175.4349               402.9396               467.9187
 Red. masses --      2.7329                 1.0850                 1.0415
 Frc consts  --      0.0496                 0.1038                 0.1344
 IR Inten    --     26.9460               122.5555               140.4027
 Raman Activ --      0.0903                 0.3838                 0.6457
 Depolar (P) --      0.1540                 0.7471                 0.7500
 Depolar (U) --      0.2669                 0.8552                 0.8571
  Atom  AN      X      Y      Z        X      Y      Z        X      Y      Z
     1   8     0.01   0.23   0.00     0.02   0.03   0.00     0.00   0.00  -0.04
     2   1    -0.26   0.26   0.00     0.56  -0.03   0.00     0.00   0.00   0.99
     3   1     0.11   0.48   0.00    -0.22  -0.60   0.00     0.00   0.00   0.02
     4   8    -0.03  -0.25   0.00    -0.06   0.00   0.00     0.00   0.00  -0.02
     5   1     0.36  -0.56   0.00     0.26  -0.25   0.00     0.00   0.00  -0.11
     6   1     0.16   0.20   0.00     0.10   0.37   0.00     0.00   0.00   0.07
                      7                      8                      9
                     A'                     A'                     A'
 Frequencies --   1635.2286              1670.2030              3830.7221
 Red. masses --      1.0849                 1.0757                 1.0514
 Frc consts  --      1.7093                 1.7681                 9.0904
 IR Inten    --     69.3936                44.0456               217.0180
 Raman Activ --      2.4556                 6.0906               134.2445
 Depolar (P) --      0.7061                 0.4990                 0.1384
 Depolar (U) --      0.8277                 0.6658                 0.2432
  Atom  AN      X      Y      Z        X      Y      Z        X      Y      Z
     1   8     0.00   0.00   0.00     0.06   0.03   0.00    -0.03  -0.05   0.00
     2   1     0.02   0.00   0.00    -0.75   0.09   0.00     0.07   0.91   0.00
     3   1     0.01   0.02   0.00    -0.23  -0.61   0.00     0.36  -0.17   0.00
     4   8    -0.02   0.07   0.00     0.00   0.00   0.00     0.00  -0.01   0.00
     5   1     0.56  -0.43   0.00     0.00   0.00   0.00     0.04   0.05   0.00
     6   1    -0.28  -0.65   0.00    -0.01  -0.04   0.00    -0.06   0.03   0.00
                     10                     11                     12
                     A'                     A'                     A'
 Frequencies --   3883.5200              3982.5890              4004.4549
 Red. masses --      1.0458                 1.0760                 1.0818
 Frc consts  --      9.2927                10.0556                10.2208
 IR Inten    --     12.3404               109.4070                93.9448
 Raman Activ --     72.5175                42.0625                30.8809
 Depolar (P) --      0.0902                 0.5519                 0.7399
 Depolar (U) --      0.1655                 0.7112                 0.8505
  Atom  AN      X      Y      Z        X      Y      Z        X      Y      Z
     1   8     0.00   0.00   0.00     0.05  -0.05   0.00     0.00   0.00   0.00
     2   1     0.00  -0.08   0.00     0.06   0.38   0.00     0.00  -0.01   0.00
     3   1    -0.05   0.02   0.00    -0.85   0.34   0.00     0.01   0.00   0.00
     4   8     0.01  -0.05   0.00     0.00   0.00   0.00     0.07   0.02   0.00
     5   1     0.45   0.51   0.00    -0.02  -0.02   0.00    -0.45  -0.57   0.00
     6   1    -0.68   0.25   0.00     0.01   0.00   0.00    -0.63   0.27   0.00

 -------------------
 - Thermochemistry -
 -------------------
 Temperature   298.150 Kelvin.  Pressure   1.00000 Atm.
 Atom     1 has atomic number  8 and mass  15.99491
 Atom     2 has atomic number  1 and mass   1.00783
 Atom     3 has atomic number  1 and mass   1.00783
 Atom     4 has atomic number  8 and mass  15.99491
 Atom     5 has atomic number  1 and mass   1.00783
 Atom     6 has atomic number  1 and mass   1.00783
 Molecular mass:    36.02113 amu.
 Principal axes and moments of inertia in atomic units:
                           1         2         3
     Eigenvalues --     6.75530 287.21017 293.96548
           X           -0.02601   0.99966   0.00000
           Y            0.99966   0.02601   0.00000
           Z            0.00000   0.00000   1.00000
 This molecule is an asymmetric top.
 Rotational symmetry number  1.
 Rotational temperatures (Kelvin)     12.82160     0.30157     0.29464
 Rotational constants (GHZ):         267.15916     6.28370     6.13930
    2 imaginary frequencies ignored.
 Zero-point vibrational energy     120762.5 (Joules/Mol)
                                   28.86294 (Kcal/Mol)
 Warning -- explicit consideration of   4 degrees of freedom as
           vibrations may cause significant error
 Vibrational temperatures:    196.98   252.41   579.74   673.23  2352.73
          (Kelvin)           2403.05  5511.55  5587.51  5730.05  5761.51
 
 Zero-point correction=                           0.045996 (Hartree/Particle)
 Thermal correction to Energy=                    0.050656
 Thermal correction to Enthalpy=                  0.051600
 Thermal correction to Gibbs Free Energy=         0.020917
 Sum of electronic and zero-point Energies=           -152.549962
 Sum of electronic and thermal Energies=              -152.545302
 Sum of electronic and thermal Enthalpies=            -152.544358
 Sum of electronic and thermal Free Energies=         -152.575040
 
                     E (Thermal)             CV                S
                      KCal/Mol        Cal/Mol-Kelvin    Cal/Mol-Kelvin
 Total                   31.787             12.623             64.577
 Electronic               0.000              0.000              0.000
 Translational            0.889              2.981             36.674
 Rotational               0.889              2.981             20.972
 Vibrational             30.010              6.661              6.931
 Vibration     1          0.614              1.916              2.847
 Vibration     2          0.627              1.873              2.376
 Vibration     3          0.768              1.464              0.952
 Vibration     4          0.825              1.321              0.743
                       Q            Log10(Q)             Ln(Q)
 Total Bot       0.239185D-09         -9.621266        -22.153783
 Total V=0       0.343077D+12         11.535392         26.561221
 Vib (Bot)       0.329250D-20        -20.482474        -47.162639
 Vib (Bot)    1  0.148640D+01          0.172136          0.396358
 Vib (Bot)    2  0.114666D+01          0.059433          0.136850
 Vib (Bot)    3  0.441386D+00         -0.355181         -0.817835
 Vib (Bot)    4  0.361109D+00         -0.442362         -1.018575
 Vib (V=0)       0.472263D+01          0.674184          1.552365
 Vib (V=0)    1  0.206824D+01          0.315602          0.726700
 Vib (V=0)    2  0.175093D+01          0.243268          0.560146
 Vib (V=0)    3  0.116695D+01          0.067052          0.154393
 Vib (V=0)    4  0.111677D+01          0.047962          0.110437
 Electronic      0.100000D+01          0.000000          0.000000
 Translational   0.849750D+07          6.929291         15.955283
 Rotational      0.854903D+04          3.931917          9.053573
 ***** Axes restored to original set *****
 -------------------------------------------------------------------
 Center     Atomic                   Forces (Hartrees/Bohr)
 Number     Number              X              Y              Z
 -------------------------------------------------------------------
      1        8           0.000018617    0.000000000   -0.000002026
      2        1          -0.000010822    0.000000000    0.000008341
      3        1          -0.000009498    0.000000000   -0.000005691
      4        8          -0.000023644    0.000000000    0.000070067
      5        1          -0.000014299    0.000000000   -0.000045390
      6        1           0.000039645    0.000000000   -0.000025301
 -------------------------------------------------------------------
 Cartesian Forces:  Max     0.000070067 RMS     0.000024273

 GradGradGradGradGradGradGradGradGradGradGradGradGradGradGradGradGradGrad
 Berny optimization.
 Internal  Forces:  Max     0.000046238 RMS     0.000018586
 Search for a local minimum.
 Step number   1 out of a maximum of    2
 All quantities printed in internal units (Hartrees-Bohrs-Radians)
 Second derivative matrix not updated -- analytic derivatives used.
 The second derivative matrix:
                          R1        R2        R3        R4        R5
           R1           0.54117
           R2          -0.00727   0.56322
           R3           0.00828  -0.00051   0.00976
           R4          -0.00027  -0.00001   0.00060   0.56014
           R5          -0.00046   0.00001   0.00102  -0.00785   0.55802
           A1           0.02647   0.03053   0.00209   0.00050  -0.00002
           A2          -0.00016  -0.00025  -0.00061  -0.01016  -0.00779
           A3          -0.00184   0.00010   0.00147   0.01855   0.01781
           A4          -0.00167  -0.00094   0.00035  -0.00002   0.00045
           A5          -0.00200  -0.00015   0.00086   0.00839   0.01003
           A6           0.00000   0.00000   0.00000   0.00000   0.00000
           A7           0.00000   0.00000   0.00000   0.00000   0.00000
           D1           0.00000   0.00000   0.00000   0.00000   0.00000
           D2           0.00000   0.00000   0.00000   0.00000   0.00000
                          A1        A2        A3        A4        A5
           A1           0.14994
           A2          -0.00113   0.02141
           A3          -0.00039  -0.03537   0.07006
           A4          -0.00475   0.00339  -0.00074   0.00889
           A5          -0.00152  -0.01397   0.03469   0.00265   0.02072
           A6           0.00000   0.00000   0.00000   0.00000   0.00000
           A7           0.00000   0.00000   0.00000   0.00000   0.00000
           D1           0.00000   0.00000   0.00000   0.00000   0.00000
           D2           0.00000   0.00000   0.00000   0.00000   0.00000
                          A6        A7        D1        D2
           A6           0.00308
           A7          -0.00014  -0.00046
           D1          -0.00108  -0.00041  -0.00056
           D2           0.00019   0.00063   0.00057  -0.00086
 ITU=  0
     Eigenvalues ---   -0.00186  -0.00031   0.00338   0.00361   0.00949
     Eigenvalues ---    0.01225   0.10291   0.14606   0.54193   0.55339
     Eigenvalues ---    0.56666   0.56703
 Eigenvalue     1 is  -1.86D-03 should be greater than     0.000000 Eigenvector:
                          D2        D1        A7        A6        R3
   1                   -0.64986   0.56958   0.47638   0.16226   0.00000
                          A4        A2        A5        A3        R1
   1                    0.00000   0.00000   0.00000   0.00000   0.00000
 Eigenvalue     2 is  -3.15D-04 should be greater than     0.000000 Eigenvector:
                          D1        D2        A7        A6        R3
   1                   -0.77893  -0.47760   0.35010  -0.20638   0.00000
                          A4        A2        A5        A3        A1
   1                    0.00000   0.00000   0.00000   0.00000   0.00000
 Angle between quadratic step and forces=  57.04 degrees.
 Linear search not attempted -- first point.
 Iteration  1 RMS(Cart)=  0.00011369 RMS(Int)=  0.00000001
 Iteration  2 RMS(Cart)=  0.00000001 RMS(Int)=  0.00000000
 ClnCor:  largest displacement from symmetrization is 9.55D-12 for atom     4.
 Variable       Old X    -DE/DX   Delta X   Delta X   Delta X     New X
                                 (Linear)    (Quad)   (Total)
    R1        1.82191   0.00001   0.00000   0.00001   0.00001   1.82192
    R2        1.81026  -0.00001   0.00000  -0.00002  -0.00002   1.81024
    R3        3.72975   0.00000   0.00000  -0.00014  -0.00014   3.72961
    R4        1.81235  -0.00005   0.00000  -0.00009  -0.00009   1.81225
    R5        1.81357  -0.00005   0.00000  -0.00009  -0.00009   1.81348
    A1        1.80992   0.00001   0.00000   0.00009   0.00009   1.81001
    A2        2.02998  -0.00001   0.00000  -0.00024  -0.00024   2.02974
    A3        1.82861   0.00001   0.00000   0.00017   0.00017   1.82878
    A4        3.31693   0.00000   0.00000  -0.00010  -0.00010   3.31683
    A5        3.85859   0.00001   0.00000  -0.00007  -0.00007   3.85851
    A6        3.14159   0.00000   0.00000   0.00000   0.00000   3.14159
    A7        3.14159   0.00000   0.00000   0.00000   0.00000   3.14159
    D1        3.14159   0.00000   0.00000   0.00000   0.00000   3.14159
    D2        3.14159   0.00000   0.00000   0.00000   0.00000   3.14159
         Item               Value     Threshold  Converged?
 Maximum Force            0.000046     0.000450     YES
 RMS     Force            0.000019     0.000300     YES
 Maximum Displacement     0.000333     0.001800     YES
 RMS     Displacement     0.000114     0.001200     YES
 Predicted change in Energy=-7.292890D-09
 Optimization completed.
    -- Stationary point found.
                           ----------------------------
                           !   Optimized Parameters   !
                           ! (Angstroms and Degrees)  !
 --------------------------                            --------------------------
 ! Name  Definition              Value          Derivative Info.                !
 --------------------------------------------------------------------------------
 ! R1    R(1,2)                  0.9641         -DE/DX =    0.0                 !
 ! R2    R(1,3)                  0.9579         -DE/DX =    0.0                 !
 ! R3    R(2,4)                  1.9737         -DE/DX =    0.0                 !
 ! R4    R(4,5)                  0.9591         -DE/DX =    0.0                 !
 ! R5    R(4,6)                  0.9597         -DE/DX =    0.0                 !
 ! A1    A(2,1,3)              103.7008         -DE/DX =    0.0                 !
 ! A2    A(2,4,6)              116.3092         -DE/DX =    0.0                 !
 ! A3    A(5,4,6)              104.7715         -DE/DX =    0.0                 !
 ! A4    L(1,2,4,3,-1)         190.0461         -DE/DX =    0.0                 !
 ! A5    L(2,4,5,6,-1)         221.0806         -DE/DX =    0.0                 !
 ! A6    L(1,2,4,3,-2)         180.0            -DE/DX =    0.0                 !
 ! A7    L(2,4,5,6,-2)         180.0            -DE/DX =    0.0                 !
 ! D1    D(3,1,4,6)            180.0            -DE/DX =    0.0                 !
 ! D2    D(2,4,5,6)            180.0            -DE/DX =    0.0                 !
 --------------------------------------------------------------------------------
 GradGradGradGradGradGradGradGradGradGradGradGradGradGradGradGradGradGrad

 1\1\GINC-C13A-11\Freq\RMP2-Full\6-311+G(d,p)\H4O2\EPLUHAR\13-Oct-2016\
 0\\#N Geom=AllCheck Guess=TCheck SCRF=Check GenChk RMP2-Full/6-311+G(d
 ,p) Freq\\Title Card Required\\0,1\O,0.1340825528,0.,-0.3323071625\H,0
 .1363198678,0.,0.6318049734\H,1.064244637,0.,-0.5613574005\O,-0.203462
 8902,0.,2.5760363509\H,0.2928867024,0.,3.3966574285\H,-1.1241348998,0.
 ,2.8469356808\\Version=ES64L-G09RevD.01\State=1-A'\HF=-152.111995\MP2=
 -152.5959578\RMSD=5.483e-10\RMSF=2.427e-05\ZeroPoint=0.045996\Thermal=
 0.0506559\Dipole=0.33115,0.,1.4889678\DipoleDeriv=-0.4151303,0.,0.1000
 072,0.,-0.7630744,0.,0.1136721,0.,-0.6854542,0.2433563,0.,-0.1383911,0
 .,0.3549912,0.,-0.0819772,0.,0.5147862,0.1282517,0.,0.0017443,0.,0.370
 716,0.,-0.0627174,0.,0.2880805,-0.5235117,0.,-0.0292728,0.,-0.7318473,
 0.,-0.0236172,0.,-0.5333012,0.3088957,0.,0.0130937,0.,0.3884376,0.,-0.
 0094495,0.,0.1744354,0.2581383,0.,0.0528187,0.,0.3807771,0.,0.0640892,
 0.,0.2414533\Polar=14.9596211,0.,13.4882205,-0.7744357,0.,16.7582416\P
 olarDeriv=-6.8564994,0.,-1.2598534,-0.0116656,0.,-1.6787371,0.,0.20019
 42,0.,0.,0.1806403,0.,0.0397248,0.,-1.3131912,-1.2249185,0.,-7.8667927
 ,0.1678018,0.,0.4506272,1.1117202,0.,0.0075561,0.,-0.0815633,0.,0.,-0.
 5759767,0.,0.8637298,0.,0.9498837,-0.7393606,0.,9.6956686,6.9149112,0.
 ,0.7450602,-1.5244309,0.,1.4663075,0.,0.099375,0.,0.,-0.319116,0.,-0.9
 518298,0.,0.4479138,1.695836,0.,-0.9465558,3.9272103,0.,0.4014783,-2.8
 374469,0.,-0.6902322,0.,-0.3586401,0.,0.,0.5794899,0.,-3.1194342,0.,-1
 .0405537,-0.4748976,0.,-7.6012284,2.1585528,0.,0.2127568,1.7049885,0.,
 2.9380344,0.,0.5238162,0.,0.,0.1794373,0.,1.8468876,0.,0.6413837,1.922
 0222,0.,5.6825412,-6.3119767,0.,-0.5500691,1.5568347,0.,-2.0429286,0.,
 -0.383182,0.,0.,-0.0444749,0.,1.3209218,0.,0.3145638,-1.1786816,0.,1.0
 363671\HyperPolar=3.7969617,0.,-0.50613,0.,6.0522342,0.,-0.0571856,7.0
 668532,0.,27.2054949\DQPolar=-1.5012756,-2.7730229,4.2742985,0.,1.0495
 218,0.,0.,0.,0.,0.3529798,0.,-1.8485462,-1.7777879,-3.5211908,5.298978
 7,0.,3.657702,0.\Quadrupole=1.7588224,-3.0250335,1.2662111,0.,-3.02784
 76,0.\PG=CS [SG(H4O2)]\NImag=2\\0.56528025,0.,0.00338500,-0.11028581,0
 .,0.59926255,-0.04791128,0.,-0.03669987,0.05958130,0.,-0.00574810,0.,0
 .,0.00790286,0.02261807,0.,-0.52151293,-0.01379011,0.,0.53406494,-0.52
 022194,0.,0.14561781,-0.00580146,0.,-0.00979673,0.52580381,0.,0.000328
 81,0.,0.,0.00021228,0.,0.,-0.00032113,0.08543480,0.,-0.07060114,0.0506
 0400,0.,-0.01139049,-0.13507843,0.,0.08317604,0.00387805,0.,0.00053961
 ,-0.00747373,0.,0.00222412,0.00020757,0.,-0.00137979,0.68334201,0.,0.0
 0274617,0.,0.,-0.00188993,0.,0.,-0.00065891,0.,0.,-0.00336519,0.002618
 64,0.,-0.00579699,-0.00149457,0.,-0.00389240,-0.00048796,0.,-0.0009136
 7,0.08015230,0.,0.51622948,-0.00090018,0.,0.00159763,0.00183505,0.,-0.
 00320679,0.00005936,0.,0.00035152,-0.17756335,0.,-0.18832063,0.1989176
 1,0.,-0.00019166,0.,0.,-0.00102162,0.,0.,0.00044680,0.,0.,0.00245555,0
 .,0.,-0.00120118,0.00096591,0.,-0.00034262,-0.00187324,0.,0.00084075,-
 0.00012395,0.,-0.00052525,-0.24941648,0.,-0.41612256,0.23335277,0.,0.4
 1000625,-0.00012490,0.,-0.00076937,-0.00022988,0.,0.00195145,-0.000047
 34,0.,0.00006789,-0.50239055,0.,0.10753222,-0.02234849,0.,0.01709498,0
 .52514116,0.,-0.00052023,0.,0.,0.00054451,0.,0.,-0.00000786,0.,0.,0.00
 071230,0.,0.,-0.00048789,0.,0.,-0.00024083,-0.00135161,0.,-0.00100887,
 0.00325378,0.,0.00189013,-0.00013074,0.,0.00025451,0.16788023,0.,-0.08
 950386,-0.04377450,0.,0.00614345,-0.12587716,0.,0.08222464\\-0.0000186
 2,0.,0.00000203,0.00001082,0.,-0.00000834,0.00000950,0.,0.00000569,0.0
 0002364,0.,-0.00007007,0.00001430,0.,0.00004539,-0.00003965,0.,0.00002
 530\\\@


 THE MORE PROGRESS PHYSICAL SCIENCES MAKE, THE MORE THEY TEND TO ENTER
 THE DOMAIN OF MATHEMATICS, WHICH IS A KIND OF CENTRE TO WHICH THEY ALL
 CONVERGE.  WE MAY EVEN JUDGE THE DEGREE OF PERFECTION TO WHICH A 
 SCIENCE HAS ARRIVED BY THE FACILITY WITH WHICH IT MAY BE SUBMITTED
 TO CALCULATION.

                               -- ADOLPHE QUETELET, 1796-1874
 Job cpu time:       0 days  0 hours  8 minutes 30.2 seconds.
 File lengths (MBytes):  RWF=    195 Int=      0 D2E=      0 Chk=     39 Scr=      1
 Normal termination of Gaussian 09 at Thu Oct 13 12:06:48 2016.
