 Entering Gaussian System, Link 0=g09
 Initial command:
 /share/sw/gaussian/D.01/g09/l1.exe "/local/scratch/epluhar/Gau-1888.inp" -scrdir="/local/scratch/epluhar/"
 Entering Link 1 = /share/sw/gaussian/D.01/g09/l1.exe PID=      1890.
  
 Copyright (c) 1988,1990,1992,1993,1995,1998,2003,2009,2013,
            Gaussian, Inc.  All Rights Reserved.
  
 This is part of the Gaussian(R) 09 program.  It is based on
 the Gaussian(R) 03 system (copyright 2003, Gaussian, Inc.),
 the Gaussian(R) 98 system (copyright 1998, Gaussian, Inc.),
 the Gaussian(R) 94 system (copyright 1995, Gaussian, Inc.),
 the Gaussian 92(TM) system (copyright 1992, Gaussian, Inc.),
 the Gaussian 90(TM) system (copyright 1990, Gaussian, Inc.),
 the Gaussian 88(TM) system (copyright 1988, Gaussian, Inc.),
 the Gaussian 86(TM) system (copyright 1986, Carnegie Mellon
 University), and the Gaussian 82(TM) system (copyright 1983,
 Carnegie Mellon University). Gaussian is a federally registered
 trademark of Gaussian, Inc.
  
 This software contains proprietary and confidential information,
 including trade secrets, belonging to Gaussian, Inc.
  
 This software is provided under written license and may be
 used, copied, transmitted, or stored only in accord with that
 written license.
  
 The following legend is applicable only to US Government
 contracts under FAR:
  
                    RESTRICTED RIGHTS LEGEND
  
 Use, reproduction and disclosure by the US Government is
 subject to restrictions as set forth in subparagraphs (a)
 and (c) of the Commercial Computer Software - Restricted
 Rights clause in FAR 52.227-19.
  
 Gaussian, Inc.
 340 Quinnipiac St., Bldg. 40, Wallingford CT 06492
  
  
 ---------------------------------------------------------------
 Warning -- This program may not be used in any manner that
 competes with the business of Gaussian, Inc. or will provide
 assistance to any competitor of Gaussian, Inc.  The licensee
 of this program is prohibited from giving any competitor of
 Gaussian, Inc. access to this program.  By using this program,
 the user acknowledges that Gaussian, Inc. is engaged in the
 business of creating and licensing software in the field of
 computational chemistry and represents and warrants to the
 licensee that it is not a competitor of Gaussian, Inc. and that
 it will not use this program in any manner prohibited above.
 ---------------------------------------------------------------
  

 Cite this work as:
 Gaussian 09, Revision D.01,
 M. J. Frisch, G. W. Trucks, H. B. Schlegel, G. E. Scuseria, 
 M. A. Robb, J. R. Cheeseman, G. Scalmani, V. Barone, B. Mennucci, 
 G. A. Petersson, H. Nakatsuji, M. Caricato, X. Li, H. P. Hratchian, 
 A. F. Izmaylov, J. Bloino, G. Zheng, J. L. Sonnenberg, M. Hada, 
 M. Ehara, K. Toyota, R. Fukuda, J. Hasegawa, M. Ishida, T. Nakajima, 
 Y. Honda, O. Kitao, H. Nakai, T. Vreven, J. A. Montgomery, Jr., 
 J. E. Peralta, F. Ogliaro, M. Bearpark, J. J. Heyd, E. Brothers, 
 K. N. Kudin, V. N. Staroverov, T. Keith, R. Kobayashi, J. Normand, 
 K. Raghavachari, A. Rendell, J. C. Burant, S. S. Iyengar, J. Tomasi, 
 M. Cossi, N. Rega, J. M. Millam, M. Klene, J. E. Knox, J. B. Cross, 
 V. Bakken, C. Adamo, J. Jaramillo, R. Gomperts, R. E. Stratmann, 
 O. Yazyev, A. J. Austin, R. Cammi, C. Pomelli, J. W. Ochterski, 
 R. L. Martin, K. Morokuma, V. G. Zakrzewski, G. A. Voth, 
 P. Salvador, J. J. Dannenberg, S. Dapprich, A. D. Daniels, 
 O. Farkas, J. B. Foresman, J. V. Ortiz, J. Cioslowski, 
 and D. J. Fox, Gaussian, Inc., Wallingford CT, 2013.
 
 ******************************************
 Gaussian 09:  ES64L-G09RevD.01 24-Apr-2013
                14-Oct-2016 
 ******************************************
 %mem=3GB
 %nprocshared=16
 Will use up to   16 processors via shared memory.
 %chk=Li+OH2b3lyp
 --------------------------------------------
 # opt freq b3lyp/6-311+g** geom=connectivity
 --------------------------------------------
 1/14=-1,18=20,19=15,26=3,38=1,57=2/1,3;
 2/9=110,12=2,17=6,18=5,40=1/2;
 3/5=4,6=6,7=111,11=2,16=1,25=1,30=1,71=1,74=-5/1,2,3;
 4//1;
 5/5=2,38=5/2;
 6/7=2,8=2,9=2,10=2,28=1/1;
 7//1,2,3,16;
 1/14=-1,18=20,19=15,26=3/3(2);
 2/9=110/2;
 99//99;
 2/9=110/2;
 3/5=4,6=6,7=111,11=2,16=1,25=1,30=1,71=1,74=-5/1,2,3;
 4/5=5,16=3,69=1/1;
 5/5=2,38=5/2;
 7//1,2,3,16;
 1/14=-1,18=20,19=15,26=3/3(-5);
 2/9=110/2;
 6/7=2,8=2,9=2,10=2,19=2,28=1/1;
 99/9=1/99;
 -------------------
 Title Card Required
 -------------------
 Symbolic Z-matrix:
 Charge =  1 Multiplicity = 1
 O
 H                    1    B1
 H                    1    B2       2    A1
 Li                   1    B3       2    A2       3    D1       0
       Variables:
  B1                    0.96                     
  B2                    0.96                     
  B3                    1.33794                  
  A1                  109.5                      
  A2                  129.74452                  
  D1                  180.                       
 

 GradGradGradGradGradGradGradGradGradGradGradGradGradGradGradGradGradGrad
 Berny optimization.
 Initialization pass.
                           ----------------------------
                           !    Initial Parameters    !
                           ! (Angstroms and Degrees)  !
 --------------------------                            --------------------------
 ! Name  Definition              Value          Derivative Info.                !
 --------------------------------------------------------------------------------
 ! R1    R(1,2)                  0.96           estimate D2E/DX2                !
 ! R2    R(1,3)                  0.96           estimate D2E/DX2                !
 ! R3    R(1,4)                  1.3379         estimate D2E/DX2                !
 ! A1    A(2,1,3)              109.5            estimate D2E/DX2                !
 ! A2    A(2,1,4)              129.7445         estimate D2E/DX2                !
 ! A3    A(3,1,4)              120.7555         estimate D2E/DX2                !
 ! D1    D(2,1,4,3)            180.0            estimate D2E/DX2                !
 --------------------------------------------------------------------------------
 Trust Radius=3.00D-01 FncErr=1.00D-07 GrdErr=1.00D-06
 Number of steps in this run=     20 maximum allowed number of steps=    100.
 GradGradGradGradGradGradGradGradGradGradGradGradGradGradGradGradGradGrad

                          Input orientation:                          
 ---------------------------------------------------------------------
 Center     Atomic      Atomic             Coordinates (Angstroms)
 Number     Number       Type             X           Y           Z
 ---------------------------------------------------------------------
      1          8           0        0.000000    0.000000    0.000000
      2          1           0        0.000000    0.000000    0.960000
      3          1           0        0.904936    0.000000   -0.320455
      4          3           0       -1.028744    0.000000   -0.855431
 ---------------------------------------------------------------------
                    Distance matrix (angstroms):
                    1          2          3          4
     1  O    0.000000
     2  H    0.960000   0.000000
     3  H    0.960000   1.567952   0.000000
     4  Li   1.337938   2.086649   2.006320   0.000000
 Stoichiometry    H2LiO(1+)
 Framework group  CS[SG(H2LiO)]
 Deg. of freedom     5
 Full point group                 CS      NOp   2
 Largest Abelian subgroup         CS      NOp   2
 Largest concise Abelian subgroup C1      NOp   1
                         Standard orientation:                         
 ---------------------------------------------------------------------
 Center     Atomic      Atomic             Coordinates (Angstroms)
 Number     Number       Type             X           Y           Z
 ---------------------------------------------------------------------
      1          8           0        0.006680   -0.223777    0.000000
      2          1           0        0.744827   -0.837568    0.000000
      3          1           0       -0.818303   -0.714697    0.000000
      4          3           0        0.006680    1.114161    0.000000
 ---------------------------------------------------------------------
 Rotational constants (GHZ):    409.3132016     48.3773607     43.2639299
 Standard basis: 6-311+G(d,p) (5D, 7F)
 There are    44 symmetry adapted cartesian basis functions of A'  symmetry.
 There are    14 symmetry adapted cartesian basis functions of A"  symmetry.
 There are    42 symmetry adapted basis functions of A'  symmetry.
 There are    14 symmetry adapted basis functions of A"  symmetry.
    56 basis functions,    88 primitive gaussians,    58 cartesian basis functions
     6 alpha electrons        6 beta electrons
       nuclear repulsion energy        20.2015958528 Hartrees.
 NAtoms=    4 NActive=    4 NUniq=    4 SFac= 1.00D+00 NAtFMM=   60 NAOKFM=F Big=F
 Integral buffers will be    131072 words long.
 Raffenetti 2 integral format.
 Two-electron integral symmetry is turned on.
 One-electron integrals computed using PRISM.
 NBasis=    56 RedAO= T EigKep=  2.04D-03  NBF=    42    14
 NBsUse=    56 1.00D-06 EigRej= -1.00D+00 NBFU=    42    14
 ExpMin= 7.40D-03 ExpMax= 8.59D+03 ExpMxC= 1.30D+03 IAcc=3 IRadAn=         5 AccDes= 0.00D+00
 Harris functional with IExCor=  402 and IRadAn=       5 diagonalized for initial guess.
 HarFok:  IExCor=  402 AccDes= 0.00D+00 IRadAn=         5 IDoV= 1 UseB2=F ITyADJ=14
 ICtDFT=  3500011 ScaDFX=  1.000000  1.000000  1.000000  1.000000
 FoFCou: FMM=F IPFlag=           0 FMFlag=      100000 FMFlg1=           0
         NFxFlg=           0 DoJE=T BraDBF=F KetDBF=T FulRan=T
         wScrn=  0.000000 ICntrl=     500 IOpCl=  0 I1Cent=   200000004 NGrid=           0
         NMat0=    1 NMatS0=      1 NMatT0=    0 NMatD0=    1 NMtDS0=    0 NMtDT0=    0
 Petite list used in FoFCou.
 Initial guess orbital symmetries:
       Occupied  (A') (A') (A') (A') (A') (A")
       Virtual   (A') (A') (A') (A") (A') (A') (A') (A") (A') (A')
                 (A") (A') (A') (A') (A") (A') (A') (A') (A') (A")
                 (A") (A') (A') (A') (A') (A") (A') (A') (A") (A')
                 (A') (A") (A') (A') (A") (A') (A') (A') (A') (A')
                 (A") (A") (A') (A') (A') (A') (A") (A') (A') (A')
 The electronic state of the initial guess is 1-A'.
 Keep R1 ints in memory in symmetry-blocked form, NReq=2185622.
 Requested convergence on RMS density matrix=1.00D-08 within 128 cycles.
 Requested convergence on MAX density matrix=1.00D-06.
 Requested convergence on             energy=1.00D-06.
 No special actions if energy rises.
 SCF Done:  E(RB3LYP) =  -83.7300795312     A.U. after    8 cycles
            NFock=  8  Conv=0.71D-08     -V/T= 1.9966

 **********************************************************************

            Population analysis using the SCF density.

 **********************************************************************

 Orbital symmetries:
       Occupied  (A') (A') (A') (A') (A') (A")
       Virtual   (A') (A') (A') (A") (A') (A') (A') (A") (A') (A')
                 (A") (A') (A') (A') (A") (A') (A') (A') (A') (A")
                 (A") (A') (A') (A') (A') (A") (A') (A') (A') (A")
                 (A') (A") (A') (A') (A") (A') (A') (A') (A') (A')
                 (A") (A") (A') (A') (A') (A') (A") (A') (A') (A')
 The electronic state is 1-A'.
 Alpha  occ. eigenvalues --  -19.40520  -2.24030  -1.31479  -0.84351  -0.72034
 Alpha  occ. eigenvalues --   -0.62963
 Alpha virt. eigenvalues --   -0.22973  -0.17679  -0.15374  -0.13940  -0.12430
 Alpha virt. eigenvalues --   -0.08067  -0.06741  -0.06708  -0.06075  -0.03978
 Alpha virt. eigenvalues --   -0.03742  -0.02615  -0.02013  -0.00711   0.01395
 Alpha virt. eigenvalues --    0.01683   0.07089   0.17635   0.21908   0.24059
 Alpha virt. eigenvalues --    0.24685   0.29819   0.30789   0.31626   0.32366
 Alpha virt. eigenvalues --    0.37541   0.48078   0.50428   0.76539   0.78526
 Alpha virt. eigenvalues --    0.89317   1.00550   1.22945   1.26473   1.44986
 Alpha virt. eigenvalues --    1.45599   1.77183   1.86555   2.16928   2.41149
 Alpha virt. eigenvalues --    2.78348   2.85975   2.90591   3.42551   3.59674
 Alpha virt. eigenvalues --    4.10163   4.67588   5.11310   5.37541  49.64560
          Condensed to atoms (all electrons):
               1          2          3          4
     1  O    7.311126   0.354167   0.347081   0.267791
     2  H    0.354167   0.329027  -0.018841  -0.020505
     3  H    0.347081  -0.018841   0.342957  -0.020406
     4  Li   0.267791  -0.020505  -0.020406   2.198315
 Mulliken charges:
               1
     1  O   -0.280166
     2  H    0.356151
     3  H    0.349209
     4  Li   0.574805
 Sum of Mulliken charges =   1.00000
 Mulliken charges with hydrogens summed into heavy atoms:
               1
     1  O    0.425195
     4  Li   0.574805
 Electronic spatial extent (au):  <R**2>=             31.2939
 Charge=              1.0000 electrons
 Dipole moment (field-independent basis, Debye):
    X=             -0.1294    Y=              2.2634    Z=              0.0000  Tot=              2.2671
 Quadrupole moment (field-independent basis, Debye-Ang):
   XX=             -3.9844   YY=              1.2124   ZZ=             -7.8014
   XY=             -0.0985   XZ=              0.0000   YZ=              0.0000
 Traceless Quadrupole moment (field-independent basis, Debye-Ang):
   XX=             -0.4600   YY=              4.7368   ZZ=             -4.2769
   XY=             -0.0985   XZ=              0.0000   YZ=              0.0000
 Octapole moment (field-independent basis, Debye-Ang**2):
  XXX=             -0.3481  YYY=              7.9648  ZZZ=              0.0000  XYY=              0.3229
  XXY=             -1.1284  XXZ=              0.0000  XZZ=             -0.0147  YZZ=              1.2954
  YYZ=              0.0000  XYZ=              0.0000
 Hexadecapole moment (field-independent basis, Debye-Ang**3):
 XXXX=             -5.1816 YYYY=             -4.3905 ZZZZ=             -6.7636 XXXY=              0.1185
 XXXZ=              0.0000 YYYX=             -0.3239 YYYZ=              0.0000 ZZZX=              0.0000
 ZZZY=              0.0000 XXYY=             -1.4036 XXZZ=             -2.3752 YYZZ=             -3.3124
 XXYZ=              0.0000 YYXZ=              0.0000 ZZXY=              0.0078
 N-N= 2.020159585276D+01 E-N=-2.350939330825D+02  KE= 8.401615409427D+01
 Symmetry A'   KE= 7.950326868006D+01
 Symmetry A"   KE= 4.512885414208D+00
 Calling FoFJK, ICntrl=      2127 FMM=F ISym2X=1 I1Cent= 0 IOpClX= 0 NMat=1 NMatS=1 NMatT=0.
 ***** Axes restored to original set *****
 -------------------------------------------------------------------
 Center     Atomic                   Forces (Hartrees/Bohr)
 Number     Number              X              Y              Z
 -------------------------------------------------------------------
      1        8           0.151237535    0.000000000    0.127255850
      2        1           0.010049969    0.000000000    0.010877230
      3        1           0.015577366    0.000000000    0.007157361
      4        3          -0.176864869    0.000000000   -0.145290441
 -------------------------------------------------------------------
 Cartesian Forces:  Max     0.176864869 RMS     0.087545481

 GradGradGradGradGradGradGradGradGradGradGradGradGradGradGradGradGradGrad
 Berny optimization.
 FormGI is forming the generalized inverse of G from B-inverse, IUseBI=4.
 Internal  Forces:  Max     0.228885666 RMS     0.086956036
 Search for a local minimum.
 Step number   1 out of a maximum of   20
 All quantities printed in internal units (Hartrees-Bohrs-Radians)
 Mixed Optimization -- RFO/linear search
 Second derivative matrix not updated -- first step.
 The second derivative matrix:
                          R1        R2        R3        A1        A2
           R1           0.55473
           R2           0.00000   0.55473
           R3           0.00000   0.00000   0.57670
           A1           0.00000   0.00000   0.00000   0.16000
           A2           0.00000   0.00000   0.00000   0.00000   0.16000
           A3           0.00000   0.00000   0.00000   0.00000   0.00000
           D1           0.00000   0.00000   0.00000   0.00000   0.00000
                          A3        D1
           A3           0.16000
           D1           0.00000   0.08203
 ITU=  0
     Eigenvalues ---    0.08203   0.16000   0.16000   0.55473   0.55473
     Eigenvalues ---    0.57670
 RFO step:  Lambda=-8.11816270D-02 EMin= 8.20272705D-02
 Linear search not attempted -- first point.
 Maximum step size (   0.300) exceeded in Quadratic search.
    -- Step size scaled by   0.844
 Iteration  1 RMS(Cart)=  0.07647933 RMS(Int)=  0.03537554
 Iteration  2 RMS(Cart)=  0.03063848 RMS(Int)=  0.00000731
 Iteration  3 RMS(Cart)=  0.00000750 RMS(Int)=  0.00000000
 Iteration  4 RMS(Cart)=  0.00000000 RMS(Int)=  0.00000000
 ClnCor:  largest displacement from symmetrization is 6.42D-10 for atom     1.
 Variable       Old X    -DE/DX   Delta X   Delta X   Delta X     New X
                                 (Linear)    (Quad)   (Total)
    R1        1.81414   0.01088   0.00000   0.01443   0.01443   1.82857
    R2        1.81414   0.01229   0.00000   0.01632   0.01632   1.83045
    R3        2.52834   0.22889   0.00000   0.29360   0.29360   2.82194
    A1        1.91114  -0.01330   0.00000  -0.04654  -0.04654   1.86459
    A2        2.26447   0.00493   0.00000   0.01724   0.01724   2.28171
    A3        2.10758   0.00838   0.00000   0.02931   0.02931   2.13689
    D1        3.14159   0.00000   0.00000   0.00000   0.00000   3.14159
         Item               Value     Threshold  Converged?
 Maximum Force            0.228886     0.000450     NO 
 RMS     Force            0.086956     0.000300     NO 
 Maximum Displacement     0.191361     0.001800     NO 
 RMS     Displacement     0.106701     0.001200     NO 
 Predicted change in Energy=-4.325485D-02
 GradGradGradGradGradGradGradGradGradGradGradGradGradGradGradGradGradGrad

                          Input orientation:                          
 ---------------------------------------------------------------------
 Center     Atomic      Atomic             Coordinates (Angstroms)
 Number     Number       Type             X           Y           Z
 ---------------------------------------------------------------------
      1          8           0        0.021647    0.000000    0.016768
      2          1           0        0.041827    0.000000    0.984196
      3          1           0        0.942725    0.000000   -0.283011
      4          3           0       -1.130008    0.000000   -0.933839
 ---------------------------------------------------------------------
                    Distance matrix (angstroms):
                    1          2          3          4
     1  O    0.000000
     2  H    0.967639   0.000000
     3  H    0.968634   1.554809   0.000000
     4  Li   1.493306   2.247678   2.172510   0.000000
 Stoichiometry    H2LiO(1+)
 Framework group  CS[SG(H2LiO)]
 Deg. of freedom     5
 Full point group                 CS      NOp   2
 Largest Abelian subgroup         CS      NOp   2
 Largest concise Abelian subgroup C1      NOp   1
                         Standard orientation:                         
 ---------------------------------------------------------------------
 Center     Atomic      Atomic             Coordinates (Angstroms)
 Number     Number       Type             X           Y           Z
 ---------------------------------------------------------------------
      1          8           0        0.006483   -0.256077    0.000000
      2          1           0        0.739730   -0.887484    0.000000
      3          1           0       -0.811048   -0.775590    0.000000
      4          3           0        0.006483    1.237229    0.000000
 ---------------------------------------------------------------------
 Rotational constants (GHZ):    415.8977176     39.3273378     35.9298106
 Standard basis: 6-311+G(d,p) (5D, 7F)
 There are    44 symmetry adapted cartesian basis functions of A'  symmetry.
 There are    14 symmetry adapted cartesian basis functions of A"  symmetry.
 There are    42 symmetry adapted basis functions of A'  symmetry.
 There are    14 symmetry adapted basis functions of A"  symmetry.
    56 basis functions,    88 primitive gaussians,    58 cartesian basis functions
     6 alpha electrons        6 beta electrons
       nuclear repulsion energy        19.0276740258 Hartrees.
 NAtoms=    4 NActive=    4 NUniq=    4 SFac= 1.00D+00 NAtFMM=   60 NAOKFM=F Big=F
 Integral buffers will be    131072 words long.
 Raffenetti 2 integral format.
 Two-electron integral symmetry is turned on.
 One-electron integrals computed using PRISM.
 NBasis=    56 RedAO= T EigKep=  2.76D-03  NBF=    42    14
 NBsUse=    56 1.00D-06 EigRej= -1.00D+00 NBFU=    42    14
 Initial guess from the checkpoint file:  "Li+OH2b3lyp.chk"
 B after Tr=     0.000000    0.000000    0.000000
         Rot=    0.999999    0.000000    0.000000   -0.001028 Ang=  -0.12 deg.
 Initial guess orbital symmetries:
       Occupied  (A') (A') (A') (A') (A') (A")
       Virtual   (A') (A') (A') (A') (A') (A') (A') (A') (A') (A')
                 (A') (A') (A') (A') (A') (A') (A') (A') (A') (A')
                 (A') (A') (A') (A') (A') (A') (A') (A') (A') (A')
                 (A') (A') (A') (A') (A') (A') (A') (A") (A") (A")
                 (A") (A") (A") (A") (A") (A") (A") (A") (A") (A")
 ExpMin= 7.40D-03 ExpMax= 8.59D+03 ExpMxC= 1.30D+03 IAcc=3 IRadAn=         5 AccDes= 0.00D+00
 Harris functional with IExCor=  402 and IRadAn=       5 diagonalized for initial guess.
 HarFok:  IExCor=  402 AccDes= 0.00D+00 IRadAn=         5 IDoV= 1 UseB2=F ITyADJ=14
 ICtDFT=  3500011 ScaDFX=  1.000000  1.000000  1.000000  1.000000
 FoFCou: FMM=F IPFlag=           0 FMFlag=      100000 FMFlg1=           0
         NFxFlg=           0 DoJE=T BraDBF=F KetDBF=T FulRan=T
         wScrn=  0.000000 ICntrl=     500 IOpCl=  0 I1Cent=   200000004 NGrid=           0
         NMat0=    1 NMatS0=      1 NMatT0=    0 NMatD0=    1 NMtDS0=    0 NMtDT0=    0
 Petite list used in FoFCou.
 Keep R1 ints in memory in symmetry-blocked form, NReq=2185622.
 Requested convergence on RMS density matrix=1.00D-08 within 128 cycles.
 Requested convergence on MAX density matrix=1.00D-06.
 Requested convergence on             energy=1.00D-06.
 No special actions if energy rises.
 SCF Done:  E(RB3LYP) =  -83.7770980813     A.U. after    8 cycles
            NFock=  8  Conv=0.23D-08     -V/T= 2.0005
 Calling FoFJK, ICntrl=      2127 FMM=F ISym2X=1 I1Cent= 0 IOpClX= 0 NMat=1 NMatS=1 NMatT=0.
 ***** Axes restored to original set *****
 -------------------------------------------------------------------
 Center     Atomic                   Forces (Hartrees/Bohr)
 Number     Number              X              Y              Z
 -------------------------------------------------------------------
      1        8           0.071169724    0.000000000    0.056235525
      2        1           0.003423894    0.000000000    0.001617732
      3        1           0.003492696    0.000000000    0.004738038
      4        3          -0.078086313    0.000000000   -0.062591294
 -------------------------------------------------------------------
 Cartesian Forces:  Max     0.078086313 RMS     0.039042385

 GradGradGradGradGradGradGradGradGradGradGradGradGradGradGradGradGradGrad
 Berny optimization.
 Using GEDIIS/GDIIS optimizer.
 FormGI is forming the generalized inverse of G from B-inverse, IUseBI=4.
 Internal  Forces:  Max     0.100065442 RMS     0.037933216
 Search for a local minimum.
 Step number   2 out of a maximum of   20
 All quantities printed in internal units (Hartrees-Bohrs-Radians)
 Mixed Optimization -- RFO/linear search
 Update second derivatives using D2CorX and points    1    2
 DE= -4.70D-02 DEPred=-4.33D-02 R= 1.09D+00
 TightC=F SS=  1.41D+00  RLast= 3.00D-01 DXNew= 5.0454D-01 9.0000D-01
 Trust test= 1.09D+00 RLast= 3.00D-01 DXMaxT set to 5.05D-01
 The second derivative matrix:
                          R1        R2        R3        A1        A2
           R1           0.55565
           R2           0.00105   0.55593
           R3           0.00377   0.00444   0.43823
           A1          -0.00068  -0.00078  -0.00111   0.16049
           A2           0.00056   0.00064   0.00478  -0.00045   0.16031
           A3           0.00012   0.00014  -0.00367  -0.00004   0.00014
           D1           0.00000   0.00000   0.00000   0.00000   0.00000
                          A3        D1
           A3           0.15990
           D1           0.00000   0.08203
 ITU=  1  0
 Use linear search instead of GDIIS.
 Linear search step of   0.600 exceeds DXMaxT=   0.505 but not scaled.
 Quartic linear search produced a step of  2.00000.
 Iteration  1 RMS(Cart)=  0.09000716 RMS(Int)=  0.14634069
 Iteration  2 RMS(Cart)=  0.06546679 RMS(Int)=  0.07074140
 Iteration  3 RMS(Cart)=  0.06126062 RMS(Int)=  0.00001233
 Iteration  4 RMS(Cart)=  0.00001357 RMS(Int)=  0.00000000
 Iteration  5 RMS(Cart)=  0.00000000 RMS(Int)=  0.00000000
 ClnCor:  largest displacement from symmetrization is 1.10D-09 for atom     1.
 Variable       Old X    -DE/DX   Delta X   Delta X   Delta X     New X
                                 (Linear)    (Quad)   (Total)
    R1        1.82857   0.00169   0.02887   0.00000   0.02887   1.85744
    R2        1.83045   0.00185   0.03263   0.00000   0.03263   1.86308
    R3        2.82194   0.10007   0.58721   0.00000   0.58721   3.40915
    A1        1.86459  -0.00547  -0.09308   0.00000  -0.09308   1.77151
    A2        2.28171   0.00072   0.03447   0.00000   0.03447   2.31618
    A3        2.13689   0.00476   0.05861   0.00000   0.05861   2.19550
    D1        3.14159   0.00000   0.00000   0.00000   0.00000   3.14159
         Item               Value     Threshold  Converged?
 Maximum Force            0.100065     0.000450     NO 
 RMS     Force            0.037933     0.000300     NO 
 Maximum Displacement     0.383950     0.001800     NO 
 RMS     Displacement     0.213545     0.001200     NO 
 Predicted change in Energy=-1.765431D-02
 GradGradGradGradGradGradGradGradGradGradGradGradGradGradGradGradGradGrad

                          Input orientation:                          
 ---------------------------------------------------------------------
 Center     Atomic      Atomic             Coordinates (Angstroms)
 Number     Number       Type             X           Y           Z
 ---------------------------------------------------------------------
      1          8           0        0.065515    0.000000    0.049579
      2          1           0        0.126221    0.000000    1.030618
      3          1           0        1.017641    0.000000   -0.206271
      4          3           0       -1.333186    0.000000   -1.089811
 ---------------------------------------------------------------------
                    Distance matrix (angstroms):
                    1          2          3          4
     1  O    0.000000
     2  H    0.982916   0.000000
     3  H    0.985901   1.524638   0.000000
     4  Li   1.804043   2.574119   2.511379   0.000000
 Stoichiometry    H2LiO(1+)
 Framework group  CS[SG(H2LiO)]
 Deg. of freedom     5
 Full point group                 CS      NOp   2
 Largest Abelian subgroup         CS      NOp   2
 Largest concise Abelian subgroup C1      NOp   1
                         Standard orientation:                         
 ---------------------------------------------------------------------
 Center     Atomic      Atomic             Coordinates (Angstroms)
 Number     Number       Type             X           Y           Z
 ---------------------------------------------------------------------
      1          8           0        0.005956   -0.320681    0.000000
      2          1           0        0.728230   -0.987348    0.000000
      3          1           0       -0.793747   -0.897289    0.000000
      4          3           0        0.005956    1.483362    0.000000
 ---------------------------------------------------------------------
 Rotational constants (GHZ):    431.9354399     27.4357931     25.7971995
 Standard basis: 6-311+G(d,p) (5D, 7F)
 There are    44 symmetry adapted cartesian basis functions of A'  symmetry.
 There are    14 symmetry adapted cartesian basis functions of A"  symmetry.
 There are    42 symmetry adapted basis functions of A'  symmetry.
 There are    14 symmetry adapted basis functions of A"  symmetry.
    56 basis functions,    88 primitive gaussians,    58 cartesian basis functions
     6 alpha electrons        6 beta electrons
       nuclear repulsion energy        17.2367854282 Hartrees.
 NAtoms=    4 NActive=    4 NUniq=    4 SFac= 1.00D+00 NAtFMM=   60 NAOKFM=F Big=F
 Integral buffers will be    131072 words long.
 Raffenetti 2 integral format.
 Two-electron integral symmetry is turned on.
 One-electron integrals computed using PRISM.
 NBasis=    56 RedAO= T EigKep=  4.04D-03  NBF=    42    14
 NBsUse=    56 1.00D-06 EigRej= -1.00D+00 NBFU=    42    14
 Initial guess from the checkpoint file:  "Li+OH2b3lyp.chk"
 B after Tr=     0.000000    0.000000    0.000000
         Rot=    0.999999    0.000000    0.000000   -0.001702 Ang=  -0.20 deg.
 Initial guess orbital symmetries:
       Occupied  (A') (A') (A') (A') (A') (A")
       Virtual   (A') (A') (A') (A') (A') (A') (A') (A') (A') (A')
                 (A') (A') (A') (A') (A') (A') (A') (A') (A') (A')
                 (A') (A') (A') (A') (A') (A') (A') (A') (A') (A')
                 (A') (A') (A') (A') (A') (A') (A') (A") (A") (A")
                 (A") (A") (A") (A") (A") (A") (A") (A") (A") (A")
 ExpMin= 7.40D-03 ExpMax= 8.59D+03 ExpMxC= 1.30D+03 IAcc=3 IRadAn=         5 AccDes= 0.00D+00
 Harris functional with IExCor=  402 and IRadAn=       5 diagonalized for initial guess.
 HarFok:  IExCor=  402 AccDes= 0.00D+00 IRadAn=         5 IDoV= 1 UseB2=F ITyADJ=14
 ICtDFT=  3500011 ScaDFX=  1.000000  1.000000  1.000000  1.000000
 FoFCou: FMM=F IPFlag=           0 FMFlag=      100000 FMFlg1=           0
         NFxFlg=           0 DoJE=T BraDBF=F KetDBF=T FulRan=T
         wScrn=  0.000000 ICntrl=     500 IOpCl=  0 I1Cent=   200000004 NGrid=           0
         NMat0=    1 NMatS0=      1 NMatT0=    0 NMatD0=    1 NMtDS0=    0 NMtDT0=    0
 Petite list used in FoFCou.
 Keep R1 ints in memory in symmetry-blocked form, NReq=2185622.
 Requested convergence on RMS density matrix=1.00D-08 within 128 cycles.
 Requested convergence on MAX density matrix=1.00D-06.
 Requested convergence on             energy=1.00D-06.
 No special actions if energy rises.
 SCF Done:  E(RB3LYP) =  -83.8006260784     A.U. after    8 cycles
            NFock=  8  Conv=0.36D-08     -V/T= 2.0043
 Calling FoFJK, ICntrl=      2127 FMM=F ISym2X=1 I1Cent= 0 IOpClX= 0 NMat=1 NMatS=1 NMatT=0.
 ***** Axes restored to original set *****
 -------------------------------------------------------------------
 Center     Atomic                   Forces (Hartrees/Bohr)
 Number     Number              X              Y              Z
 -------------------------------------------------------------------
      1        8           0.027344496    0.000000000    0.015417226
      2        1          -0.007730079    0.000000000   -0.012564371
      3        1          -0.015817360    0.000000000   -0.001041610
      4        3          -0.003797057    0.000000000   -0.001811245
 -------------------------------------------------------------------
 Cartesian Forces:  Max     0.027344496 RMS     0.011075506

 GradGradGradGradGradGradGradGradGradGradGradGradGradGradGradGradGradGrad
 Berny optimization.
 Using GEDIIS/GDIIS optimizer.
 FormGI is forming the generalized inverse of G from B-inverse, IUseBI=4.
 Internal  Forces:  Max     0.015005428 RMS     0.008457805
 Search for a local minimum.
 Step number   3 out of a maximum of   20
 All quantities printed in internal units (Hartrees-Bohrs-Radians)
 Mixed Optimization -- RFO/linear search
 Update second derivatives using D2CorX and points    2    3
 The second derivative matrix:
                          R1        R2        R3        A1        A2
           R1           0.55712
           R2           0.00276   0.55792
           R3          -0.00298  -0.00298   0.16481
           A1          -0.00204  -0.00236   0.00396   0.16174
           A2           0.00109   0.00126   0.00072  -0.00094   0.16049
           A3           0.00095   0.00110  -0.00468  -0.00080   0.00045
           D1           0.00000   0.00000   0.00000   0.00000   0.00000
                          A3        D1
           A3           0.16035
           D1           0.00000   0.08203
 ITU=  0  1  0
 Use linear search instead of GDIIS.
     Eigenvalues ---    0.08203   0.15651   0.16125   0.16954   0.55473
     Eigenvalues ---    0.56039
 RFO step:  Lambda=-1.32404224D-03 EMin= 8.20272705D-02
 Quartic linear search produced a step of  0.02251.
 Iteration  1 RMS(Cart)=  0.01573187 RMS(Int)=  0.00037095
 Iteration  2 RMS(Cart)=  0.00037117 RMS(Int)=  0.00000006
 Iteration  3 RMS(Cart)=  0.00000004 RMS(Int)=  0.00000000
 ClnCor:  largest displacement from symmetrization is 1.37D-10 for atom     1.
 Variable       Old X    -DE/DX   Delta X   Delta X   Delta X     New X
                                 (Linear)    (Quad)   (Total)
    R1        1.85744  -0.01302   0.00065  -0.02331  -0.02266   1.83478
    R2        1.86308  -0.01501   0.00073  -0.02689  -0.02615   1.83693
    R3        3.40915   0.00409   0.01322   0.01729   0.03050   3.43965
    A1        1.77151   0.00747  -0.00210   0.04499   0.04289   1.81440
    A2        2.31618  -0.00542   0.00078  -0.03332  -0.03254   2.28364
    A3        2.19550  -0.00205   0.00132  -0.01167  -0.01035   2.18514
    D1        3.14159   0.00000   0.00000   0.00000   0.00000   3.14159
         Item               Value     Threshold  Converged?
 Maximum Force            0.015005     0.000450     NO 
 RMS     Force            0.008458     0.000300     NO 
 Maximum Displacement     0.029754     0.001800     NO 
 RMS     Displacement     0.015692     0.001200     NO 
 Predicted change in Energy=-6.565048D-04
 GradGradGradGradGradGradGradGradGradGradGradGradGradGradGradGradGradGrad

                          Input orientation:                          
 ---------------------------------------------------------------------
 Center     Atomic      Atomic             Coordinates (Angstroms)
 Number     Number       Type             X           Y           Z
 ---------------------------------------------------------------------
      1          8           0        0.081261    0.000000    0.055744
      2          1           0        0.114387    0.000000    1.026101
      3          1           0        1.016074    0.000000   -0.210769
      4          3           0       -1.335531    0.000000   -1.086962
 ---------------------------------------------------------------------
                    Distance matrix (angstroms):
                    1          2          3          4
     1  O    0.000000
     2  H    0.970922   0.000000
     3  H    0.972062   1.530649   0.000000
     4  Li   1.820185   2.562673   2.509534   0.000000
 Stoichiometry    H2LiO(1+)
 Framework group  CS[SG(H2LiO)]
 Deg. of freedom     5
 Full point group                 CS      NOp   2
 Largest Abelian subgroup         CS      NOp   2
 Largest concise Abelian subgroup C1      NOp   1
                         Standard orientation:                         
 ---------------------------------------------------------------------
 Center     Atomic      Atomic             Coordinates (Angstroms)
 Number     Number       Type             X           Y           Z
 ---------------------------------------------------------------------
      1          8           0        0.004601   -0.328097    0.000000
      2          1           0        0.739108   -0.963068    0.000000
      3          1           0       -0.789719   -0.888419    0.000000
      4          3           0        0.004601    1.492088    0.000000
 ---------------------------------------------------------------------
 Rotational constants (GHZ):    428.4847271     27.1383916     25.5219409
 Standard basis: 6-311+G(d,p) (5D, 7F)
 There are    44 symmetry adapted cartesian basis functions of A'  symmetry.
 There are    14 symmetry adapted cartesian basis functions of A"  symmetry.
 There are    42 symmetry adapted basis functions of A'  symmetry.
 There are    14 symmetry adapted basis functions of A"  symmetry.
    56 basis functions,    88 primitive gaussians,    58 cartesian basis functions
     6 alpha electrons        6 beta electrons
       nuclear repulsion energy        17.2905479900 Hartrees.
 NAtoms=    4 NActive=    4 NUniq=    4 SFac= 1.00D+00 NAtFMM=   60 NAOKFM=F Big=F
 Integral buffers will be    131072 words long.
 Raffenetti 2 integral format.
 Two-electron integral symmetry is turned on.
 One-electron integrals computed using PRISM.
 NBasis=    56 RedAO= T EigKep=  4.02D-03  NBF=    42    14
 NBsUse=    56 1.00D-06 EigRej= -1.00D+00 NBFU=    42    14
 Initial guess from the checkpoint file:  "Li+OH2b3lyp.chk"
 B after Tr=     0.000000    0.000000    0.000000
         Rot=    0.999999    0.000000    0.000000   -0.001316 Ang=  -0.15 deg.
 Initial guess orbital symmetries:
       Occupied  (A') (A') (A') (A') (A') (A")
       Virtual   (A') (A') (A') (A') (A') (A') (A') (A') (A') (A')
                 (A') (A') (A') (A') (A') (A') (A') (A') (A') (A')
                 (A') (A') (A') (A') (A') (A') (A') (A') (A') (A')
                 (A') (A') (A') (A') (A') (A') (A') (A") (A") (A")
                 (A") (A") (A") (A") (A") (A") (A") (A") (A") (A")
 ExpMin= 7.40D-03 ExpMax= 8.59D+03 ExpMxC= 1.30D+03 IAcc=3 IRadAn=         5 AccDes= 0.00D+00
 Harris functional with IExCor=  402 and IRadAn=       5 diagonalized for initial guess.
 HarFok:  IExCor=  402 AccDes= 0.00D+00 IRadAn=         5 IDoV= 1 UseB2=F ITyADJ=14
 ICtDFT=  3500011 ScaDFX=  1.000000  1.000000  1.000000  1.000000
 FoFCou: FMM=F IPFlag=           0 FMFlag=      100000 FMFlg1=           0
         NFxFlg=           0 DoJE=T BraDBF=F KetDBF=T FulRan=T
         wScrn=  0.000000 ICntrl=     500 IOpCl=  0 I1Cent=   200000004 NGrid=           0
         NMat0=    1 NMatS0=      1 NMatT0=    0 NMatD0=    1 NMtDS0=    0 NMtDT0=    0
 Petite list used in FoFCou.
 Keep R1 ints in memory in symmetry-blocked form, NReq=2185622.
 Requested convergence on RMS density matrix=1.00D-08 within 128 cycles.
 Requested convergence on MAX density matrix=1.00D-06.
 Requested convergence on             energy=1.00D-06.
 No special actions if energy rises.
 SCF Done:  E(RB3LYP) =  -83.8015332508     A.U. after    7 cycles
            NFock=  7  Conv=0.29D-08     -V/T= 2.0039
 Calling FoFJK, ICntrl=      2127 FMM=F ISym2X=1 I1Cent= 0 IOpClX= 0 NMat=1 NMatS=1 NMatT=0.
 ***** Axes restored to original set *****
 -------------------------------------------------------------------
 Center     Atomic                   Forces (Hartrees/Bohr)
 Number     Number              X              Y              Z
 -------------------------------------------------------------------
      1        8           0.009898845    0.000000000    0.004505551
      2        1          -0.003616823    0.000000000   -0.002792285
      3        1          -0.003942681    0.000000000   -0.000905784
      4        3          -0.002339341    0.000000000   -0.000807482
 -------------------------------------------------------------------
 Cartesian Forces:  Max     0.009898845 RMS     0.003670321

 GradGradGradGradGradGradGradGradGradGradGradGradGradGradGradGradGradGrad
 Berny optimization.
 Using GEDIIS/GDIIS optimizer.
 FormGI is forming the generalized inverse of G from B-inverse, IUseBI=4.
 Internal  Forces:  Max     0.003543513 RMS     0.002602785
 Search for a local minimum.
 Step number   4 out of a maximum of   20
 All quantities printed in internal units (Hartrees-Bohrs-Radians)
 Mixed Optimization -- RFO/linear search
 Update second derivatives using D2CorX and points    3    4
 DE= -9.07D-04 DEPred=-6.57D-04 R= 1.38D+00
 TightC=F SS=  1.41D+00  RLast= 7.16D-02 DXNew= 8.4853D-01 2.1495D-01
 Trust test= 1.38D+00 RLast= 7.16D-02 DXMaxT set to 5.05D-01
 The second derivative matrix:
                          R1        R2        R3        A1        A2
           R1           0.55284
           R2          -0.00438   0.54719
           R3           0.02766   0.03272   0.14706
           A1           0.01823   0.02191  -0.01624   0.14314
           A2          -0.02241  -0.02634   0.01708   0.01625   0.14587
           A3           0.00418   0.00443  -0.00084   0.00061  -0.00213
           D1           0.00000   0.00000   0.00000   0.00000   0.00000
                          A3        D1
           A3           0.16152
           D1           0.00000   0.08203
 ITU=  1  0  1  0
 Use linear search instead of GDIIS.
     Eigenvalues ---    0.08203   0.10384   0.16004   0.16487   0.55237
     Eigenvalues ---    0.55650
 RFO step:  Lambda=-6.50110680D-05 EMin= 8.20272705D-02
 Quartic linear search produced a step of  0.53835.
 Iteration  1 RMS(Cart)=  0.01349566 RMS(Int)=  0.00021774
 Iteration  2 RMS(Cart)=  0.00020834 RMS(Int)=  0.00000001
 Iteration  3 RMS(Cart)=  0.00000000 RMS(Int)=  0.00000000
 ClnCor:  largest displacement from symmetrization is 1.59D-12 for atom     1.
 Variable       Old X    -DE/DX   Delta X   Delta X   Delta X     New X
                                 (Linear)    (Quad)   (Total)
    R1        1.83478  -0.00291  -0.01220   0.00341  -0.00879   1.82599
    R2        1.83693  -0.00354  -0.01408   0.00342  -0.01066   1.82627
    R3        3.43965   0.00233   0.01642   0.00972   0.02614   3.46579
    A1        1.81440   0.00335   0.02309   0.00844   0.03153   1.84593
    A2        2.28364  -0.00311  -0.01752  -0.01291  -0.03043   2.25321
    A3        2.18514  -0.00023  -0.00557   0.00448  -0.00110   2.18405
    D1        3.14159   0.00000   0.00000   0.00000   0.00000   3.14159
         Item               Value     Threshold  Converged?
 Maximum Force            0.003544     0.000450     NO 
 RMS     Force            0.002603     0.000300     NO 
 Maximum Displacement     0.023048     0.001800     NO 
 RMS     Displacement     0.013492     0.001200     NO 
 Predicted change in Energy=-1.686852D-04
 GradGradGradGradGradGradGradGradGradGradGradGradGradGradGradGradGradGrad

                          Input orientation:                          
 ---------------------------------------------------------------------
 Center     Atomic      Atomic             Coordinates (Angstroms)
 Number     Number       Type             X           Y           Z
 ---------------------------------------------------------------------
      1          8           0        0.093457    0.000000    0.058048
      2          1           0        0.102925    0.000000    1.024274
      3          1           0        1.020913    0.000000   -0.213602
      4          3           0       -1.341104    0.000000   -1.084606
 ---------------------------------------------------------------------
                    Distance matrix (angstroms):
                    1          2          3          4
     1  O    0.000000
     2  H    0.966272   0.000000
     3  H    0.966420   1.541116   0.000000
     4  Li   1.834018   2.555894   2.517492   0.000000
 Stoichiometry    H2LiO(1+)
 Framework group  CS[SG(H2LiO)]
 Deg. of freedom     5
 Full point group                 CS      NOp   2
 Largest Abelian subgroup         CS      NOp   2
 Largest concise Abelian subgroup C1      NOp   1
                         Standard orientation:                         
 ---------------------------------------------------------------------
 Center     Atomic      Atomic             Coordinates (Angstroms)
 Number     Number       Type             X           Y           Z
 ---------------------------------------------------------------------
      1          8           0        0.003111   -0.333573    0.000000
      2          1           0        0.752989   -0.942970    0.000000
      3          1           0       -0.787208   -0.889778    0.000000
      4          3           0        0.003111    1.500445    0.000000
 ---------------------------------------------------------------------
 Rotational constants (GHZ):    422.5070715     26.8501121     25.2457569
 Standard basis: 6-311+G(d,p) (5D, 7F)
 There are    44 symmetry adapted cartesian basis functions of A'  symmetry.
 There are    14 symmetry adapted cartesian basis functions of A"  symmetry.
 There are    42 symmetry adapted basis functions of A'  symmetry.
 There are    14 symmetry adapted basis functions of A"  symmetry.
    56 basis functions,    88 primitive gaussians,    58 cartesian basis functions
     6 alpha electrons        6 beta electrons
       nuclear repulsion energy        17.2816239246 Hartrees.
 NAtoms=    4 NActive=    4 NUniq=    4 SFac= 1.00D+00 NAtFMM=   60 NAOKFM=F Big=F
 Integral buffers will be    131072 words long.
 Raffenetti 2 integral format.
 Two-electron integral symmetry is turned on.
 One-electron integrals computed using PRISM.
 NBasis=    56 RedAO= T EigKep=  4.07D-03  NBF=    42    14
 NBsUse=    56 1.00D-06 EigRej= -1.00D+00 NBFU=    42    14
 Initial guess from the checkpoint file:  "Li+OH2b3lyp.chk"
 B after Tr=     0.000000    0.000000    0.000000
         Rot=    0.999999    0.000000    0.000000   -0.001633 Ang=  -0.19 deg.
 Initial guess orbital symmetries:
       Occupied  (A') (A') (A') (A') (A') (A")
       Virtual   (A') (A') (A') (A') (A') (A') (A') (A') (A') (A')
                 (A') (A') (A') (A') (A') (A') (A') (A') (A') (A')
                 (A') (A') (A') (A') (A') (A') (A') (A') (A') (A')
                 (A') (A') (A') (A') (A') (A') (A') (A") (A") (A")
                 (A") (A") (A") (A") (A") (A") (A") (A") (A") (A")
 ExpMin= 7.40D-03 ExpMax= 8.59D+03 ExpMxC= 1.30D+03 IAcc=3 IRadAn=         5 AccDes= 0.00D+00
 Harris functional with IExCor=  402 and IRadAn=       5 diagonalized for initial guess.
 HarFok:  IExCor=  402 AccDes= 0.00D+00 IRadAn=         5 IDoV= 1 UseB2=F ITyADJ=14
 ICtDFT=  3500011 ScaDFX=  1.000000  1.000000  1.000000  1.000000
 FoFCou: FMM=F IPFlag=           0 FMFlag=      100000 FMFlg1=           0
         NFxFlg=           0 DoJE=T BraDBF=F KetDBF=T FulRan=T
         wScrn=  0.000000 ICntrl=     500 IOpCl=  0 I1Cent=   200000004 NGrid=           0
         NMat0=    1 NMatS0=      1 NMatT0=    0 NMatD0=    1 NMtDS0=    0 NMtDT0=    0
 Petite list used in FoFCou.
 Keep R1 ints in memory in symmetry-blocked form, NReq=2185622.
 Requested convergence on RMS density matrix=1.00D-08 within 128 cycles.
 Requested convergence on MAX density matrix=1.00D-06.
 Requested convergence on             energy=1.00D-06.
 No special actions if energy rises.
 SCF Done:  E(RB3LYP) =  -83.8017153106     A.U. after    7 cycles
            NFock=  7  Conv=0.16D-08     -V/T= 2.0037
 Calling FoFJK, ICntrl=      2127 FMM=F ISym2X=1 I1Cent= 0 IOpClX= 0 NMat=1 NMatS=1 NMatT=0.
 ***** Axes restored to original set *****
 -------------------------------------------------------------------
 Center     Atomic                   Forces (Hartrees/Bohr)
 Number     Number              X              Y              Z
 -------------------------------------------------------------------
      1        8           0.000553040    0.000000000   -0.001002462
      2        1          -0.000672668    0.000000000    0.000927525
      3        1           0.001158271    0.000000000    0.000132484
      4        3          -0.001038643    0.000000000   -0.000057548
 -------------------------------------------------------------------
 Cartesian Forces:  Max     0.001158271 RMS     0.000649667

 GradGradGradGradGradGradGradGradGradGradGradGradGradGradGradGradGradGrad
 Berny optimization.
 Using GEDIIS/GDIIS optimizer.
 FormGI is forming the generalized inverse of G from B-inverse, IUseBI=4.
 Internal  Forces:  Max     0.001108536 RMS     0.000837450
 Search for a local minimum.
 Step number   5 out of a maximum of   20
 All quantities printed in internal units (Hartrees-Bohrs-Radians)
 Mixed Optimization -- En-DIIS/RFO-DIIS
 Update second derivatives using D2CorX and points    3    4    5
 DE= -1.82D-04 DEPred=-1.69D-04 R= 1.08D+00
 TightC=F SS=  1.41D+00  RLast= 5.29D-02 DXNew= 8.4853D-01 1.5862D-01
 Trust test= 1.08D+00 RLast= 5.29D-02 DXMaxT set to 5.05D-01
 The second derivative matrix:
                          R1        R2        R3        A1        A2
           R1           0.58620
           R2           0.03485   0.59331
           R3           0.03055   0.03624   0.13977
           A1           0.00365   0.00484  -0.02241   0.14630
           A2          -0.02625  -0.03101   0.02687   0.02452   0.13271
           A3           0.02260   0.02616  -0.00446  -0.01083   0.00276
           D1           0.00000   0.00000   0.00000   0.00000   0.00000
                          A3        D1
           A3           0.16807
           D1           0.00000   0.08203
 ITU=  1  1  0  1  0
 Use linear search instead of GDIIS.
     Eigenvalues ---    0.08161   0.08203   0.16347   0.17187   0.55474
     Eigenvalues ---    0.63468
 RFO step:  Lambda=-2.18317111D-05 EMin= 8.16093459D-02
 Quartic linear search produced a step of  0.13984.
 Iteration  1 RMS(Cart)=  0.00594870 RMS(Int)=  0.00002193
 Iteration  2 RMS(Cart)=  0.00002260 RMS(Int)=  0.00000000
 Iteration  3 RMS(Cart)=  0.00000000 RMS(Int)=  0.00000000
 ClnCor:  largest displacement from symmetrization is 3.54D-12 for atom     1.
 Variable       Old X    -DE/DX   Delta X   Delta X   Delta X     New X
                                 (Linear)    (Quad)   (Total)
    R1        1.82599   0.00092  -0.00123   0.00154   0.00031   1.82630
    R2        1.82627   0.00107  -0.00149   0.00184   0.00035   1.82661
    R3        3.46579   0.00085   0.00366   0.00534   0.00899   3.47479
    A1        1.84593   0.00014   0.00441   0.00024   0.00465   1.85057
    A2        2.25321  -0.00111  -0.00426  -0.00678  -0.01104   2.24217
    A3        2.18405   0.00097  -0.00015   0.00654   0.00639   2.19044
    D1        3.14159   0.00000   0.00000   0.00000   0.00000   3.14159
         Item               Value     Threshold  Converged?
 Maximum Force            0.001109     0.000450     NO 
 RMS     Force            0.000837     0.000300     NO 
 Maximum Displacement     0.008437     0.001800     NO 
 RMS     Displacement     0.005953     0.001200     NO 
 Predicted change in Energy=-1.365992D-05
 GradGradGradGradGradGradGradGradGradGradGradGradGradGradGradGradGradGrad

                          Input orientation:                          
 ---------------------------------------------------------------------
 Center     Atomic      Atomic             Coordinates (Angstroms)
 Number     Number       Type             X           Y           Z
 ---------------------------------------------------------------------
      1          8           0        0.096972    0.000000    0.056817
      2          1           0        0.099181    0.000000    1.023251
      3          1           0        1.025377    0.000000   -0.212226
      4          3           0       -1.345338    0.000000   -1.083728
 ---------------------------------------------------------------------
                    Distance matrix (angstroms):
                    1          2          3          4
     1  O    0.000000
     2  H    0.966437   0.000000
     3  H    0.966603   1.544099   0.000000
     4  Li   1.838777   2.554603   2.525829   0.000000
 Stoichiometry    H2LiO(1+)
 Framework group  CS[SG(H2LiO)]
 Deg. of freedom     5
 Full point group                 CS      NOp   2
 Largest Abelian subgroup         CS      NOp   2
 Largest concise Abelian subgroup C1      NOp   1
                         Standard orientation:                         
 ---------------------------------------------------------------------
 Center     Atomic      Atomic             Coordinates (Angstroms)
 Number     Number       Type             X           Y           Z
 ---------------------------------------------------------------------
      1          8           0        0.002324   -0.334907    0.000000
      2          1           0        0.759011   -0.936094    0.000000
      3          1           0       -0.784574   -0.896255    0.000000
      4          3           0        0.002324    1.503870    0.000000
 ---------------------------------------------------------------------
 Rotational constants (GHZ):    420.7729818     26.7304435     25.1337706
 Standard basis: 6-311+G(d,p) (5D, 7F)
 There are    44 symmetry adapted cartesian basis functions of A'  symmetry.
 There are    14 symmetry adapted cartesian basis functions of A"  symmetry.
 There are    42 symmetry adapted basis functions of A'  symmetry.
 There are    14 symmetry adapted basis functions of A"  symmetry.
    56 basis functions,    88 primitive gaussians,    58 cartesian basis functions
     6 alpha electrons        6 beta electrons
       nuclear repulsion energy        17.2596956219 Hartrees.
 NAtoms=    4 NActive=    4 NUniq=    4 SFac= 1.00D+00 NAtFMM=   60 NAOKFM=F Big=F
 Integral buffers will be    131072 words long.
 Raffenetti 2 integral format.
 Two-electron integral symmetry is turned on.
 One-electron integrals computed using PRISM.
 NBasis=    56 RedAO= T EigKep=  4.10D-03  NBF=    42    14
 NBsUse=    56 1.00D-06 EigRej= -1.00D+00 NBFU=    42    14
 Initial guess from the checkpoint file:  "Li+OH2b3lyp.chk"
 B after Tr=     0.000000    0.000000    0.000000
         Rot=    1.000000    0.000000    0.000000   -0.000937 Ang=  -0.11 deg.
 Initial guess orbital symmetries:
       Occupied  (A') (A') (A') (A') (A') (A")
       Virtual   (A') (A') (A') (A') (A') (A') (A') (A') (A') (A')
                 (A') (A') (A') (A') (A') (A') (A') (A') (A') (A')
                 (A') (A') (A') (A') (A') (A') (A') (A') (A') (A')
                 (A') (A') (A') (A') (A') (A') (A') (A") (A") (A")
                 (A") (A") (A") (A") (A") (A") (A") (A") (A") (A")
 Keep R1 ints in memory in symmetry-blocked form, NReq=2185622.
 Requested convergence on RMS density matrix=1.00D-08 within 128 cycles.
 Requested convergence on MAX density matrix=1.00D-06.
 Requested convergence on             energy=1.00D-06.
 No special actions if energy rises.
 SCF Done:  E(RB3LYP) =  -83.8017361139     A.U. after    6 cycles
            NFock=  6  Conv=0.62D-08     -V/T= 2.0038
 Calling FoFJK, ICntrl=      2127 FMM=F ISym2X=1 I1Cent= 0 IOpClX= 0 NMat=1 NMatS=1 NMatT=0.
 ***** Axes restored to original set *****
 -------------------------------------------------------------------
 Center     Atomic                   Forces (Hartrees/Bohr)
 Number     Number              X              Y              Z
 -------------------------------------------------------------------
      1        8          -0.000239766    0.000000000   -0.001314620
      2        1          -0.000126499    0.000000000    0.000664678
      3        1           0.000894050    0.000000000    0.000493079
      4        3          -0.000527785    0.000000000    0.000156864
 -------------------------------------------------------------------
 Cartesian Forces:  Max     0.001314620 RMS     0.000546895

 GradGradGradGradGradGradGradGradGradGradGradGradGradGradGradGradGradGrad
 Berny optimization.
 Using GEDIIS/GDIIS optimizer.
 FormGI is forming the generalized inverse of G from B-inverse, IUseBI=4.
 Internal  Forces:  Max     0.000960020 RMS     0.000594323
 Search for a local minimum.
 Step number   6 out of a maximum of   20
 All quantities printed in internal units (Hartrees-Bohrs-Radians)
 Mixed Optimization -- En-DIIS/RFO-DIIS
 Swapping is turned off.
 Update second derivatives using D2CorX and points    3    4    5    6
 DE= -2.08D-05 DEPred=-1.37D-05 R= 1.52D+00
 TightC=F SS=  1.41D+00  RLast= 1.63D-02 DXNew= 8.4853D-01 4.8863D-02
 Trust test= 1.52D+00 RLast= 1.63D-02 DXMaxT set to 5.05D-01
 The second derivative matrix:
                          R1        R2        R3        A1        A2
           R1           0.56166
           R2           0.00667   0.56118
           R3           0.01041   0.01496   0.13536
           A1           0.00112   0.00421  -0.00479   0.17292
           A2           0.00072  -0.00171   0.04031   0.01024   0.10772
           A3          -0.00184  -0.00249  -0.03552  -0.02316   0.04204
           D1           0.00000   0.00000   0.00000   0.00000   0.00000
                          A3        D1
           A3           0.14112
           D1           0.00000   0.08203
 ITU=  1  1  1  0  1  0
     Eigenvalues ---    0.04324   0.08203   0.16346   0.18955   0.55479
     Eigenvalues ---    0.56892
 En-DIIS/RFO-DIIS IScMMF=        0 using points:     6    5
 RFO step:  Lambda=-7.15993328D-06.
 DidBck=F Rises=F RFO-DIIS coefs:    2.10402   -1.10402
 Iteration  1 RMS(Cart)=  0.00934553 RMS(Int)=  0.00004482
 Iteration  2 RMS(Cart)=  0.00004561 RMS(Int)=  0.00000000
 Iteration  3 RMS(Cart)=  0.00000000 RMS(Int)=  0.00000000
 ClnCor:  largest displacement from symmetrization is 1.84D-10 for atom     1.
 Variable       Old X    -DE/DX   Delta X   Delta X   Delta X     New X
                                 (Linear)    (Quad)   (Total)
    R1        1.82630   0.00066   0.00034   0.00070   0.00104   1.82734
    R2        1.82661   0.00072   0.00038   0.00063   0.00101   1.82762
    R3        3.47479   0.00032   0.00993   0.00040   0.01033   3.48511
    A1        1.85057  -0.00036   0.00513  -0.00420   0.00093   1.85150
    A2        2.24217  -0.00060  -0.01218  -0.00280  -0.01498   2.22719
    A3        2.19044   0.00096   0.00705   0.00700   0.01405   2.20449
    D1        3.14159   0.00000   0.00000   0.00000   0.00000   3.14159
         Item               Value     Threshold  Converged?
 Maximum Force            0.000960     0.000450     NO 
 RMS     Force            0.000594     0.000300     NO 
 Maximum Displacement     0.013160     0.001800     NO 
 RMS     Displacement     0.009349     0.001200     NO 
 Predicted change in Energy=-1.340144D-05
 GradGradGradGradGradGradGradGradGradGradGradGradGradGradGradGradGradGrad

                          Input orientation:                          
 ---------------------------------------------------------------------
 Center     Atomic      Atomic             Coordinates (Angstroms)
 Number     Number       Type             X           Y           Z
 ---------------------------------------------------------------------
      1          8           0        0.101244    0.000000    0.053543
      2          1           0        0.094612    0.000000    1.020510
      3          1           0        1.032341    0.000000   -0.208009
      4          3           0       -1.352006    0.000000   -1.081930
 ---------------------------------------------------------------------
                    Distance matrix (angstroms):
                    1          2          3          4
     1  O    0.000000
     2  H    0.966989   0.000000
     3  H    0.967136   1.545507   0.000000
     4  Li   1.844243   2.552049   2.539458   0.000000
 Stoichiometry    H2LiO(1+)
 Framework group  CS[SG(H2LiO)]
 Deg. of freedom     5
 Full point group                 CS      NOp   2
 Largest Abelian subgroup         CS      NOp   2
 Largest concise Abelian subgroup C1      NOp   1
                         Standard orientation:                         
 ---------------------------------------------------------------------
 Center     Atomic      Atomic             Coordinates (Angstroms)
 Number     Number       Type             X           Y           Z
 ---------------------------------------------------------------------
      1          8           0        0.001024   -0.336150    0.000000
      2          1           0        0.767070   -0.926270    0.000000
      3          1           0       -0.778339   -0.908814    0.000000
      4          3           0        0.001024    1.508094    0.000000
 ---------------------------------------------------------------------
 Rotational constants (GHZ):    419.8997303     26.5826388     24.9999634
 Standard basis: 6-311+G(d,p) (5D, 7F)
 There are    44 symmetry adapted cartesian basis functions of A'  symmetry.
 There are    14 symmetry adapted cartesian basis functions of A"  symmetry.
 There are    42 symmetry adapted basis functions of A'  symmetry.
 There are    14 symmetry adapted basis functions of A"  symmetry.
    56 basis functions,    88 primitive gaussians,    58 cartesian basis functions
     6 alpha electrons        6 beta electrons
       nuclear repulsion energy        17.2312457530 Hartrees.
 NAtoms=    4 NActive=    4 NUniq=    4 SFac= 1.00D+00 NAtFMM=   60 NAOKFM=F Big=F
 Integral buffers will be    131072 words long.
 Raffenetti 2 integral format.
 Two-electron integral symmetry is turned on.
 One-electron integrals computed using PRISM.
 NBasis=    56 RedAO= T EigKep=  4.12D-03  NBF=    42    14
 NBsUse=    56 1.00D-06 EigRej= -1.00D+00 NBFU=    42    14
 Initial guess from the checkpoint file:  "Li+OH2b3lyp.chk"
 B after Tr=     0.000000    0.000000    0.000000
         Rot=    0.999999    0.000000    0.000000   -0.001552 Ang=  -0.18 deg.
 Initial guess orbital symmetries:
       Occupied  (A') (A') (A') (A') (A') (A")
       Virtual   (A') (A') (A') (A') (A') (A') (A') (A') (A') (A')
                 (A') (A') (A') (A') (A') (A') (A') (A') (A') (A')
                 (A') (A') (A') (A') (A') (A') (A') (A') (A') (A')
                 (A') (A') (A') (A') (A') (A') (A') (A") (A") (A")
                 (A") (A") (A") (A") (A") (A") (A") (A") (A") (A")
 Keep R1 ints in memory in symmetry-blocked form, NReq=2185622.
 Requested convergence on RMS density matrix=1.00D-08 within 128 cycles.
 Requested convergence on MAX density matrix=1.00D-06.
 Requested convergence on             energy=1.00D-06.
 No special actions if energy rises.
 SCF Done:  E(RB3LYP) =  -83.8017526468     A.U. after    6 cycles
            NFock=  6  Conv=0.92D-08     -V/T= 2.0038
 Calling FoFJK, ICntrl=      2127 FMM=F ISym2X=1 I1Cent= 0 IOpClX= 0 NMat=1 NMatS=1 NMatT=0.
 ***** Axes restored to original set *****
 -------------------------------------------------------------------
 Center     Atomic                   Forces (Hartrees/Bohr)
 Number     Number              X              Y              Z
 -------------------------------------------------------------------
      1        8          -0.000535575    0.000000000   -0.000991300
      2        1           0.000192522    0.000000000    0.000128708
      3        1           0.000228842    0.000000000    0.000523538
      4        3           0.000114211    0.000000000    0.000339054
 -------------------------------------------------------------------
 Cartesian Forces:  Max     0.000991300 RMS     0.000384882

 GradGradGradGradGradGradGradGradGradGradGradGradGradGradGradGradGradGrad
 Berny optimization.
 Using GEDIIS/GDIIS optimizer.
 FormGI is forming the generalized inverse of G from B-inverse, IUseBI=4.
 Internal  Forces:  Max     0.000572758 RMS     0.000308415
 Search for a local minimum.
 Step number   7 out of a maximum of   20
 All quantities printed in internal units (Hartrees-Bohrs-Radians)
 Mixed Optimization -- En-DIIS/RFO-DIIS
 Swapping is turned off.
 Update second derivatives using D2CorX and points    3    4    5    6    7
 DE= -1.65D-05 DEPred=-1.34D-05 R= 1.23D+00
 TightC=F SS=  1.41D+00  RLast= 2.31D-02 DXNew= 8.4853D-01 6.9163D-02
 Trust test= 1.23D+00 RLast= 2.31D-02 DXMaxT set to 5.05D-01
 The second derivative matrix:
                          R1        R2        R3        A1        A2
           R1           0.55519
           R2           0.00239   0.56001
           R3           0.02597   0.03455   0.15174
           A1           0.03097   0.03826   0.00137   0.15744
           A2          -0.00322  -0.00762   0.03430   0.00575   0.10347
           A3          -0.02775  -0.03065  -0.03568  -0.00319   0.05078
           D1           0.00000   0.00000   0.00000   0.00000   0.00000
                          A3        D1
           A3           0.11241
           D1           0.00000   0.08203
 ITU=  1  1  1  1  0  1  0
     Eigenvalues ---    0.03562   0.08203   0.14732   0.16723   0.55463
     Eigenvalues ---    0.57545
 En-DIIS/RFO-DIIS IScMMF=        0 using points:     7    6    5
 RFO step:  Lambda=-1.94860069D-06.
 DidBck=F Rises=F RFO-DIIS coefs:    2.16290   -2.37072    1.20781
 Iteration  1 RMS(Cart)=  0.00491843 RMS(Int)=  0.00001725
 Iteration  2 RMS(Cart)=  0.00001611 RMS(Int)=  0.00000000
 Iteration  3 RMS(Cart)=  0.00000000 RMS(Int)=  0.00000000
 ClnCor:  largest displacement from symmetrization is 3.63D-10 for atom     1.
 Variable       Old X    -DE/DX   Delta X   Delta X   Delta X     New X
                                 (Linear)    (Quad)   (Total)
    R1        1.82734   0.00013   0.00084  -0.00022   0.00061   1.82796
    R2        1.82762   0.00008   0.00075  -0.00031   0.00045   1.82807
    R3        3.48511  -0.00030   0.00115  -0.00167  -0.00052   3.48459
    A1        1.85150  -0.00046  -0.00453   0.00038  -0.00415   1.84736
    A2        2.22719  -0.00011  -0.00409  -0.00167  -0.00576   2.22144
    A3        2.20449   0.00057   0.00862   0.00128   0.00990   2.21439
    D1        3.14159   0.00000   0.00000   0.00000   0.00000   3.14159
         Item               Value     Threshold  Converged?
 Maximum Force            0.000573     0.000450     NO 
 RMS     Force            0.000308     0.000300     NO 
 Maximum Displacement     0.006460     0.001800     NO 
 RMS     Displacement     0.004915     0.001200     NO 
 Predicted change in Energy=-2.507892D-06
 GradGradGradGradGradGradGradGradGradGradGradGradGradGradGradGradGradGrad

                          Input orientation:                          
 ---------------------------------------------------------------------
 Center     Atomic      Atomic             Coordinates (Angstroms)
 Number     Number       Type             X           Y           Z
 ---------------------------------------------------------------------
      1          8           0        0.102219    0.000000    0.050723
      2          1           0        0.093054    0.000000    1.017992
      3          1           0        1.035291    0.000000   -0.204590
      4          3           0       -1.354373    0.000000   -1.080010
 ---------------------------------------------------------------------
                    Distance matrix (angstroms):
                    1          2          3          4
     1  O    0.000000
     2  H    0.967313   0.000000
     3  H    0.967372   1.543541   0.000000
     4  Li   1.843968   2.548855   2.544967   0.000000
 Stoichiometry    H2LiO(1+)
 Framework group  CS[SG(H2LiO)]
 Deg. of freedom     5
 Full point group                 CS      NOp   2
 Largest Abelian subgroup         CS      NOp   2
 Largest concise Abelian subgroup C1      NOp   1
                         Standard orientation:                         
 ---------------------------------------------------------------------
 Center     Atomic      Atomic             Coordinates (Angstroms)
 Number     Number       Type             X           Y           Z
 ---------------------------------------------------------------------
      1          8           0        0.000320   -0.335809    0.000000
      2          1           0        0.770007   -0.921705    0.000000
      3          1           0       -0.773524   -0.916304    0.000000
      4          3           0        0.000320    1.508159    0.000000
 ---------------------------------------------------------------------
 Rotational constants (GHZ):    420.9479079     26.5795606     25.0009468
 Standard basis: 6-311+G(d,p) (5D, 7F)
 There are    44 symmetry adapted cartesian basis functions of A'  symmetry.
 There are    14 symmetry adapted cartesian basis functions of A"  symmetry.
 There are    42 symmetry adapted basis functions of A'  symmetry.
 There are    14 symmetry adapted basis functions of A"  symmetry.
    56 basis functions,    88 primitive gaussians,    58 cartesian basis functions
     6 alpha electrons        6 beta electrons
       nuclear repulsion energy        17.2296030956 Hartrees.
 NAtoms=    4 NActive=    4 NUniq=    4 SFac= 1.00D+00 NAtFMM=   60 NAOKFM=F Big=F
 Integral buffers will be    131072 words long.
 Raffenetti 2 integral format.
 Two-electron integral symmetry is turned on.
 One-electron integrals computed using PRISM.
 NBasis=    56 RedAO= T EigKep=  4.12D-03  NBF=    42    14
 NBsUse=    56 1.00D-06 EigRej= -1.00D+00 NBFU=    42    14
 Initial guess from the checkpoint file:  "Li+OH2b3lyp.chk"
 B after Tr=     0.000000    0.000000    0.000000
         Rot=    1.000000    0.000000    0.000000   -0.000836 Ang=  -0.10 deg.
 Initial guess orbital symmetries:
       Occupied  (A') (A') (A') (A') (A') (A")
       Virtual   (A') (A') (A') (A') (A') (A') (A') (A') (A') (A')
                 (A') (A') (A') (A') (A') (A') (A') (A') (A') (A')
                 (A') (A') (A') (A') (A') (A') (A') (A') (A') (A')
                 (A') (A') (A') (A') (A') (A') (A') (A") (A") (A")
                 (A") (A") (A") (A") (A") (A") (A") (A") (A") (A")
 Keep R1 ints in memory in symmetry-blocked form, NReq=2185622.
 Requested convergence on RMS density matrix=1.00D-08 within 128 cycles.
 Requested convergence on MAX density matrix=1.00D-06.
 Requested convergence on             energy=1.00D-06.
 No special actions if energy rises.
 SCF Done:  E(RB3LYP) =  -83.8017577794     A.U. after    6 cycles
            NFock=  6  Conv=0.39D-08     -V/T= 2.0038
 Calling FoFJK, ICntrl=      2127 FMM=F ISym2X=1 I1Cent= 0 IOpClX= 0 NMat=1 NMatS=1 NMatT=0.
 ***** Axes restored to original set *****
 -------------------------------------------------------------------
 Center     Atomic                   Forces (Hartrees/Bohr)
 Number     Number              X              Y              Z
 -------------------------------------------------------------------
      1        8          -0.000070288    0.000000000   -0.000248395
      2        1          -0.000046656    0.000000000   -0.000066005
      3        1          -0.000072608    0.000000000    0.000090219
      4        3           0.000189552    0.000000000    0.000224180
 -------------------------------------------------------------------
 Cartesian Forces:  Max     0.000248395 RMS     0.000119990

 GradGradGradGradGradGradGradGradGradGradGradGradGradGradGradGradGradGrad
 Berny optimization.
 Using GEDIIS/GDIIS optimizer.
 FormGI is forming the generalized inverse of G from B-inverse, IUseBI=4.
 Internal  Forces:  Max     0.000287200 RMS     0.000129894
 Search for a local minimum.
 Step number   8 out of a maximum of   20
 All quantities printed in internal units (Hartrees-Bohrs-Radians)
 Mixed Optimization -- En-DIIS/RFO-DIIS
 Swapping is turned off.
 Update second derivatives using D2CorX and points    3    4    5    6    7
                                                      8
 DE= -5.13D-06 DEPred=-2.51D-06 R= 2.05D+00
 TightC=F SS=  1.41D+00  RLast= 1.22D-02 DXNew= 8.4853D-01 3.6650D-02
 Trust test= 2.05D+00 RLast= 1.22D-02 DXMaxT set to 5.05D-01
 The second derivative matrix:
                          R1        R2        R3        A1        A2
           R1           0.59027
           R2           0.04324   0.60699
           R3           0.04064   0.04733   0.14361
           A1           0.01762   0.01950  -0.03030   0.14391
           A2          -0.00520  -0.01108   0.02608   0.00307   0.09773
           A3          -0.01242  -0.00842   0.00422   0.01302   0.05920
           D1           0.00000   0.00000   0.00000   0.00000   0.00000
                          A3        D1
           A3           0.08778
           D1           0.00000   0.08203
 ITU=  1  1  1  1  1  0  1  0
     Eigenvalues ---    0.03121   0.08203   0.09474   0.17787   0.55465
     Eigenvalues ---    0.65182
 En-DIIS/RFO-DIIS IScMMF=        0 using points:     8    7    6    5
 RFO step:  Lambda=-3.32325486D-07.
 DidBck=F Rises=F RFO-DIIS coefs:    2.96855   -4.02215    4.09017   -2.03657
 Iteration  1 RMS(Cart)=  0.00250119 RMS(Int)=  0.00000265
 Iteration  2 RMS(Cart)=  0.00000276 RMS(Int)=  0.00000000
 Iteration  3 RMS(Cart)=  0.00000000 RMS(Int)=  0.00000000
 ClnCor:  largest displacement from symmetrization is 1.45D-09 for atom     1.
 Variable       Old X    -DE/DX   Delta X   Delta X   Delta X     New X
                                 (Linear)    (Quad)   (Total)
    R1        1.82796  -0.00007  -0.00030   0.00024  -0.00006   1.82790
    R2        1.82807  -0.00009  -0.00049   0.00030  -0.00019   1.82788
    R3        3.48459  -0.00029  -0.00392  -0.00067  -0.00460   3.48000
    A1        1.84736  -0.00001  -0.00061   0.00020  -0.00040   1.84696
    A2        2.22144  -0.00010  -0.00304  -0.00017  -0.00321   2.21822
    A3        2.21439   0.00011   0.00365  -0.00004   0.00362   2.21801
    D1        3.14159   0.00000   0.00000   0.00000   0.00000   3.14159
         Item               Value     Threshold  Converged?
 Maximum Force            0.000287     0.000450     YES
 RMS     Force            0.000130     0.000300     YES
 Maximum Displacement     0.003967     0.001800     NO 
 RMS     Displacement     0.002501     0.001200     NO 
 Predicted change in Energy=-1.591857D-07
 GradGradGradGradGradGradGradGradGradGradGradGradGradGradGradGradGradGrad

                          Input orientation:                          
 ---------------------------------------------------------------------
 Center     Atomic      Atomic             Coordinates (Angstroms)
 Number     Number       Type             X           Y           Z
 ---------------------------------------------------------------------
      1          8           0        0.102452    0.000000    0.049333
      2          1           0        0.091507    0.000000    1.016553
      3          1           0        1.036000    0.000000   -0.203860
      4          3           0       -1.353767    0.000000   -1.077911
 ---------------------------------------------------------------------
                    Distance matrix (angstroms):
                    1          2          3          4
     1  O    0.000000
     2  H    0.967282   0.000000
     3  H    0.967274   1.543202   0.000000
     4  Li   1.841536   2.544719   2.544593   0.000000
 Stoichiometry    H2LiO(1+)
 Framework group  CS[SG(H2LiO)]
 Deg. of freedom     5
 Full point group                 CS      NOp   2
 Largest Abelian subgroup         CS      NOp   2
 Largest concise Abelian subgroup C1      NOp   1
                         Standard orientation:                         
 ---------------------------------------------------------------------
 Center     Atomic      Atomic             Coordinates (Angstroms)
 Number     Number       Type             X           Y           Z
 ---------------------------------------------------------------------
      1          8           0        0.000009   -0.335229    0.000000
      2          1           0        0.771551   -0.918630    0.000000
      3          1           0       -0.771651   -0.918460    0.000000
      4          3           0        0.000009    1.506307    0.000000
 ---------------------------------------------------------------------
 Rotational constants (GHZ):    421.1300350     26.6445363     25.0590704
 Standard basis: 6-311+G(d,p) (5D, 7F)
 There are    44 symmetry adapted cartesian basis functions of A'  symmetry.
 There are    14 symmetry adapted cartesian basis functions of A"  symmetry.
 There are    42 symmetry adapted basis functions of A'  symmetry.
 There are    14 symmetry adapted basis functions of A"  symmetry.
    56 basis functions,    88 primitive gaussians,    58 cartesian basis functions
     6 alpha electrons        6 beta electrons
       nuclear repulsion energy        17.2404626488 Hartrees.
 NAtoms=    4 NActive=    4 NUniq=    4 SFac= 1.00D+00 NAtFMM=   60 NAOKFM=F Big=F
 Integral buffers will be    131072 words long.
 Raffenetti 2 integral format.
 Two-electron integral symmetry is turned on.
 One-electron integrals computed using PRISM.
 NBasis=    56 RedAO= T EigKep=  4.11D-03  NBF=    42    14
 NBsUse=    56 1.00D-06 EigRej= -1.00D+00 NBFU=    42    14
 Initial guess from the checkpoint file:  "Li+OH2b3lyp.chk"
 B after Tr=     0.000000    0.000000    0.000000
         Rot=    1.000000    0.000000    0.000000   -0.000365 Ang=  -0.04 deg.
 Initial guess orbital symmetries:
       Occupied  (A') (A') (A') (A') (A') (A")
       Virtual   (A') (A') (A') (A') (A') (A') (A') (A') (A') (A')
                 (A') (A') (A') (A') (A') (A') (A') (A') (A') (A')
                 (A') (A') (A') (A') (A') (A') (A') (A') (A') (A')
                 (A') (A') (A') (A') (A') (A') (A') (A") (A") (A")
                 (A") (A") (A") (A") (A") (A") (A") (A") (A") (A")
 Keep R1 ints in memory in symmetry-blocked form, NReq=2185622.
 Requested convergence on RMS density matrix=1.00D-08 within 128 cycles.
 Requested convergence on MAX density matrix=1.00D-06.
 Requested convergence on             energy=1.00D-06.
 No special actions if energy rises.
 SCF Done:  E(RB3LYP) =  -83.8017588580     A.U. after    6 cycles
            NFock=  6  Conv=0.23D-08     -V/T= 2.0038
 Calling FoFJK, ICntrl=      2127 FMM=F ISym2X=1 I1Cent= 0 IOpClX= 0 NMat=1 NMatS=1 NMatT=0.
 ***** Axes restored to original set *****
 -------------------------------------------------------------------
 Center     Atomic                   Forces (Hartrees/Bohr)
 Number     Number              X              Y              Z
 -------------------------------------------------------------------
      1        8           0.000003820    0.000000000    0.000006606
      2        1          -0.000022477    0.000000000    0.000002082
      3        1           0.000005653    0.000000000   -0.000021126
      4        3           0.000013004    0.000000000    0.000012437
 -------------------------------------------------------------------
 Cartesian Forces:  Max     0.000022477 RMS     0.000010684

 GradGradGradGradGradGradGradGradGradGradGradGradGradGradGradGradGradGrad
 Berny optimization.
 Using GEDIIS/GDIIS optimizer.
 FormGI is forming the generalized inverse of G from B-inverse, IUseBI=4.
 Internal  Forces:  Max     0.000025202 RMS     0.000014244
 Search for a local minimum.
 Step number   9 out of a maximum of   20
 All quantities printed in internal units (Hartrees-Bohrs-Radians)
 Mixed Optimization -- En-DIIS/RFO-DIIS
 Swapping is turned off.
 Update second derivatives using D2CorX and points    3    4    5    6    7
                                                      8    9
 DE= -1.08D-06 DEPred=-1.59D-07 R= 6.78D+00
 TightC=F SS=  1.41D+00  RLast= 6.69D-03 DXNew= 8.4853D-01 2.0065D-02
 Trust test= 6.78D+00 RLast= 6.69D-03 DXMaxT set to 5.05D-01
 The second derivative matrix:
                          R1        R2        R3        A1        A2
           R1           0.57414
           R2           0.02284   0.58167
           R3           0.00441   0.00309   0.06463
           A1           0.01447   0.01778  -0.01390   0.15182
           A2          -0.00710  -0.01316   0.00400   0.00964   0.08899
           A3          -0.00737  -0.00462   0.00990  -0.00146   0.06137
           D1           0.00000   0.00000   0.00000   0.00000   0.00000
                          A3        D1
           A3           0.10010
           D1           0.00000   0.08203
 ITU=  1  1  1  1  1  1  0  1
     Eigenvalues ---    0.03203   0.06122   0.08203   0.15047   0.55479
     Eigenvalues ---    0.60284
 En-DIIS/RFO-DIIS IScMMF=        0 using points:     9    8    7    6    5
 RFO step:  Lambda= 0.00000000D+00.
[...]
 There are    14 symmetry adapted basis functions of A"  symmetry.
    56 basis functions,    88 primitive gaussians,    58 cartesian basis functions
     6 alpha electrons        6 beta electrons
       nuclear repulsion energy        17.2404626488 Hartrees.
 NAtoms=    4 NActive=    4 NUniq=    4 SFac= 1.00D+00 NAtFMM=   60 NAOKFM=F Big=F
 Integral buffers will be    131072 words long.
 Raffenetti 2 integral format.
 Two-electron integral symmetry is turned on.
 One-electron integrals computed using PRISM.
 NBasis=    56 RedAO= T EigKep=  4.11D-03  NBF=    42    14
 NBsUse=    56 1.00D-06 EigRej= -1.00D+00 NBFU=    42    14
 Initial guess from the checkpoint file:  "Li+OH2b3lyp.chk"
 B after Tr=     0.000000    0.000000    0.000000
         Rot=    1.000000    0.000000    0.000000    0.000000 Ang=   0.00 deg.
 Initial guess orbital symmetries:
       Occupied  (A') (A') (A') (A') (A') (A")
       Virtual   (A') (A') (A') (A") (A') (A') (A") (A') (A') (A')
                 (A") (A') (A') (A') (A") (A') (A') (A') (A') (A')
                 (A") (A") (A') (A') (A") (A') (A') (A') (A') (A')
                 (A") (A") (A') (A') (A") (A') (A') (A') (A') (A')
                 (A") (A") (A') (A') (A') (A') (A") (A') (A') (A')
 Keep R1 ints in memory in symmetry-blocked form, NReq=2185622.
 Requested convergence on RMS density matrix=1.00D-08 within 128 cycles.
 Requested convergence on MAX density matrix=1.00D-06.
 Requested convergence on             energy=1.00D-06.
 No special actions if energy rises.
 SCF Done:  E(RB3LYP) =  -83.8017588580     A.U. after    1 cycles
            NFock=  1  Conv=0.46D-09     -V/T= 2.0038
 DoSCS=F DFT=T ScalE2(SS,OS)=  1.000000  1.000000
 Range of M.O.s used for correlation:     1    56
 NBasis=    56 NAE=     6 NBE=     6 NFC=     0 NFV=     0
 NROrb=     56 NOA=     6 NOB=     6 NVA=    50 NVB=    50
 Symmetrizing basis deriv contribution to polar:
 IMax=3 JMax=2 DiffMx= 0.00D+00
 G2DrvN: will do     5 centers at a time, making    1 passes.
 Calling FoFCou, ICntrl=  3107 FMM=F I1Cent=   0 AccDes= 0.00D+00.
 End of G2Drv F.D. properties file   721 does not exist.
 End of G2Drv F.D. properties file   722 does not exist.
 End of G2Drv F.D. properties file   788 does not exist.
          IDoAtm=1111
          Differentiating once with respect to electric field.
                with respect to dipole field.
          Differentiating once with respect to nuclear coordinates.
 Keep R1 ints in memory in symmetry-blocked form, NReq=2155585.
          There are    15 degrees of freedom in the 1st order CPHF.  IDoFFX=6 NUNeed=     3.
     15 vectors produced by pass  0 Test12= 2.00D-15 6.67D-09 XBig12= 3.56D+00 8.79D-01.
 AX will form    15 AO Fock derivatives at one time.
     12 vectors produced by pass  1 Test12= 2.00D-15 6.67D-09 XBig12= 1.34D-01 1.50D-01.
     12 vectors produced by pass  2 Test12= 2.00D-15 6.67D-09 XBig12= 3.34D-04 7.46D-03.
     12 vectors produced by pass  3 Test12= 2.00D-15 6.67D-09 XBig12= 1.34D-06 3.96D-04.
     12 vectors produced by pass  4 Test12= 2.00D-15 6.67D-09 XBig12= 3.07D-09 2.02D-05.
      4 vectors produced by pass  5 Test12= 2.00D-15 6.67D-09 XBig12= 1.00D-12 2.92D-07.
      1 vectors produced by pass  6 Test12= 2.00D-15 6.67D-09 XBig12= 3.62D-16 6.82D-09.
 InvSVY:  IOpt=1 It=  1 EMax= 8.88D-16
 Solved reduced A of dimension    68 with    15 vectors.
 Isotropic polarizability for W=    0.000000        7.76 Bohr**3.
 End of Minotr F.D. properties file   721 does not exist.
 End of Minotr F.D. properties file   722 does not exist.
 End of Minotr F.D. properties file   788 does not exist.

 **********************************************************************

            Population analysis using the SCF density.

 **********************************************************************

 Orbital symmetries:
       Occupied  (A') (A') (A') (A') (A') (A")
       Virtual   (A') (A') (A') (A") (A') (A') (A") (A') (A') (A')
                 (A") (A') (A') (A') (A") (A') (A') (A') (A') (A')
                 (A") (A") (A') (A') (A") (A') (A') (A') (A') (A')
                 (A") (A") (A') (A') (A") (A') (A') (A') (A') (A')
                 (A") (A") (A') (A') (A') (A') (A") (A') (A') (A')
 The electronic state is 1-A'.
 Alpha  occ. eigenvalues --  -19.37997  -2.25938  -1.26659  -0.78455  -0.67979
 Alpha  occ. eigenvalues --   -0.57433
 Alpha virt. eigenvalues --   -0.22230  -0.17312  -0.15898  -0.14970  -0.09990
 Alpha virt. eigenvalues --   -0.07790  -0.06796  -0.06329  -0.05727  -0.05220
 Alpha virt. eigenvalues --   -0.02944  -0.02121  -0.01111   0.00156   0.01043
 Alpha virt. eigenvalues --    0.01452   0.04726   0.13144   0.23683   0.23894
 Alpha virt. eigenvalues --    0.24749   0.26681   0.28547   0.29868   0.32390
 Alpha virt. eigenvalues --    0.33333   0.44325   0.53820   0.77449   0.79653
 Alpha virt. eigenvalues --    0.80252   1.03222   1.22493   1.32478   1.35860
 Alpha virt. eigenvalues --    1.49314   1.75991   1.88783   2.16681   2.38583
 Alpha virt. eigenvalues --    2.82808   2.88589   3.04066   3.28547   3.50696
 Alpha virt. eigenvalues --    3.63951   4.70417   5.12947   5.36428  49.63485
          Condensed to atoms (all electrons):
               1          2          3          4
     1  O    7.755193   0.331085   0.331087   0.125945
     2  H    0.331085   0.336978  -0.012597  -0.004050
     3  H    0.331087  -0.012597   0.336996  -0.004049
     4  Li   0.125945  -0.004050  -0.004049   2.035990
 Mulliken charges:
               1
     1  O   -0.543311
     2  H    0.348583
     3  H    0.348563
     4  Li   0.846164
 Sum of Mulliken charges =   1.00000
 Mulliken charges with hydrogens summed into heavy atoms:
               1
     1  O    0.153836
     4  Li   0.846164
 APT charges:
               1
     1  O   -0.680491
     2  H    0.371218
     3  H    0.371204
     4  Li   0.938069
 Sum of APT charges =   1.00000
 APT charges with hydrogens summed into heavy atoms:
               1
     1  O    0.061931
     4  Li   0.938069
 Electronic spatial extent (au):  <R**2>=             42.0040
 Charge=              1.0000 electrons
 Dipole moment (field-independent basis, Debye):
    X=             -0.0002    Y=              4.0326    Z=              0.0000  Tot=              4.0326
 Quadrupole moment (field-independent basis, Debye-Ang):
   XX=             -4.3384   YY=              6.7109   ZZ=             -8.0317
   XY=             -0.0001   XZ=              0.0000   YZ=              0.0000
 Traceless Quadrupole moment (field-independent basis, Debye-Ang):
   XX=             -2.4520   YY=              8.5973   ZZ=             -6.1453
   XY=             -0.0001   XZ=              0.0000   YZ=              0.0000
 Octapole moment (field-independent basis, Debye-Ang**2):
  XXX=             -0.0005  YYY=             18.5641  ZZZ=              0.0000  XYY=              0.0005
  XXY=             -0.8155  XXZ=              0.0000  XZZ=              0.0000  YZZ=              2.0377
  YYZ=              0.0000  XYZ=              0.0000
 Hexadecapole moment (field-independent basis, Debye-Ang**3):
 XXXX=             -5.5797 YYYY=              8.7669 ZZZZ=             -7.0730 XXXY=              0.0002
 XXXZ=              0.0000 YYYX=             -0.0005 YYYZ=              0.0000 ZZZX=              0.0000
 ZZZY=              0.0000 XXYY=             -1.8265 XXZZ=             -2.4608 YYZZ=             -4.4236
 XXYZ=              0.0000 YYXZ=              0.0000 ZZXY=              0.0000
 N-N= 1.724046264885D+01 E-N=-2.292537907118D+02  KE= 8.348257217254D+01
 Symmetry A'   KE= 7.892377015230D+01
 Symmetry A"   KE= 4.558802020242D+00
  Exact polarizability:   7.845   0.000   8.457   0.000   0.000   6.966
 Approx polarizability:   9.582   0.000   9.743   0.000   0.000   7.319
 Calling FoFJK, ICntrl=    100127 FMM=F ISym2X=1 I1Cent= 0 IOpClX= 0 NMat=1 NMatS=1 NMatT=0.
 Full mass-weighted force constant matrix:
 Low frequencies ---  -59.9844  -18.9021   -0.0020   -0.0017   -0.0007    6.0277
 Low frequencies ---  439.9891  537.4034  556.2612
 Diagonal vibrational polarizability:
       14.6036806      11.0527354      53.2963113
 Harmonic frequencies (cm**-1), IR intensities (KM/Mole), Raman scattering
 activities (A**4/AMU), depolarization ratios for plane and unpolarized
 incident light, reduced masses (AMU), force constants (mDyne/A),
 and normal coordinates:
                      1                      2                      3
                     A"                     A'                     A'
 Frequencies --    439.9885               537.4027               556.2612
 Red. masses --      1.2350                 1.2008                 6.6666
 Frc consts  --      0.1409                 0.2043                 1.2154
 IR Inten    --    383.3952               152.3923               111.0477
  Atom  AN      X      Y      Z        X      Y      Z        X      Y      Z
     1   8     0.00   0.00   0.12     0.09   0.00   0.00     0.00   0.32   0.00
     2   1     0.00   0.00  -0.70    -0.36  -0.60   0.00     0.01   0.33   0.00
     3   1     0.00   0.00  -0.70    -0.36   0.60   0.00    -0.01   0.33   0.00
     4   3     0.00   0.00  -0.06    -0.11   0.00   0.00     0.00  -0.83   0.00
                      4                      5                      6
                     A'                     A'                     A'
 Frequencies --   1680.1796              3777.5774              3844.8355
 Red. masses --      1.0830                 1.0457                 1.0826
 Frc consts  --      1.8013                 8.7917                 9.4291
 IR Inten    --    125.9275               103.0512               221.6046
  Atom  AN      X      Y      Z        X      Y      Z        X      Y      Z
     1   8     0.00  -0.07   0.00     0.00   0.05   0.00     0.07   0.00   0.00
     2   1     0.43   0.56   0.00     0.58  -0.40   0.00    -0.56   0.43   0.00
     3   1    -0.43   0.56   0.00    -0.58  -0.40   0.00    -0.56  -0.43   0.00
     4   3     0.00   0.00   0.00     0.00   0.00   0.00     0.00   0.00   0.00

 -------------------
 - Thermochemistry -
 -------------------
 Temperature   298.150 Kelvin.  Pressure   1.00000 Atm.
 Atom     1 has atomic number  8 and mass  15.99491
 Atom     2 has atomic number  1 and mass   1.00783
 Atom     3 has atomic number  1 and mass   1.00783
 Atom     4 has atomic number  3 and mass   7.01600
 Molecular mass:    25.02657 amu.
 Principal axes and moments of inertia in atomic units:
                           1         2         3
     Eigenvalues --     4.28547  67.73401  72.01948
           X            0.00000   1.00000   0.00000
           Y            1.00000   0.00000   0.00000
           Z            0.00000   0.00000   1.00000
 This molecule is an asymmetric top.
 Rotational symmetry number  1.
 Rotational temperatures (Kelvin)     20.21103     1.27873     1.20264
 Rotational constants (GHZ):         421.13003    26.64454    25.05907
 Zero-point vibrational energy      64815.1 (Joules/Mol)
                                   15.49119 (Kcal/Mol)
 Warning -- explicit consideration of   3 degrees of freedom as
           vibrations may cause significant error
 Vibrational temperatures:    633.04   773.20   800.33  2417.40  5435.08
          (Kelvin)           5531.85
 
 Zero-point correction=                           0.024687 (Hartree/Particle)
 Thermal correction to Energy=                    0.028178
 Thermal correction to Enthalpy=                  0.029122
 Thermal correction to Gibbs Free Energy=         0.002890
 Sum of electronic and zero-point Energies=            -83.777072
 Sum of electronic and thermal Energies=               -83.773581
 Sum of electronic and thermal Enthalpies=             -83.772637
 Sum of electronic and thermal Free Energies=          -83.798869
 
                     E (Thermal)             CV                S
                      KCal/Mol        Cal/Mol-Kelvin    Cal/Mol-Kelvin
 Total                   17.682              9.677             55.210
 Electronic               0.000              0.000              0.000
 Translational            0.889              2.981             35.589
 Rotational               0.889              2.981             17.687
 Vibrational             15.904              3.716              1.934
 Vibration     1          0.800              1.383              0.827
 Vibration     2          0.892              1.167              0.571
 Vibration     3          0.912              1.126              0.531
                       Q            Log10(Q)             Ln(Q)
 Total Bot       0.468657D-01         -1.329145         -3.060469
 Total V=0       0.106160D+11         10.025962         23.085631
 Vib (Bot)       0.581867D-11        -11.235176        -25.869950
 Vib (Bot)    1  0.392903D+00         -0.405715         -0.934193
 Vib (Bot)    2  0.295540D+00         -0.529384         -1.218952
 Vib (Bot)    3  0.280422D+00         -0.552188         -1.271460
 Vib (V=0)       0.131805D+01          0.119931          0.276151
 Vib (V=0)    1  0.113590D+01          0.055341          0.127428
 Vib (V=0)    2  0.108081D+01          0.033751          0.077714
 Vib (V=0)    3  0.107327D+01          0.030708          0.070708
 Electronic      0.100000D+01          0.000000          0.000000
 Translational   0.492104D+07          6.692057         15.409031
 Rotational      0.163672D+04          3.213974          7.400449
 ***** Axes restored to original set *****
 -------------------------------------------------------------------
 Center     Atomic                   Forces (Hartrees/Bohr)
 Number     Number              X              Y              Z
 -------------------------------------------------------------------
      1        8           0.000003817    0.000000000    0.000006619
      2        1          -0.000022478    0.000000000    0.000002068
      3        1           0.000005656    0.000000000   -0.000021125
      4        3           0.000013005    0.000000000    0.000012437
 -------------------------------------------------------------------
 Cartesian Forces:  Max     0.000022478 RMS     0.000010685
 FormGI is forming the generalized inverse of G from B-inverse, IUseBI=4.

 GradGradGradGradGradGradGradGradGradGradGradGradGradGradGradGradGradGrad
 Berny optimization.
 Internal  Forces:  Max     0.000025201 RMS     0.000014244
 Search for a local minimum.
 Step number   1 out of a maximum of    2
 All quantities printed in internal units (Hartrees-Bohrs-Radians)
 Second derivative matrix not updated -- analytic derivatives used.
 The second derivative matrix:
                          R1        R2        R3        A1        A2
           R1           0.52232
           R2          -0.00001   0.52234
           R3           0.00298   0.00299   0.05913
           A1           0.01490   0.01490  -0.00250   0.07498
           A2          -0.00533  -0.00957   0.00125  -0.03749   0.03377
           A3          -0.00957  -0.00533   0.00125  -0.03749   0.00372
           D1           0.00000   0.00000   0.00000   0.00000   0.00000
                          A3        D1
           A3           0.03377
           D1           0.00000   0.00631
 ITU=  0
     Eigenvalues ---    0.00631   0.03001   0.05889   0.11106   0.52238
     Eigenvalues ---    0.52397
 Angle between quadratic step and forces=  26.55 degrees.
 Linear search not attempted -- first point.
 Iteration  1 RMS(Cart)=  0.00016577 RMS(Int)=  0.00000001
 Iteration  2 RMS(Cart)=  0.00000001 RMS(Int)=  0.00000000
 ClnCor:  largest displacement from symmetrization is 6.94D-10 for atom     1.
 Variable       Old X    -DE/DX   Delta X   Delta X   Delta X     New X
                                 (Linear)    (Quad)   (Total)
    R1        1.82790   0.00000   0.00000   0.00000   0.00000   1.82790
    R2        1.82788   0.00001   0.00000   0.00001   0.00001   1.82790
    R3        3.48000  -0.00002   0.00000  -0.00029  -0.00029   3.47971
    A1        1.84696   0.00003   0.00000   0.00022   0.00022   1.84717
    A2        2.21822  -0.00002   0.00000  -0.00022  -0.00022   2.21801
    A3        2.21801  -0.00001   0.00000   0.00000   0.00000   2.21801
    D1        3.14159   0.00000   0.00000   0.00000   0.00000   3.14159
         Item               Value     Threshold  Converged?
 Maximum Force            0.000025     0.000450     YES
 RMS     Force            0.000014     0.000300     YES
 Maximum Displacement     0.000269     0.001800     YES
 RMS     Displacement     0.000166     0.001200     YES
 Predicted change in Energy=-7.092389D-09
 Optimization completed.
    -- Stationary point found.
                           ----------------------------
                           !   Optimized Parameters   !
                           ! (Angstroms and Degrees)  !
 --------------------------                            --------------------------
 ! Name  Definition              Value          Derivative Info.                !
 --------------------------------------------------------------------------------
 ! R1    R(1,2)                  0.9673         -DE/DX =    0.0                 !
 ! R2    R(1,3)                  0.9673         -DE/DX =    0.0                 !
 ! R3    R(1,4)                  1.8415         -DE/DX =    0.0                 !
 ! A1    A(2,1,3)              105.8228         -DE/DX =    0.0                 !
 ! A2    A(2,1,4)              127.0947         -DE/DX =    0.0                 !
 ! A3    A(3,1,4)              127.0825         -DE/DX =    0.0                 !
 ! D1    D(2,1,4,3)            180.0            -DE/DX =    0.0                 !
 --------------------------------------------------------------------------------
 GradGradGradGradGradGradGradGradGradGradGradGradGradGradGradGradGradGrad

 1\1\GINC-C13B-11\Freq\RB3LYP\6-311+G(d,p)\H2Li1O1(1+)\EPLUHAR\14-Oct-2
 016\0\\#N Geom=AllCheck Guess=TCheck SCRF=Check GenChk RB3LYP/6-311+G(
 d,p) Freq\\Title Card Required\\1,1\O,0.1024518868,0.,0.0493327272\H,0
 .0915068763,0.,1.0165525717\H,1.0360001656,0.,-0.2038598074\Li,-1.3537
 674055,0.,-1.077911172\\Version=ES64L-G09RevD.01\State=1-A'\HF=-83.801
 7589\RMSD=4.612e-10\RMSF=1.068e-05\ZeroPoint=0.0246868\Thermal=0.02817
 77\Dipole=-1.2545325,0.,-0.9712076\DipoleDeriv=-0.6768695,-0.0000026,-
 0.0041306,-0.0000009,-0.6898305,-0.0000015,-0.0041274,-0.0000023,-0.67
 4773,0.3266149,0.0000001,-0.0459156,0.,0.3994055,0.0000001,-0.0157655,
 0.0000018,0.3876338,0.368793,0.000001,-0.0266954,0.0000003,0.3994049,0
 .0000004,-0.056843,-0.0000004,0.3454126,0.9814617,0.0000015,0.0767416,
 0.0000007,0.8910201,0.000001,0.0767358,0.0000009,0.9417265\Polar=8.227
 7822,0.0000749,6.9658266,0.2963784,0.000088,8.0745786\PG=CS [SG(H2Li1O
 1)]\NImag=0\\0.57139893,-0.00000001,0.02059875,-0.08354960,-0.00000002
 ,0.61468055,-0.05573099,0.,-0.02673463,0.05528227,-0.00000002,-0.00780
 362,0.,0.,0.00288969,0.02149046,-0.00000002,-0.50678661,-0.01635104,0.
 00000002,0.52200408,-0.47970690,-0.00000003,0.13134471,-0.00085172,0.0
 0000003,-0.00352531,0.48472718,0.00000001,-0.00780030,0.,0.,0.00302478
 ,0.,0.,0.00288541,0.08312025,0.,-0.08283535,0.04805839,-0.00000001,-0.
 01238974,-0.12762109,0.,0.09258470,-0.03596104,0.00000004,-0.02106048,
 0.00130044,0.,-0.00161410,-0.00416856,-0.00000001,-0.00355756,0.038829
 16,0.00000002,-0.00499483,0.00000002,0.,0.00188915,0.,0.,0.00189012,0.
 ,-0.00000002,0.00121556,-0.02106110,0.00000002,-0.02505860,-0.00497272
 ,-0.00000001,-0.00282773,-0.00019831,0.,0.00264038,0.02623214,-0.00000
 001,0.02524594\\-0.00000382,0.,-0.00000662,0.00002248,0.,-0.00000207,-
 0.00000566,0.,0.00002113,-0.00001300,0.,-0.00001244\\\@


 THE GREAT THING ABOUT BEING IMPERFECT IS THE JOY IT BRINGS OTHERS.
   -- SIGN OUTSIDE LAKE AGASSIZ JR. HIGH SCHOOL, FARGO, N.D.
 Job cpu time:       0 days  0 hours  0 minutes 38.7 seconds.
 File lengths (MBytes):  RWF=      5 Int=      0 D2E=      0 Chk=      2 Scr=      1
 Normal termination of Gaussian 09 at Fri Oct 14 13:28:42 2016.
