 Entering Gaussian System, Link 0=g09
 Initial command:
 /cluster/software/gaussian/gaussian-09-D.01/g09/l1.exe "/local/scratch/glaserr/Gau-21084.inp" -scrdir="/local/scratch/glaserr/"
 Entering Link 1 = /cluster/software/gaussian/gaussian-09-D.01/g09/l1.exe PID=     21085.
  
 Copyright (c) 1988,1990,1992,1993,1995,1998,2003,2009,2013,
            Gaussian, Inc.  All Rights Reserved.
  
 This is part of the Gaussian(R) 09 program.  It is based on
 the Gaussian(R) 03 system (copyright 2003, Gaussian, Inc.),
 the Gaussian(R) 98 system (copyright 1998, Gaussian, Inc.),
 the Gaussian(R) 94 system (copyright 1995, Gaussian, Inc.),
 the Gaussian 92(TM) system (copyright 1992, Gaussian, Inc.),
 the Gaussian 90(TM) system (copyright 1990, Gaussian, Inc.),
 the Gaussian 88(TM) system (copyright 1988, Gaussian, Inc.),
 the Gaussian 86(TM) system (copyright 1986, Carnegie Mellon
 University), and the Gaussian 82(TM) system (copyright 1983,
 Carnegie Mellon University). Gaussian is a federally registered
 trademark of Gaussian, Inc.
  
 This software contains proprietary and confidential information,
 including trade secrets, belonging to Gaussian, Inc.
  
 This software is provided under written license and may be
 used, copied, transmitted, or stored only in accord with that
 written license.
  
 The following legend is applicable only to US Government
 contracts under FAR:
  
                    RESTRICTED RIGHTS LEGEND
  
 Use, reproduction and disclosure by the US Government is
 subject to restrictions as set forth in subparagraphs (a)
 and (c) of the Commercial Computer Software - Restricted
 Rights clause in FAR 52.227-19.
  
 Gaussian, Inc.
 340 Quinnipiac St., Bldg. 40, Wallingford CT 06492
  
  
 ---------------------------------------------------------------
 Warning -- This program may not be used in any manner that
 competes with the business of Gaussian, Inc. or will provide
 assistance to any competitor of Gaussian, Inc.  The licensee
 of this program is prohibited from giving any competitor of
 Gaussian, Inc. access to this program.  By using this program,
 the user acknowledges that Gaussian, Inc. is engaged in the
 business of creating and licensing software in the field of
 computational chemistry and represents and warrants to the
 licensee that it is not a competitor of Gaussian, Inc. and that
 it will not use this program in any manner prohibited above.
 ---------------------------------------------------------------
  

 Cite this work as:
 Gaussian 09, Revision D.01,
 M. J. Frisch, G. W. Trucks, H. B. Schlegel, G. E. Scuseria, 
 M. A. Robb, J. R. Cheeseman, G. Scalmani, V. Barone, B. Mennucci, 
 G. A. Petersson, H. Nakatsuji, M. Caricato, X. Li, H. P. Hratchian, 
 A. F. Izmaylov, J. Bloino, G. Zheng, J. L. Sonnenberg, M. Hada, 
 M. Ehara, K. Toyota, R. Fukuda, J. Hasegawa, M. Ishida, T. Nakajima, 
 Y. Honda, O. Kitao, H. Nakai, T. Vreven, J. A. Montgomery, Jr., 
 J. E. Peralta, F. Ogliaro, M. Bearpark, J. J. Heyd, E. Brothers, 
 K. N. Kudin, V. N. Staroverov, T. Keith, R. Kobayashi, J. Normand, 
 K. Raghavachari, A. Rendell, J. C. Burant, S. S. Iyengar, J. Tomasi, 
 M. Cossi, N. Rega, J. M. Millam, M. Klene, J. E. Knox, J. B. Cross, 
 V. Bakken, C. Adamo, J. Jaramillo, R. Gomperts, R. E. Stratmann, 
 O. Yazyev, A. J. Austin, R. Cammi, C. Pomelli, J. W. Ochterski, 
 R. L. Martin, K. Morokuma, V. G. Zakrzewski, G. A. Voth, 
 P. Salvador, J. J. Dannenberg, S. Dapprich, A. D. Daniels, 
 O. Farkas, J. B. Foresman, J. V. Ortiz, J. Cioslowski, 
 and D. J. Fox, Gaussian, Inc., Wallingford CT, 2013.
 
 ******************************************
 Gaussian 09:  ES64L-G09RevD.01 24-Apr-2013
                23-Sep-2016 
 ******************************************
 %rwf=/home/glaserr/scratch/IM_Q2
 %int=/home/glaserr/scratch/IM_Q2
 %d2e=/home/glaserr/scratch/IM_Q2
 %nosave
 %mem=12GB
 %nprocshared=4
 Will use up to    4 processors via shared memory.
 %chk=/home/glaserr/IM_Q2
 --------------------------------------------------------
 # opt=(tight) freq UHF/6-31G* gfp scf=(QC,maxcycles=500)
 --------------------------------------------------------
 1/7=10,18=20,19=15,38=1/1,3;
 2/9=110,12=2,17=6,18=5,40=1/2;
 3/5=1,6=6,7=1,11=2,16=1,24=100,25=1,30=1,71=1,116=2/1,2,3;
 4//1;
 5/5=2,7=500,8=3,38=5/8;
 6/7=2,8=2,9=2,10=2,28=1/1;
 7//1,2,3,16;
 1/7=10,18=20,19=15/3(2);
 2/9=110/2;
 99//99;
 2/9=110/2;
 3/5=1,6=6,7=1,11=2,16=1,25=1,30=1,71=1,116=2/1,2,3;
 4/5=5,16=3,69=1/1;
 5/5=2,7=500,8=3,38=5/8;
 7//1,2,3,16;
 1/7=10,18=20,19=15/3(-5);
 2/9=110/2;
 6/7=2,8=2,9=2,10=2,19=2,28=1/1;
 99/9=1/99;
 -----
 IM_Q2
 -----
 Symbolic Z-matrix:
 Charge =  1 Multiplicity = 4
 C
 C                    1    B1
 C                    2    B2       1    A1
 C                    1    B3       2    A2       3    D1       0
 C                    4    B4       1    A3       2    D2       0
 C                    5    B5       4    A4       1    D3       0
 C                    6    B6       5    A5       4    D4       0
 C                    1    B7       7    A6       6    D5       0
 N                    8    B8       1    A7       7    D6       0
 C                    1    B9       8    A8       9    D7       0
 C                    10   B10      1    A9       8    D8       0
 C                    11   B11      10   A10      1    D9       0
 C                    2    B12      1    A11      8    D10      0
 N                    10   B13      1    A12      8    D11      0
 C                    2    B14      1    A13      8    D12      0
 C                    15   B15      2    A14      1    D13      0
 C                    16   B16      15   A15      2    D14      0
 C                    3    B17      2    A16      1    D15      0
 N                    18   B18      3    A17      2    D16      0
 C                    3    B19      2    A18      1    D17      0
 C                    20   B20      3    A19      2    D18      0
 C                    21   B21      20   A20      3    D19      0
 C                    4    B22      1    A21      8    D20      0
 N                    20   B23      3    A22      2    D21      0
 H                    1    B24      8    A23      9    D22      0
 H                    2    B25      1    A24      8    D23      0
 H                    3    B26      2    A25      1    D24      0
 H                    4    B27      1    A26      8    D25      0
 H                    6    B28      5    A27      4    D26      0
 H                    7    B29      6    A28      5    D27      0
 H                    11   B30      10   A29      1    D28      0
 H                    12   B31      11   A30      10   D29      0
 H                    16   B32      15   A31      2    D30      0
 H                    17   B33      16   A32      15   D31      0
 H                    21   B34      20   A33      3    D32      0
 H                    22   B35      21   A34      20   D33      0
 Fe                   9    B36      8    A35      1    D34      0
 O                    37   B37      9    A36      8    D35      0
 C                    37   B38      9    A37      8    D36      0
 C                    39   B39      37   A38      9    D37      0
 C                    40   B40      39   A39      37   D38      0
 N                    39   B41      37   A40      9    D39      0
 H                    42   B42      39   A41      37   D40      0
 H                    39   B43      37   A42      9    D41      0
 H                    40   B44      39   A43      37   D42      0
 H                    41   B45      40   A44      39   D43      0
 N                    39   B46      37   A45      9    D44      0
       Variables:
  B1                    4.82101                  
  B2                    4.82101                  
  B3                    4.81974                  
  B4                    1.39086                  
  B5                    1.43915                  
  B6                    1.35604                  
  B7                    1.38979                  
  B8                    1.36501                  
  B9                    1.39097                  
  B10                   1.43875                  
  B11                   1.35657                  
  B12                   1.39081                  
  B13                   1.36452                  
  B14                   1.39084                  
  B15                   1.43874                  
  B16                   1.35657                  
  B17                   1.39095                  
  B18                   1.36454                  
  B19                   1.38981                  
  B20                   1.43918                  
  B21                   1.35605                  
  B22                   1.39084                  
  B23                   1.36499                  
  B24                   1.08323                  
  B25                   1.08332                  
  B26                   1.08323                  
  B27                   1.08325                  
  B28                   1.07896                  
  B29                   1.07894                  
  B30                   1.07896                  
  B31                   1.079                    
  B32                   1.079                    
  B33                   1.07896                  
  B34                   1.07894                  
  B35                   1.07896                  
  B36                   2.01748                  
  B37                   1.62516                  
  B38                   3.13466                  
  B39                   2.16057                  
  B40                   1.36162                  
  B41                   1.34829                  
  B42                   1.00806                  
  B43                   1.07601                  
  B44                   1.0749                   
  B45                   1.07566                  
  B46                   1.32031                  
  A1                   89.74264                  
  A2                   89.8086                   
  A3                   18.16746                  
  A4                  124.80743                  
  A5                  106.58604                  
  A6                   28.19965                  
  A7                  124.82996                  
  A8                  126.19401                  
  A9                  124.63932                  
  A10                 106.61336                  
  A11                  18.19615                  
  A12                 124.82238                  
  A13                 107.92539                  
  A14                 124.84762                  
  A15                 106.58778                  
  A16                  18.19479                  
  A17                 124.82243                  
  A18                 108.00076                  
  A19                 124.64955                  
  A20                 106.60918                  
  A21                 107.9285                   
  A22                 124.82988                  
  A23                 116.8736                   
  A24                 135.12582                  
  A25                 135.00114                  
  A26                 135.11142                  
  A27                 125.03255                  
  A28                 128.3692                   
  A29                 125.02256                  
  A30                 128.36521                  
  A31                 125.04706                  
  A32                 128.35621                  
  A33                 125.01514                  
  A34                 128.38136                  
  A35                 127.00945                  
  A36                  92.23409                  
  A37                 101.58614                  
  A38                  71.52241                  
  A39                  73.66366                  
  A40                 144.18603                  
  A41                 125.64595                  
  A42                  92.32923                  
  A43                 157.92664                  
  A44                 131.91527                  
  A45                  33.70186                  
  D1                   -7.03982                  
  D2                 -175.02939                  
  D3                  179.95722                  
  D4                  178.44566                  
  D5                   -4.95663                  
  D6                  176.92995                  
  D7                    2.82899                  
  D8                  173.97574                  
  D9                 -176.21026                  
  D10                 175.23826                  
  D11                  -2.92439                  
  D12                  -7.57806                  
  D13                -177.97344                  
  D14                 178.50145                  
  D15                -172.41996                  
  D16                   3.74492                  
  D17                   6.88263                  
  D18                 173.83075                  
  D19                -176.26254                  
  D20                -171.79816                  
  D21                  -3.1001                   
  D22                 179.64876                  
  D23                 172.25502                  
  D24                -177.47104                  
  D25                   8.16975                  
  D26                  -1.50554                  
  D27                 179.75868                  
  D28                   2.83199                  
  D29                 179.26908                  
  D30                  -1.57161                  
  D31                 179.65453                  
  D32                   2.87427                  
  D33                 179.39079                  
  D34                  -1.99117                  
  D35                 -91.13792                  
  D36                  74.84756                  
  D37                  46.09471                  
  D38                -180.                       
  D39                  46.09483                  
  D40                 180.                       
  D41                -133.90505                  
  D42                   0.00075                  
  D43                 180.                       
  D44                  46.09474                  
 

 GradGradGradGradGradGradGradGradGradGradGradGradGradGradGradGradGradGrad
 Berny optimization.
 Initialization pass.
                           ----------------------------
                           !    Initial Parameters    !
                           ! (Angstroms and Degrees)  !
 --------------------------                            --------------------------
 ! Name  Definition              Value          Derivative Info.                !
 --------------------------------------------------------------------------------
 ! R1    R(1,8)                  1.3898         estimate D2E/DX2                !
 ! R2    R(1,10)                 1.391          estimate D2E/DX2                !
 ! R3    R(1,25)                 1.0832         estimate D2E/DX2                !
 ! R4    R(2,13)                 1.3908         estimate D2E/DX2                !
 ! R5    R(2,15)                 1.3908         estimate D2E/DX2                !
 ! R6    R(2,26)                 1.0833         estimate D2E/DX2                !
 ! R7    R(3,18)                 1.3909         estimate D2E/DX2                !
 ! R8    R(3,20)                 1.3898         estimate D2E/DX2                !
 ! R9    R(3,27)                 1.0832         estimate D2E/DX2                !
 ! R10   R(4,5)                  1.3909         estimate D2E/DX2                !
 ! R11   R(4,23)                 1.3908         estimate D2E/DX2                !
 ! R12   R(4,28)                 1.0833         estimate D2E/DX2                !
 ! R13   R(5,6)                  1.4391         estimate D2E/DX2                !
 ! R14   R(5,9)                  1.3651         estimate D2E/DX2                !
 ! R15   R(6,7)                  1.356          estimate D2E/DX2                !
 ! R16   R(6,29)                 1.079          estimate D2E/DX2                !
 ! R17   R(7,8)                  1.4392         estimate D2E/DX2                !
 ! R18   R(7,30)                 1.0789         estimate D2E/DX2                !
 ! R19   R(8,9)                  1.365          estimate D2E/DX2                !
 ! R20   R(9,37)                 2.0175         estimate D2E/DX2                !
 ! R21   R(10,11)                1.4387         estimate D2E/DX2                !
 ! R22   R(10,14)                1.3645         estimate D2E/DX2                !
 ! R23   R(11,12)                1.3566         estimate D2E/DX2                !
 ! R24   R(11,31)                1.079          estimate D2E/DX2                !
 ! R25   R(12,13)                1.4387         estimate D2E/DX2                !
 ! R26   R(12,32)                1.079          estimate D2E/DX2                !
 ! R27   R(13,14)                1.366          estimate D2E/DX2                !
 ! R28   R(14,37)                2.0193         estimate D2E/DX2                !
 ! R29   R(15,16)                1.4387         estimate D2E/DX2                !
 ! R30   R(15,19)                1.366          estimate D2E/DX2                !
 ! R31   R(16,17)                1.3566         estimate D2E/DX2                !
 ! R32   R(16,33)                1.079          estimate D2E/DX2                !
 ! R33   R(17,18)                1.4388         estimate D2E/DX2                !
 ! R34   R(17,34)                1.079          estimate D2E/DX2                !
 ! R35   R(18,19)                1.3645         estimate D2E/DX2                !
 ! R36   R(19,37)                2.0193         estimate D2E/DX2                !
 ! R37   R(20,21)                1.4392         estimate D2E/DX2                !
 ! R38   R(20,24)                1.365          estimate D2E/DX2                !
 ! R39   R(21,22)                1.356          estimate D2E/DX2                !
 ! R40   R(21,35)                1.0789         estimate D2E/DX2                !
 ! R41   R(22,23)                1.4391         estimate D2E/DX2                !
 ! R42   R(22,36)                1.079          estimate D2E/DX2                !
 ! R43   R(23,24)                1.3651         estimate D2E/DX2                !
 ! R44   R(24,37)                2.0175         estimate D2E/DX2                !
 ! R45   R(37,38)                1.6252         estimate D2E/DX2                !
 ! R46   R(37,47)                2.164          estimate D2E/DX2                !
 ! R47   R(39,42)                1.3483         estimate D2E/DX2                !
 ! R48   R(39,44)                1.076          estimate D2E/DX2                !
 ! R49   R(39,47)                1.3203         estimate D2E/DX2                !
 ! R50   R(40,41)                1.3616         estimate D2E/DX2                !
 ! R51   R(40,45)                1.0749         estimate D2E/DX2                !
 ! R52   R(40,47)                1.38           estimate D2E/DX2                !
 ! R53   R(41,42)                1.376          estimate D2E/DX2                !
 ! R54   R(41,46)                1.0757         estimate D2E/DX2                !
 ! R55   R(42,43)                1.0081         estimate D2E/DX2                !
 ! A1    A(8,1,10)             126.194          estimate D2E/DX2                !
 ! A2    A(8,1,25)             116.8736         estimate D2E/DX2                !
 ! A3    A(10,1,25)            116.8612         estimate D2E/DX2                !
 ! A4    A(13,2,15)            126.0961         estimate D2E/DX2                !
 ! A5    A(13,2,26)            116.9489         estimate D2E/DX2                !
 ! A6    A(15,2,26)            116.9486         estimate D2E/DX2                !
 ! A7    A(18,3,20)            126.194          estimate D2E/DX2                !
 ! A8    A(18,3,27)            116.8614         estimate D2E/DX2                !
 ! A9    A(20,3,27)            116.8734         estimate D2E/DX2                !
 ! A10   A(5,4,23)             126.0718         estimate D2E/DX2                !
 ! A11   A(5,4,28)             116.9598         estimate D2E/DX2                !
 ! A12   A(23,4,28)            116.9601         estimate D2E/DX2                !
 ! A13   A(4,5,6)              124.8074         estimate D2E/DX2                !
 ! A14   A(4,5,9)              124.6975         estimate D2E/DX2                !
 ! A15   A(6,5,9)              110.4775         estimate D2E/DX2                !
 ! A16   A(5,6,7)              106.586          estimate D2E/DX2                !
 ! A17   A(5,6,29)             125.0326         estimate D2E/DX2                !
 ! A18   A(7,6,29)             128.3814         estimate D2E/DX2                !
 ! A19   A(6,7,8)              106.6092         estimate D2E/DX2                !
 ! A20   A(6,7,30)             128.3692         estimate D2E/DX2                !
 ! A21   A(8,7,30)             125.0151         estimate D2E/DX2                !
 ! A22   A(1,8,7)              124.65           estimate D2E/DX2                !
 ! A23   A(1,8,9)              124.83           estimate D2E/DX2                !
 ! A24   A(7,8,9)              110.4608         estimate D2E/DX2                !
 ! A25   A(5,9,8)              105.8562         estimate D2E/DX2                !
 ! A26   A(5,9,37)             126.8657         estimate D2E/DX2                !
 ! A27   A(8,9,37)             127.0094         estimate D2E/DX2                !
 ! A28   A(1,10,11)            124.6393         estimate D2E/DX2                !
 ! A29   A(1,10,14)            124.8224         estimate D2E/DX2                !
 ! A30   A(11,10,14)           110.4778         estimate D2E/DX2                !
 ! A31   A(10,11,12)           106.6134         estimate D2E/DX2                !
 ! A32   A(10,11,31)           125.0226         estimate D2E/DX2                !
 ! A33   A(12,11,31)           128.3561         estimate D2E/DX2                !
 ! A34   A(11,12,13)           106.5877         estimate D2E/DX2                !
 ! A35   A(11,12,32)           128.3652         estimate D2E/DX2                !
 ! A36   A(13,12,32)           125.047          estimate D2E/DX2                !
 ! A37   A(2,13,12)            124.8483         estimate D2E/DX2                !
 ! A38   A(2,13,14)            124.6849         estimate D2E/DX2                !
 ! A39   A(12,13,14)           110.4498         estimate D2E/DX2                !
 ! A40   A(10,14,13)           105.8603         estimate D2E/DX2                !
 ! A41   A(10,14,37)           126.9607         estimate D2E/DX2                !
 ! A42   A(13,14,37)           126.8858         estimate D2E/DX2                !
 ! A43   A(2,15,16)            124.8476         estimate D2E/DX2                !
 ! A44   A(2,15,19)            124.685          estimate D2E/DX2                !
 ! A45   A(16,15,19)           110.4504         estimate D2E/DX2                !
 ! A46   A(15,16,17)           106.5878         estimate D2E/DX2                !
 ! A47   A(15,16,33)           125.0471         estimate D2E/DX2                !
 ! A48   A(17,16,33)           128.3651         estimate D2E/DX2                !
 ! A49   A(16,17,18)           106.6133         estimate D2E/DX2                !
 ! A50   A(16,17,34)           128.3562         estimate D2E/DX2                !
 ! A51   A(18,17,34)           125.0225         estimate D2E/DX2                !
 ! A52   A(3,18,17)            124.6398         estimate D2E/DX2                !
 ! A53   A(3,18,19)            124.8224         estimate D2E/DX2                !
 ! A54   A(17,18,19)           110.4773         estimate D2E/DX2                !
 ! A55   A(15,19,18)           105.8602         estimate D2E/DX2                !
 ! A56   A(15,19,37)           126.8863         estimate D2E/DX2                !
 ! A57   A(18,19,37)           126.9604         estimate D2E/DX2                !
 ! A58   A(3,20,21)            124.6496         estimate D2E/DX2                !
 ! A59   A(3,20,24)            124.8299         estimate D2E/DX2                !
 ! A60   A(21,20,24)           110.4613         estimate D2E/DX2                !
 ! A61   A(20,21,22)           106.6092         estimate D2E/DX2                !
 ! A62   A(20,21,35)           125.0151         estimate D2E/DX2                !
 ! A63   A(22,21,35)           128.3692         estimate D2E/DX2                !
 ! A64   A(21,22,23)           106.5861         estimate D2E/DX2                !
 ! A65   A(21,22,36)           128.3814         estimate D2E/DX2                !
 ! A66   A(23,22,36)           125.0325         estimate D2E/DX2                !
 ! A67   A(4,23,22)            124.8081         estimate D2E/DX2                !
 ! A68   A(4,23,24)            124.6975         estimate D2E/DX2                !
 ! A69   A(22,23,24)           110.4768         estimate D2E/DX2                !
 ! A70   A(20,24,23)           105.8562         estimate D2E/DX2                !
 ! A71   A(20,24,37)           127.0099         estimate D2E/DX2                !
 ! A72   A(23,24,37)           126.8651         estimate D2E/DX2                !
 ! A73   A(9,37,14)             90.1178         estimate D2E/DX2                !
 ! A74   A(9,37,24)             89.7555         estimate D2E/DX2                !
 ! A75   A(9,37,38)             92.2341         estimate D2E/DX2                !
 ! A76   A(9,37,47)             87.6503         estimate D2E/DX2                !
 ! A77   A(14,37,19)            89.6717         estimate D2E/DX2                !
 ! A78   A(14,37,38)            92.1638         estimate D2E/DX2                !
 ! A79   A(14,37,47)            87.9516         estimate D2E/DX2                !
 ! A80   A(19,37,24)            90.1177         estimate D2E/DX2                !
 ! A81   A(19,37,38)            92.1641         estimate D2E/DX2                !
 ! A82   A(19,37,47)            87.9516         estimate D2E/DX2                !
 ! A83   A(24,37,38)            92.2337         estimate D2E/DX2                !
 ! A84   A(24,37,47)            87.651          estimate D2E/DX2                !
 ! A85   A(42,39,44)           123.4847         estimate D2E/DX2                !
 ! A86   A(42,39,47)           110.4842         estimate D2E/DX2                !
 ! A87   A(44,39,47)           126.0311         estimate D2E/DX2                !
 ! A88   A(41,40,45)           128.4097         estimate D2E/DX2                !
 ! A89   A(41,40,47)           109.5833         estimate D2E/DX2                !
 ! A90   A(45,40,47)           122.007          estimate D2E/DX2                !
 ! A91   A(40,41,42)           105.52           estimate D2E/DX2                !
 ! A92   A(40,41,46)           131.9153         estimate D2E/DX2                !
 ! A93   A(42,41,46)           122.5648         estimate D2E/DX2                !
 ! A94   A(39,42,41)           108.1528         estimate D2E/DX2                !
 ! A95   A(39,42,43)           125.646          estimate D2E/DX2                !
 ! A96   A(41,42,43)           126.2013         estimate D2E/DX2                !
 ! A97   A(37,47,39)           126.5104         estimate D2E/DX2                !
 ! A98   A(37,47,40)           127.2298         estimate D2E/DX2                !
 ! A99   A(39,47,40)           106.2598         estimate D2E/DX2                !
 ! A100  L(9,37,19,14,-1)      179.7894         estimate D2E/DX2                !
 ! A101  L(14,37,24,9,-1)      179.8732         estimate D2E/DX2                !
 ! A102  L(38,37,47,9,-1)      179.8844         estimate D2E/DX2                !
 ! A103  L(9,37,19,14,-2)      175.6066         estimate D2E/DX2                !
 ! A104  L(14,37,24,9,-2)      184.3959         estimate D2E/DX2                !
 ! A105  L(38,37,47,9,-2)      179.8849         estimate D2E/DX2                !
 ! D1    D(10,1,8,7)          -174.101          estimate D2E/DX2                !
 ! D2    D(10,1,8,9)             2.829          estimate D2E/DX2                !
 ! D3    D(25,1,8,7)             2.7188         estimate D2E/DX2                !
 ! D4    D(25,1,8,9)           179.6488         estimate D2E/DX2                !
 ! D5    D(8,1,10,11)          173.9757         estimate D2E/DX2                !
 ! D6    D(8,1,10,14)           -2.9244         estimate D2E/DX2                !
 ! D7    D(25,1,10,11)          -2.8444         estimate D2E/DX2                !
 ! D8    D(25,1,10,14)        -179.7445         estimate D2E/DX2                !
 ! D9    D(15,2,13,12)         176.8858         estimate D2E/DX2                !
 ! D10   D(15,2,13,14)          -1.4672         estimate D2E/DX2                !
 ! D11   D(26,2,13,12)          -2.1583         estimate D2E/DX2                !
 ! D12   D(26,2,13,14)         179.4887         estimate D2E/DX2                !
 ! D13   D(13,2,15,16)        -176.8854         estimate D2E/DX2                !
 ! D14   D(13,2,15,19)           1.4686         estimate D2E/DX2                !
 ! D15   D(26,2,15,16)           2.1587         estimate D2E/DX2                !
 ! D16   D(26,2,15,19)        -179.4873         estimate D2E/DX2                !
 ! D17   D(20,3,18,17)        -173.9761         estimate D2E/DX2                !
 ! D18   D(20,3,18,19)           2.923          estimate D2E/DX2                !
 ! D19   D(27,3,18,17)           2.8442         estimate D2E/DX2                !
 ! D20   D(27,3,18,19)         179.7433         estimate D2E/DX2                !
 ! D21   D(18,3,20,21)         174.1006         estimate D2E/DX2                !
 ! D22   D(18,3,20,24)          -2.8303         estimate D2E/DX2                !
 ! D23   D(27,3,20,21)          -2.7193         estimate D2E/DX2                !
 ! D24   D(27,3,20,24)        -179.6502         estimate D2E/DX2                !
 ! D25   D(23,4,5,6)          -176.8075         estimate D2E/DX2                !
 ! D26   D(23,4,5,9)             1.522          estimate D2E/DX2                !
 ! D27   D(28,4,5,6)             2.1074         estimate D2E/DX2                !
 ! D28   D(28,4,5,9)          -179.5632         estimate D2E/DX2                !
 ! D29   D(5,4,23,22)          176.8077         estimate D2E/DX2                !
 ! D30   D(5,4,23,24)           -1.5206         estimate D2E/DX2                !
 ! D31   D(28,4,23,22)          -2.1072         estimate D2E/DX2                !
 ! D32   D(28,4,23,24)         179.5646         estimate D2E/DX2                !
 ! D33   D(4,5,6,7)            178.4457         estimate D2E/DX2                !
 ! D34   D(4,5,6,29)            -1.5055         estimate D2E/DX2                !
 ! D35   D(9,5,6,7)             -0.0883         estimate D2E/DX2                !
 ! D36   D(9,5,6,29)           179.9605         estimate D2E/DX2                !
 ! D37   D(4,5,9,8)           -179.0892         estimate D2E/DX2                !
 ! D38   D(4,5,9,37)             6.5603         estimate D2E/DX2                !
 ! D39   D(6,5,9,8)             -0.5533         estimate D2E/DX2                !
 ! D40   D(6,5,9,37)          -174.9038         estimate D2E/DX2                !
 ! D41   D(5,6,7,8)              0.6605         estimate D2E/DX2                !
 ! D42   D(5,6,7,30)           179.7587         estimate D2E/DX2                !
 ! D43   D(29,6,7,8)          -179.3905         estimate D2E/DX2                !
 ! D44   D(29,6,7,30)           -0.2923         estimate D2E/DX2                !
 ! D45   D(6,7,8,1)            176.2616         estimate D2E/DX2                !
 ! D46   D(6,7,8,9)             -1.0489         estimate D2E/DX2                !
 ! D47   D(30,7,8,1)            -2.8751         estimate D2E/DX2                !
 ! D48   D(30,7,8,9)           179.8143         estimate D2E/DX2                !
 ! D49   D(1,8,9,5)           -176.3309         estimate D2E/DX2                !
 ! D50   D(1,8,9,37)            -1.9912         estimate D2E/DX2                !
 ! D51   D(7,8,9,5)              0.9737         estimate D2E/DX2                !
 ! D52   D(7,8,9,37)           175.3135         estimate D2E/DX2                !
 ! D53   D(5,9,37,14)          174.2215         estimate D2E/DX2                !
 ! D54   D(5,9,37,24)          -10.1744         estimate D2E/DX2                !
 ! D55   D(5,9,37,38)           82.0514         estimate D2E/DX2                !
 ! D56   D(5,9,37,47)          -97.8335         estimate D2E/DX2                !
 ! D57   D(8,9,37,14)            1.0322         estimate D2E/DX2                !
 ! D58   D(8,9,37,24)          176.6362         estimate D2E/DX2                !
 ! D59   D(8,9,37,38)          -91.1379         estimate D2E/DX2                !
 ! D60   D(8,9,37,47)           88.9772         estimate D2E/DX2                !
 ! D61   D(1,10,11,12)        -176.2103         estimate D2E/DX2                !
 ! D62   D(1,10,11,31)           2.832          estimate D2E/DX2                !
 ! D63   D(14,10,11,12)          1.0736         estimate D2E/DX2                !
 ! D64   D(14,10,11,31)       -179.8841         estimate D2E/DX2                !
 ! D65   D(1,10,14,13)         176.2591         estimate D2E/DX2                !
 ! D66   D(1,10,14,37)           2.1692         estimate D2E/DX2                !
 ! D67   D(11,10,14,13)         -1.0188         estimate D2E/DX2                !
 ! D68   D(11,10,14,37)       -175.1086         estimate D2E/DX2                !
 ! D69   D(10,11,12,13)         -0.6548         estimate D2E/DX2                !
 ! D70   D(10,11,12,32)        179.2691         estimate D2E/DX2                !
 ! D71   D(31,11,12,13)       -179.6546         estimate D2E/DX2                !
 ! D72   D(31,11,12,32)          0.2693         estimate D2E/DX2                !
 ! D73   D(11,12,13,2)        -178.5005         estimate D2E/DX2                !
 ! D74   D(11,12,13,14)          0.0542         estimate D2E/DX2                !
 ! D75   D(32,12,13,2)           1.5724         estimate D2E/DX2                !
 ! D76   D(32,12,13,14)       -179.8729         estimate D2E/DX2                !
 ! D77   D(2,13,14,10)         179.1591         estimate D2E/DX2                !
 ! D78   D(2,13,14,37)          -6.7451         estimate D2E/DX2                !
 ! D79   D(12,13,14,10)          0.6016         estimate D2E/DX2                !
 ! D80   D(12,13,14,37)        174.6973         estimate D2E/DX2                !
 ! D81   D(10,14,37,9)          -1.1169         estimate D2E/DX2                !
 ! D82   D(10,14,37,19)       -176.7235         estimate D2E/DX2                !
 ! D83   D(10,14,37,38)         91.1232         estimate D2E/DX2                !
 ! D84   D(10,14,37,47)        -88.7615         estimate D2E/DX2                !
 ! D85   D(13,14,37,9)        -174.0033         estimate D2E/DX2                !
 ! D86   D(13,14,37,19)         10.3901         estimate D2E/DX2                !
 ! D87   D(13,14,37,38)        -81.7632         estimate D2E/DX2                !
 ! D88   D(13,14,37,47)         98.3521         estimate D2E/DX2                !
 ! D89   D(2,15,16,17)         178.5015         estimate D2E/DX2                !
 ! D90   D(2,15,16,33)          -1.5716         estimate D2E/DX2                !
 ! D91   D(19,15,16,17)         -0.054          estimate D2E/DX2                !
 ! D92   D(19,15,16,33)        179.8729         estimate D2E/DX2                !
 ! D93   D(2,15,19,18)        -179.1602         estimate D2E/DX2                !
 ! D94   D(2,15,19,37)           6.7426         estimate D2E/DX2                !
 ! D95   D(16,15,19,18)         -0.6018         estimate D2E/DX2                !
 ! D96   D(16,15,19,37)       -174.699          estimate D2E/DX2                !
 ! D97   D(15,16,17,18)          0.6548         estimate D2E/DX2                !
 ! D98   D(15,16,17,34)        179.6545         estimate D2E/DX2                !
 ! D99   D(33,16,17,18)       -179.2689         estimate D2E/DX2                !
 ! D100  D(33,16,17,34)         -0.2692         estimate D2E/DX2                !
 ! D101  D(16,17,18,3)         176.2092         estimate D2E/DX2                !
 ! D102  D(16,17,18,19)         -1.0738         estimate D2E/DX2                !
 ! D103  D(34,17,18,3)          -2.8329         estimate D2E/DX2                !
 ! D104  D(34,17,18,19)        179.8841         estimate D2E/DX2                !
 ! D105  D(3,18,19,15)        -176.258          estimate D2E/DX2                !
 ! D106  D(3,18,19,37)          -2.1666         estimate D2E/DX2                !
 ! D107  D(17,18,19,15)          1.019          estimate D2E/DX2                !
 ! D108  D(17,18,19,37)        175.1104         estimate D2E/DX2                !
 ! D109  D(15,19,37,14)        -10.3889         estimate D2E/DX2                !
 ! D110  D(15,19,37,24)        174.0038         estimate D2E/DX2                !
 ! D111  D(15,19,37,38)         81.7641         estimate D2E/DX2                !
 ! D112  D(15,19,37,47)        -98.3509         estimate D2E/DX2                !
 ! D113  D(18,19,37,14)        176.7228         estimate D2E/DX2                !
 ! D114  D(18,19,37,24)          1.1155         estimate D2E/DX2                !
 ! D115  D(18,19,37,38)        -91.1242         estimate D2E/DX2                !
 ! D116  D(18,19,37,47)         88.7608         estimate D2E/DX2                !
 ! D117  D(3,20,21,22)        -176.2625         estimate D2E/DX2                !
 ! D118  D(3,20,21,35)           2.8743         estimate D2E/DX2                !
 ! D119  D(24,20,21,22)          1.0488         estimate D2E/DX2                !
 ! D120  D(24,20,21,35)       -179.8144         estimate D2E/DX2                !
 ! D121  D(3,20,24,23)         176.332          estimate D2E/DX2                !
 ! D122  D(3,20,24,37)           1.9935         estimate D2E/DX2                !
 ! D123  D(21,20,24,23)         -0.9734         estimate D2E/DX2                !
 ! D124  D(21,20,24,37)       -175.312          estimate D2E/DX2                !
 ! D125  D(20,21,22,23)         -0.6605         estimate D2E/DX2                !
 ! D126  D(20,21,22,36)        179.3908         estimate D2E/DX2                !
 ! D127  D(35,21,22,23)       -179.7588         estimate D2E/DX2                !
 ! D128  D(35,21,22,36)          0.2925         estimate D2E/DX2                !
 ! D129  D(21,22,23,4)        -178.4443         estimate D2E/DX2                !
 ! D130  D(21,22,23,24)          0.0886         estimate D2E/DX2                !
 ! D131  D(36,22,23,4)           1.5065         estimate D2E/DX2                !
 ! D132  D(36,22,23,24)       -179.9606         estimate D2E/DX2                !
 ! D133  D(4,23,24,20)         179.0878         estimate D2E/DX2                !
 ! D134  D(4,23,24,37)          -6.5629         estimate D2E/DX2                !
 ! D135  D(22,23,24,20)          0.553          estimate D2E/DX2                !
 ! D136  D(22,23,24,37)        174.9023         estimate D2E/DX2                !
 ! D137  D(20,24,37,9)        -176.6365         estimate D2E/DX2                !
 ! D138  D(20,24,37,19)         -1.0332         estimate D2E/DX2                !
 ! D139  D(20,24,37,38)         91.1372         estimate D2E/DX2                !
 ! D140  D(20,24,37,47)        -88.9782         estimate D2E/DX2                !
 ! D141  D(23,24,37,9)          10.1756         estimate D2E/DX2                !
 ! D142  D(23,24,37,19)       -174.2211         estimate D2E/DX2                !
 ! D143  D(23,24,37,38)        -82.0507         estimate D2E/DX2                !
 ! D144  D(23,24,37,47)         97.8339         estimate D2E/DX2                !
 ! D145  D(9,37,47,39)        -135.0572         estimate D2E/DX2                !
 ! D146  D(9,37,47,40)          44.9428         estimate D2E/DX2                !
 ! D147  D(14,37,47,39)        -44.8552         estimate D2E/DX2                !
 ! D148  D(14,37,47,40)        135.1448         estimate D2E/DX2                !
 ! D149  D(19,37,47,39)         44.8894         estimate D2E/DX2                !
 ! D150  D(19,37,47,40)       -135.1107         estimate D2E/DX2                !
 ! D151  D(24,37,47,39)        135.0913         estimate D2E/DX2                !
 ! D152  D(24,37,47,40)        -44.9087         estimate D2E/DX2                !
 ! D153  D(44,39,42,41)        179.9997         estimate D2E/DX2                !
 ! D154  D(44,39,42,43)         -0.0001         estimate D2E/DX2                !
 ! D155  D(47,39,42,41)         -0.0001         estimate D2E/DX2                !
 ! D156  D(47,39,42,43)       -179.9999         estimate D2E/DX2                !
 ! D157  D(42,39,47,37)       -179.9999         estimate D2E/DX2                !
 ! D158  D(42,39,47,40)          0.0001         estimate D2E/DX2                !
 ! D159  D(44,39,47,37)          0.0003         estimate D2E/DX2                !
 ! D160  D(44,39,47,40)       -179.9997         estimate D2E/DX2                !
 ! D161  D(45,40,41,42)        179.9996         estimate D2E/DX2                !
 ! D162  D(45,40,41,46)         -0.0004         estimate D2E/DX2                !
 ! D163  D(47,40,41,42)         -0.0001         estimate D2E/DX2                !
 ! D164  D(47,40,41,46)       -180.0            estimate D2E/DX2                !
 ! D165  D(41,40,47,37)       -180.0            estimate D2E/DX2                !
 ! D166  D(41,40,47,39)          0.0            estimate D2E/DX2                !
 ! D167  D(45,40,47,37)          0.0004         estimate D2E/DX2                !
 ! D168  D(45,40,47,39)       -179.9997         estimate D2E/DX2                !
 ! D169  D(40,41,42,39)          0.0001         estimate D2E/DX2                !
 ! D170  D(40,41,42,43)        179.9999         estimate D2E/DX2                !
 ! D171  D(46,41,42,39)       -179.9999         estimate D2E/DX2                !
 ! D172  D(46,41,42,43)         -0.0001         estimate D2E/DX2                !
 --------------------------------------------------------------------------------
 Trust Radius=3.00D-01 FncErr=1.00D-07 GrdErr=1.00D-07
 Number of steps in this run=    282 maximum allowed number of steps=    282.
 GradGradGradGradGradGradGradGradGradGradGradGradGradGradGradGradGradGrad

                          Input orientation:                          
 ---------------------------------------------------------------------
 Center     Atomic      Atomic             Coordinates (Angstroms)
 Number     Number       Type             X           Y           Z
 ---------------------------------------------------------------------
      1          6           0        0.000000    0.000000    0.000000
      2          6           0        0.000000    0.000000    4.821014
      3          6           0        4.820963    0.000000    4.799359
      4          6           0        4.783376    0.590700    0.016100
      5          6           0        3.468649    0.466204   -0.420345
      6          6           0        3.049453    0.535703   -1.795331
      7          6           0        1.708463    0.334303   -1.801831
      8          6           0        1.312238    0.158361   -0.429496
      9          7           0        2.398872    0.228509    0.393636
     10          6           0       -0.430527   -0.057260    1.321425
     11          6           0       -1.809029   -0.098320    1.731360
     12          6           0       -1.811622   -0.062868    3.087463
     13          6           0       -0.434014   -0.016062    3.499750
     14          7           0        0.390571   -0.021824    2.410676
     15          6           0        1.323224   -0.016094    5.249083
     16          6           0        1.741692   -0.062941    6.624825
     17          6           0        3.097767   -0.098394    6.616145
     18          6           0        3.501509   -0.057292    5.235817
     19          7           0        2.408560   -0.021834    4.419618
     20          6           0        5.244557    0.158397    3.485185
     21          6           0        6.615094    0.334379    3.082807
     22          6           0        6.602572    0.535782    1.741860
     23          6           0        5.225723    0.466243    1.328835
     24          7           0        4.416556    0.228523    2.402279
     25          1           0       -0.765208   -0.033795   -0.765969
     26          1           0       -0.764250    0.011523    5.588715
     27          1           0        5.590369   -0.033797    5.561111
     28          1           0        5.535028    0.786551   -0.738946
     29          1           0        3.704106    0.714492   -2.634149
     30          1           0        1.037704    0.318386   -2.646780
     31          1           0       -2.653666   -0.132855    1.060872
     32          1           0       -2.658655   -0.066376    3.755871
     33          1           0        1.077092   -0.066471    7.474851
     34          1           0        3.772041   -0.132952    7.457761
     35          1           0        7.463046    0.318484    3.749768
     36          1           0        7.438441    0.714593    1.083450
     37         26           0        2.399664    0.180590    2.410545
     38          8           0        2.298251    1.799378    2.512415
     39          6           0        1.843824   -2.853536    2.968424
     40          6           0        3.365020   -2.705557    1.441291
     41          6           0        3.158497   -4.035366    1.648562
     42          7           0        2.188879   -4.110038    2.621968
     43          1           0        1.800456   -4.954600    3.011870
     44          1           0        1.101663   -2.625762    3.713488
     45          1           0        4.046841   -2.234341    0.756834
     46          1           0        3.601196   -4.909159    1.204095
     47          7           0        2.539026   -1.974403    2.270544
 ---------------------------------------------------------------------
                    Distance matrix (angstroms):
                    1          2          3          4          5
     1  C    0.000000
     2  C    4.821014   0.000000
     3  C    6.802612   4.821012   0.000000
     4  C    4.819738   6.805645   4.819741   0.000000
     5  C    3.524991   6.302437   5.412154   1.390859   0.000000
     6  C    3.579015   7.304941   6.849464   2.508146   1.439147
     7  C    2.505434   6.847823   7.305828   3.581299   2.241463
     8  C    1.389789   5.414324   6.298981   3.526226   2.178293
     9  N    2.441670   5.040682   5.032806   2.441224   1.365096
    10  C    1.390970   3.526437   6.299004   5.413734   4.302482
    11  C    2.505965   3.581650   7.306099   6.846654   5.727339
    12  C    3.580273   2.508212   6.850236   7.304411   6.361281
    13  C    3.526596   1.390814   5.413319   6.302788   5.552522
    14  N    2.442208   2.441875   5.033354   5.040428   4.210394
    15  C    5.413322   1.390835   3.526569   6.302774   6.080943
    16  C    6.850238   2.508224   3.580251   7.304406   7.273018
    17  C    7.306108   3.581667   2.505952   6.846658   7.068841
    18  C    6.299018   3.526458   1.390948   5.413734   5.680430
    19  N    5.033355   2.441876   2.442206   5.040428   4.978675
    20  C    6.298967   5.414324   1.389811   3.526205   4.301367
    21  C    7.305818   6.847821   2.505448   3.581282   4.710580
    22  C    6.849460   7.304944   3.579036   2.508134   3.808076
    23  C    5.412150   6.302450   3.525018   1.390839   2.479302
    24  N    5.032806   5.040681   2.441672   2.441225   2.987009
    25  H    1.083233   5.639243   7.885387   5.638122   4.277266
    26  H    5.640740   1.083317   5.640729   7.884519   7.364304
    27  H    7.885386   5.639247   1.083233   5.638118   6.366279
    28  H    5.639259   7.884691   5.639271   1.083251   2.115195
    29  H    4.601048   8.355259   7.550822   2.864257   2.240093
    30  H    2.860707   7.546267   8.358194   4.603819   3.299752
    31  H    2.860951   4.604156   8.358469   7.544844   6.327370
    32  H    4.602110   2.864852   7.552348   8.354727   7.434264
    33  H    7.552347   2.864856   4.602091   8.354722   8.266644
    34  H    8.358479   4.604173   2.860947   7.544852   7.906680
    35  H    8.358184   7.546261   2.860712   4.603803   5.776406
    36  H    7.550822   8.355264   4.601067   2.864255   4.252334
    37  Fe   3.406131   3.406077   3.406132   3.403474   3.039447
    38  O    3.851226   3.721471   3.851227   3.724021   3.427574
    39  C    4.511529   3.869683   4.512023   5.405547   5.014427
    40  C    4.552001   5.483240   4.551531   3.861115   3.679197
    41  C    5.383125   6.027000   5.382889   5.167751   4.963940
    42  N    5.343999   5.149700   5.344279   5.968157   5.642293
    43  H    6.071331   5.573392   6.071791   6.973005   6.629335
    44  H    4.679560   3.055306   4.680484   6.129544   5.679036
    45  H    4.684229   6.155222   4.683328   3.011980   3.002165
    46  H    6.206311   7.081706   6.205933   5.749550   5.617019
    47  N    3.937041   4.104853   3.937056   4.086487   3.749886
                    6          7          8          9         10
     6  C    0.000000
     7  C    1.356045   0.000000
     8  C    2.241830   1.439184   0.000000
     9  N    2.304170   2.303895   1.365006   0.000000
    10  C    4.709143   3.805696   2.479808   2.991313   0.000000
    11  C    6.036918   5.004333   3.804931   4.427500   1.438750
    12  C    6.915924   6.037709   4.709188   5.006982   2.241951
    13  C    6.362143   5.728850   4.303348   4.211057   2.178718
    14  N    5.007093   4.428191   2.991407   2.857340   1.364524
    15  C    7.273796   7.070118   5.681269   4.979178   4.301608
    16  C    8.542110   8.436080   7.070846   6.272523   5.731023
    17  C    8.435481   8.542816   7.272902   6.270162   6.362752
    18  C    7.070575   7.273021   6.077432   4.974354   5.548276
    19  N    6.272733   6.270836   4.974766   4.033769   4.202436
    20  C    5.731029   6.362974   5.548681   4.202441   6.077413
    21  C    6.045706   6.923490   6.362982   5.001938   7.273007
    22  C    5.013619   6.045713   5.731044   4.425293   7.070569
    23  C    3.808069   4.710583   4.301382   2.987006   5.680429
    24  N    4.425298   5.001949   4.202459   2.847050   4.974347
    25  H    3.991936   2.706946   2.113273   3.380073   2.114184
    26  H    8.327258   7.799915   6.368064   6.086154   4.280872
    27  H    7.803705   8.331722   7.363878   6.079247   7.363876
    28  H    2.712372   3.997106   4.280460   3.380773   6.367495
    29  H    1.078959   2.195425   3.300122   3.332761   5.773851
    30  H    2.195297   1.078940   2.239938   3.332415   4.247760
    31  H    6.413300   5.238461   4.246693   5.109200   2.239631
    32  H    7.985038   7.079570   5.773716   6.080309   3.300176
    33  H    9.496794   9.306776   7.911040   7.209558   6.335429
    34  H    9.305318   9.498249   8.267063   7.205422   7.437872
    35  H    7.090494   7.995981   7.438032   6.075983   8.267196
    36  H    5.251914   6.426672   6.334727   5.109733   7.910313
    37  Fe   4.270564   4.271474   3.041188   2.017478   3.041831
    38  O    4.551686   4.594236   3.509985   2.639503   3.508816
    39  C    5.969409   5.738986   4.571649   4.054209   3.962883
    40  C    4.591412   4.743707   3.989459   3.261864   4.629689
    41  C    5.724243   5.753417   5.031337   4.509157   5.367815
    42  N    6.468078   6.289114   5.319696   4.881859   4.997771
    43  H    7.403553   7.152110   6.182535   5.837625   5.640818
    44  H    6.643480   6.288794   4.995999   4.566293   3.829723
    45  H    3.896341   4.314244   3.822363   2.985522   5.010516
    46  H    6.240793   6.333397   5.795491   5.338357   6.309476
    47  N    4.805466   4.754387   3.652932   2.897455   3.659851
                   11         12         13         14         15
    11  C    0.000000
    12  C    1.356569   0.000000
    13  C    2.241571   1.438741   0.000000
    14  N    2.303381   2.304209   1.366037   0.000000
    15  C    4.710854   3.808156   2.479526   2.987713   0.000000
    16  C    6.046063   5.013878   3.808148   4.425638   1.438742
    17  C    6.923711   6.046070   4.710857   5.002074   2.241570
    18  C    6.362760   5.731040   4.301624   4.202453   2.178715
    19  N    5.002064   4.425637   2.987711   2.847477   1.366016
    20  C    7.272887   7.070842   5.681269   4.974759   4.303329
    21  C    8.542804   8.436076   7.070119   6.270832   5.728829
    22  C    8.435475   8.542113   7.273806   6.272735   6.362130
    23  C    7.068840   7.273030   6.080964   4.978683   5.552522
    24  N    6.270157   6.272526   4.979186   4.033770   4.211037
    25  H    2.707467   3.993089   4.278594   3.380391   6.367316
    26  H    3.997852   2.712708   2.115087   3.381517   2.115103
    27  H    8.332002   7.804438   6.367316   6.079743   4.278575
    28  H    7.798756   8.326836   7.364795   6.085970   7.364783
    29  H    7.079053   7.985261   7.435218   6.080455   8.267267
    30  H    5.238859   6.414480   6.329111   5.110028   7.908101
    31  H    1.078961   2.195678   3.299791   3.331918   5.776711
    32  H    2.195798   1.079002   2.239901   3.333064   4.252948
    33  H    6.427940   5.252986   4.252930   5.110692   2.239902
    34  H    7.996326   7.090960   5.776713   6.076163   3.299791
    35  H    9.498372   9.306102   7.908096   7.206169   6.329084
    36  H    9.305715   9.496535   8.267280   7.209460   7.435206
    37  Fe   4.272258   4.272285   3.042166   2.019264   3.042155
    38  O    4.591411   4.548593   3.425774   2.639388   3.425780
    39  C    4.739713   4.600466   3.677243   3.231349   3.677432
    40  C    5.801087   6.040803   5.089528   4.121829   5.089344
    41  C    6.339046   6.523286   5.699810   4.934648   5.699695
    42  N    5.733266   5.709665   4.940720   4.471247   4.940797
    43  H    6.184783   6.081271   5.442429   5.165413   5.442583
    44  H    4.334619   3.930338   3.035542   2.997242   3.036034
    45  H    6.309002   6.668487   5.702842   4.582437   5.702544
    46  H    7.258975   7.505479   6.745024   5.970762   6.744863
    47  N    4.766130   4.821770   3.766300   2.906555   3.766277
                   16         17         18         19         20
    16  C    0.000000
    17  C    1.356566   0.000000
    18  C    2.241949   1.438751   0.000000
    19  N    2.304202   2.303389   1.364542   0.000000
    20  C    4.709182   3.804939   2.479808   2.991409   0.000000
    21  C    6.037699   5.004334   3.805689   4.428192   1.439184
    22  C    6.915922   6.036928   4.709147   5.007101   2.241831
    23  C    6.361291   5.727361   4.302500   4.210411   2.178295
    24  N    5.006970   4.427499   2.991310   2.857338   1.364987
    25  H    7.804437   8.332008   7.363889   6.079742   7.363866
    26  H    2.712713   3.997858   4.280885   3.381513   6.368059
    27  H    3.993076   2.707459   2.114167   3.380393   2.113289
    28  H    8.326834   7.798765   6.367500   6.085973   4.280448
    29  H    9.496530   9.305717   7.910313   7.209455   6.334704
    30  H    9.306110   9.498387   8.267212   7.206176   7.438025
    31  H    7.090954   7.996325   7.437879   6.076152   8.267046
    32  H    5.252995   6.427953   6.335451   5.110696   7.911040
    33  H    1.079004   2.195796   3.300175   3.333054   5.773713
    34  H    2.195678   1.078962   2.239632   3.331928   4.246711
    35  H    6.414463   5.238851   4.247743   5.110023   2.239938
    36  H    7.985259   7.079062   5.773854   6.080464   3.300123
    37  Fe   4.272282   4.272266   3.041843   2.019264   3.041177
    38  O    4.548617   4.591445   3.508842   2.639395   3.509960
    39  C    4.600774   4.740154   3.963329   3.231629   4.572064
    40  C    6.040500   5.800676   4.629294   4.121603   3.989035
    41  C    6.523089   6.338795   5.367600   4.934530   5.031151
    42  N    5.709802   5.733483   4.997996   4.471378   5.319949
    43  H    6.081548   6.185188   5.641201   5.165629   6.182928
    44  H    3.931103   4.335601   3.830637   2.997838   4.996722
    45  H    6.667984   6.308292   5.009812   4.582045   3.821469
    46  H    7.505192   7.258595   6.309147   5.970587   5.795182
    47  N    4.821742   4.766115   3.659854   2.906555   3.652956
                   21         22         23         24         25
    21  C    0.000000
    22  C    1.356046   0.000000
    23  C    2.241463   1.439145   0.000000
    24  N    2.303887   2.304177   1.365117   0.000000
    25  H    8.331716   7.803705   6.366279   6.079251   0.000000
    26  H    7.799906   8.327258   7.364315   6.086149   6.354846
    27  H    2.706955   3.991949   4.277285   3.380069   8.968015
    28  H    3.997099   2.712367   2.115180   3.380780   6.353478
    29  H    6.426658   5.251904   4.252316   5.109732   4.901510
    30  H    7.995981   7.090500   5.776408   6.075995   2.629063
    31  H    9.498233   9.305308   7.906674   7.205414   2.629341
    32  H    9.306774   9.496797   8.266656   7.209562   4.902371
    33  H    7.079562   7.985038   7.434275   6.080298   8.444303
    34  H    5.238471   6.413317   6.327398   5.109204   9.392881
    35  H    1.078940   2.195297   3.299752   3.332404   9.392558
    36  H    2.195425   1.078959   2.240092   3.332771   8.442766
    37  Fe   4.271468   4.270567   3.039458   2.017478   4.489167
    38  O    4.594203   4.551660   3.427565   2.639494   4.846969
    39  C    5.739417   5.969726   5.014622   4.054449   5.357581
    40  C    4.743287   4.591118   3.679019   3.261603   5.391576
    41  C    5.753242   5.724138   4.963883   4.509052   6.102294
    42  N    6.289404   6.468302   5.642426   4.882000   6.067990
    43  H    7.152557   7.403887   6.629525   5.837837   6.713347
    44  H    6.289525   6.643996   5.679343   4.566697   5.501730
    45  H    4.313282   3.895591   3.001684   2.984942   5.506101
    46  H    6.333075   6.240580   5.616904   5.338187   6.834897
    47  N    4.754427   4.805512   3.749922   2.897474   4.889206
                   26         27         28         29         30
    26  H    0.000000
    27  H    6.354841   0.000000
    28  H    8.962191   6.353483   0.000000
    29  H    9.384875   8.442761   2.636146   0.000000
    30  H    8.435911   9.392565   4.907641   2.695693   0.000000
    31  H    4.908370   9.392873   8.434415   7.402192   5.251334
    32  H    2.637073   8.444308   9.384418   9.051345   7.403043
    33  H    2.637069   4.902360   9.384418  10.473920  10.129022
    34  H    4.908375   2.629340   8.434431  10.127657  10.477694
    35  H    8.435896   2.629065   4.907636   7.418952   9.066468
    36  H    9.384874   4.901521   2.636150   5.269326   7.418965
    37  Fe   4.487728   4.489167   4.485197   5.237896   5.239319
    38  O    4.694568   4.846970   4.698286   5.444311   5.513584
    39  C    4.677237   5.358130   6.373367   6.897847   6.499341
    40  C    6.452482   5.391048   4.653728   5.331127   5.592223
    41  C    6.876777   6.102016   5.882089   6.418758   6.473244
    42  N    5.874507   6.068315   6.816821   7.293749   6.978241
    43  H    6.154691   6.713894   7.808743   8.224355   7.772162
    44  H    3.735422   5.502769   7.150019   7.630367   7.008931
    45  H    7.178968   5.505084   3.684813   4.506867   5.211133
    46  H    7.905386   6.834439   6.321094   6.809417   6.980542
    47  N    5.085843   4.889220   5.065168   5.713456   5.629470
                   31         32         33         34         35
    31  H    0.000000
    32  H    2.695823   0.000000
    33  H    7.420383   5.271301   0.000000
    34  H    9.066967   7.420396   2.695823   0.000000
    35  H   10.477677  10.129016   7.403029   5.251335   0.000000
    36  H   10.127650  10.473924   9.051344   7.402207   2.695693
    37  Fe   5.239848   5.239989   5.239984   5.239859   5.239310
    38  O    5.510170   5.440417   5.440441   5.510210   5.513546
    39  C    5.591804   5.353564   5.353830   5.592294   6.499836
    40  C    6.556530   6.971887   6.971602   6.556057   5.591753
    41  C    7.025397   7.350707   7.350511   7.025103   6.473038
    42  N    6.457960   6.413698   6.413812   6.458213   6.978580
    43  H    6.847979   6.658223   6.658473   6.848459   7.772698
    44  H    5.230052   4.548872   4.549552   5.231118   7.009785
    45  H    7.028902   7.658849   7.658383   7.028071   5.210089
    46  H    7.871270   8.315639   8.315354   7.870813   6.980157
    47  N    5.640803   5.732595   5.732562   5.640788   5.629512
                   36         37         38         39         40
    36  H    0.000000
    37  Fe   5.237902   0.000000
    38  O    5.444286   1.625157   0.000000
    39  C    6.898145   3.134663   4.697239   0.000000
    40  C    5.330876   3.193933   4.751814   2.160571   0.000000
    41  C    6.418674   4.350946   5.960746   2.206155   1.361619
    42  N    7.293971   4.301003   5.911443   1.348292   2.179421
    43  H    8.224684   5.204884   6.790690   2.101960   3.157970
    44  H    7.630847   3.355306   4.738803   1.076014   3.208120
    45  H    4.506200   3.358548   4.733975   3.182423   1.074898
    46  H    6.809229   5.367006   6.958005   3.229055   2.228880
    47  N    5.713507   2.164028   3.789181   1.320309   1.380041
                   41         42         43         44         45
    41  C    0.000000
    42  N    1.375956   0.000000
    43  H    2.132575   1.008058   0.000000
    44  H    3.237510   2.139284   2.530626   0.000000
    45  H    2.197277   3.232490   4.187033   4.191550   0.000000
    46  H    1.075662   2.154901   2.552015   4.214099   2.748326
    47  N    2.240128   2.192496   3.158580   2.138310   2.152299
                   46         47
    46  H    0.000000
    47  N    3.298229   0.000000
 Stoichiometry    C23H16FeN6O(1+,4)
 Framework group  C1[X(C23H16FeN6O)]
 Deg. of freedom   135
 Full point group                 C1      NOp   1
 Largest Abelian subgroup         C1      NOp   1
 Largest concise Abelian subgroup C1      NOp   1
                         Standard orientation:                         
 ---------------------------------------------------------------------
 Center     Atomic      Atomic             Coordinates (Angstroms)
 Number     Number       Type             X           Y           Z
 ---------------------------------------------------------------------
      1          6           0       -0.000690   -3.401302   -0.313489
      2          6           0       -3.403487    0.001000   -0.609276
      3          6           0        0.001295    3.401310   -0.313464
      4          6           0        3.402158   -0.000990   -0.610771
      5          6           0        2.775082   -1.240464   -0.540274
      6          6           0        3.456874   -2.507821   -0.550758
      7          6           0        2.501209   -3.462478   -0.431628
      8          6           0        1.238772   -2.774707   -0.364748
      9          7           0        1.427841   -1.423938   -0.418758
     10          6           0       -1.241036   -2.773763   -0.363817
     11          6           0       -2.503124   -3.461114   -0.432266
     12          6           0       -3.459050   -2.505918   -0.550945
     13          6           0       -2.777440   -1.238940   -0.538721
     14          7           0       -1.429497   -1.423316   -0.415793
     15          6           0       -2.776697    1.240586   -0.538678
     16          6           0       -3.457574    2.507960   -0.550852
     17          6           0       -2.501094    3.462597   -0.432166
     18          6           0       -1.239403    2.774513   -0.363763
     19          7           0       -1.428663    1.424161   -0.415772
     20          6           0        1.240405    2.773974   -0.364762
     21          6           0        2.503240    3.461012   -0.431678
     22          6           0        3.458348    2.505798   -0.550818
     23          6           0        2.775824    1.238838   -0.540303
     24          7           0        1.428673    1.423112   -0.418762
     25          1           0       -0.000974   -4.484004   -0.279568
     26          1           0       -4.481678    0.001323   -0.714540
     27          1           0        0.001655    4.484011   -0.279532
     28          1           0        4.480513   -0.001312   -0.713648
     29          1           0        4.524683   -2.635985   -0.637422
     30          1           0        2.624624   -4.534003   -0.404903
     31          1           0       -2.626709   -4.532706   -0.408318
     32          1           0       -4.526661   -2.634318   -0.640200
     33          1           0       -4.525113    2.636983   -0.640084
     34          1           0       -2.624055    4.534261   -0.408186
     35          1           0        2.627279    4.532465   -0.404967
     36          1           0        4.526230    2.633341   -0.637503
     37         26           0        0.000663    0.000004   -0.494716
     38          8           0       -0.002391    0.000011   -2.119870
     39          6           0       -1.046584   -0.000028    2.459837
     40          6           0        1.113632   -0.000017    2.499029
     41          6           0        0.707003   -0.000030    3.798513
     42          7           0       -0.668231   -0.000036    3.753955
     43          1           0       -1.289644   -0.000047    4.547697
     44          1           0       -2.074545   -0.000035    2.141871
     45          1           0        2.116907   -0.000002    2.113225
     46          1           0        1.256320   -0.000036    4.723337
     47          7           0        0.010889   -0.000015    1.669288
 ---------------------------------------------------------------------
 Rotational constants (GHZ):      0.1924588      0.1887870      0.1338281
 Standard basis: 6-31G(d) (6D, 7F)
 AO basis set (Overlap normalization):
 Atom C1       Shell     1 S   6     bf    1 -     1         -0.001304134796         -6.427529257253         -0.592408022158
      0.3047524880D+04  0.1834737132D-02
      0.4573695180D+03  0.1403732281D-01
      0.1039486850D+03  0.6884262226D-01
      0.2921015530D+02  0.2321844432D+00
      0.9286662960D+01  0.4679413484D+00
      0.3163926960D+01  0.3623119853D+00
 Atom C1       Shell     2 SP   3    bf    2 -     5         -0.001304134796         -6.427529257253         -0.592408022158
      0.7868272350D+01 -0.1193324198D+00  0.6899906659D-01
      0.1881288540D+01 -0.1608541517D+00  0.3164239610D+00
      0.5442492580D+00  0.1143456438D+01  0.7443082909D+00
 Atom C1       Shell     3 SP   1    bf    6 -     9         -0.001304134796         -6.427529257253         -0.592408022158
      0.1687144782D+00  0.1000000000D+01  0.1000000000D+01
 Atom C1       Shell     4 D   1     bf   10 -    15         -0.001304134796         -6.427529257253         -0.592408022158
      0.8000000000D+00  0.1000000000D+01
 Atom C2       Shell     5 S   6     bf   16 -    16         -6.431658349180          0.001889915356         -1.151364811454
      0.3047524880D+04  0.1834737132D-02
      0.4573695180D+03  0.1403732281D-01
      0.1039486850D+03  0.6884262226D-01
      0.2921015530D+02  0.2321844432D+00
      0.9286662960D+01  0.4679413484D+00
      0.3163926960D+01  0.3623119853D+00
 Atom C2       Shell     6 SP   3    bf   17 -    20         -6.431658349180          0.001889915356         -1.151364811454
      0.7868272350D+01 -0.1193324198D+00  0.6899906659D-01
      0.1881288540D+01 -0.1608541517D+00  0.3164239610D+00
      0.5442492580D+00  0.1143456438D+01  0.7443082909D+00
 Atom C2       Shell     7 SP   1    bf   21 -    24         -6.431658349180          0.001889915356         -1.151364811454
      0.1687144782D+00  0.1000000000D+01  0.1000000000D+01
 Atom C2       Shell     8 D   1     bf   25 -    30         -6.431658349180          0.001889915356         -1.151364811454
      0.8000000000D+00  0.1000000000D+01
 Atom C3       Shell     9 S   6     bf   31 -    31          0.002447374483          6.427544415309         -0.592361459997
      0.3047524880D+04  0.1834737132D-02
      0.4573695180D+03  0.1403732281D-01
      0.1039486850D+03  0.6884262226D-01
      0.2921015530D+02  0.2321844432D+00
      0.9286662960D+01  0.4679413484D+00
      0.3163926960D+01  0.3623119853D+00
 Atom C3       Shell    10 SP   3    bf   32 -    35          0.002447374483          6.427544415309         -0.592361459997
      0.7868272350D+01 -0.1193324198D+00  0.6899906659D-01
      0.1881288540D+01 -0.1608541517D+00  0.3164239610D+00
      0.5442492580D+00  0.1143456438D+01  0.7443082909D+00
 Atom C3       Shell    11 SP   1    bf   36 -    39          0.002447374483          6.427544415309         -0.592361459997
      0.1687144782D+00  0.1000000000D+01  0.1000000000D+01
 Atom C3       Shell    12 D   1     bf   40 -    45          0.002447374483          6.427544415309         -0.592361459997
      0.8000000000D+00  0.1000000000D+01
 Atom C4       Shell    13 S   6     bf   46 -    46          6.429146866947         -0.001871034556         -1.154189902054
      0.3047524880D+04  0.1834737132D-02
      0.4573695180D+03  0.1403732281D-01
      0.1039486850D+03  0.6884262226D-01
      0.2921015530D+02  0.2321844432D+00
      0.9286662960D+01  0.4679413484D+00
      0.3163926960D+01  0.3623119853D+00
 Atom C4       Shell    14 SP   3    bf   47 -    50          6.429146866947         -0.001871034556         -1.154189902054
      0.7868272350D+01 -0.1193324198D+00  0.6899906659D-01
      0.1881288540D+01 -0.1608541517D+00  0.3164239610D+00
      0.5442492580D+00  0.1143456438D+01  0.7443082909D+00
 Atom C4       Shell    15 SP   1    bf   51 -    54          6.429146866947         -0.001871034556         -1.154189902054
      0.1687144782D+00  0.1000000000D+01  0.1000000000D+01
 Atom C4       Shell    16 D   1     bf   55 -    60          6.429146866947         -0.001871034556         -1.154189902054
      0.8000000000D+00  0.1000000000D+01
 Atom C5       Shell    17 S   6     bf   61 -    61          5.244145579412         -2.344137743215         -1.020969759693
      0.3047524880D+04  0.1834737132D-02
      0.4573695180D+03  0.1403732281D-01
      0.1039486850D+03  0.6884262226D-01
      0.2921015530D+02  0.2321844432D+00
      0.9286662960D+01  0.4679413484D+00
      0.3163926960D+01  0.3623119853D+00
 Atom C5       Shell    18 SP   3    bf   62 -    65          5.244145579412         -2.344137743215         -1.020969759693
      0.7868272350D+01 -0.1193324198D+00  0.6899906659D-01
      0.1881288540D+01 -0.1608541517D+00  0.3164239610D+00
      0.5442492580D+00  0.1143456438D+01  0.7443082909D+00
 Atom C5       Shell    19 SP   1    bf   66 -    69          5.244145579412         -2.344137743215         -1.020969759693
      0.1687144782D+00  0.1000000000D+01  0.1000000000D+01
 Atom C5       Shell    20 D   1     bf   70 -    75          5.244145579412         -2.344137743215         -1.020969759693
      0.8000000000D+00  0.1000000000D+01
 Atom C6       Shell    21 S   6     bf   76 -    76          6.532544478648         -4.739095049126         -1.040781516616
      0.3047524880D+04  0.1834737132D-02
      0.4573695180D+03  0.1403732281D-01
      0.1039486850D+03  0.6884262226D-01
      0.2921015530D+02  0.2321844432D+00
      0.9286662960D+01  0.4679413484D+00
      0.3163926960D+01  0.3623119853D+00
 Atom C6       Shell    22 SP   3    bf   77 -    80          6.532544478648         -4.739095049126         -1.040781516616
      0.7868272350D+01 -0.1193324198D+00  0.6899906659D-01
      0.1881288540D+01 -0.1608541517D+00  0.3164239610D+00
      0.5442492580D+00  0.1143456438D+01  0.7443082909D+00
 Atom C6       Shell    23 SP   1    bf   81 -    84          6.532544478648         -4.739095049126         -1.040781516616
      0.1687144782D+00  0.1000000000D+01  0.1000000000D+01
 Atom C6       Shell    24 D   1     bf   85 -    90          6.532544478648         -4.739095049126         -1.040781516616
      0.8000000000D+00  0.1000000000D+01
 Atom C7       Shell    25 S   6     bf   91 -    91          4.726599831815         -6.543135787495         -0.815658354373
      0.3047524880D+04  0.1834737132D-02
      0.4573695180D+03  0.1403732281D-01
      0.1039486850D+03  0.6884262226D-01
      0.2921015530D+02  0.2321844432D+00
      0.9286662960D+01  0.4679413484D+00
      0.3163926960D+01  0.3623119853D+00
 Atom C7       Shell    26 SP   3    bf   92 -    95          4.726599831815         -6.543135787495         -0.815658354373
      0.7868272350D+01 -0.1193324198D+00  0.6899906659D-01
      0.1881288540D+01 -0.1608541517D+00  0.3164239610D+00
      0.5442492580D+00  0.1143456438D+01  0.7443082909D+00
 Atom C7       Shell    27 SP   1    bf   96 -    99          4.726599831815         -6.543135787495         -0.815658354373
      0.1687144782D+00  0.1000000000D+01  0.1000000000D+01
 Atom C7       Shell    28 D   1     bf  100 -   105          4.726599831815         -6.543135787495         -0.815658354373
      0.8000000000D+00  0.1000000000D+01
 Atom C8       Shell    29 S   6     bf  106 -   106          2.340939281570         -5.243435693903         -0.689273547813
      0.3047524880D+04  0.1834737132D-02
      0.4573695180D+03  0.1403732281D-01
      0.1039486850D+03  0.6884262226D-01
      0.2921015530D+02  0.2321844432D+00
      0.9286662960D+01  0.4679413484D+00
      0.3163926960D+01  0.3623119853D+00
 Atom C8       Shell    30 SP   3    bf  107 -   110          2.340939281570         -5.243435693903         -0.689273547813
      0.7868272350D+01 -0.1193324198D+00  0.6899906659D-01
      0.1881288540D+01 -0.1608541517D+00  0.3164239610D+00
      0.5442492580D+00  0.1143456438D+01  0.7443082909D+00
 Atom C8       Shell    31 SP   1    bf  111 -   114          2.340939281570         -5.243435693903         -0.689273547813
      0.1687144782D+00  0.1000000000D+01  0.1000000000D+01
 Atom C8       Shell    32 D   1     bf  115 -   120          2.340939281570         -5.243435693903         -0.689273547813
      0.8000000000D+00  0.1000000000D+01
 Atom N9       Shell    33 S   6     bf  121 -   121          2.698229123055         -2.690852126704         -0.791337790091
      0.4173511460D+04  0.1834772160D-02
      0.6274579110D+03  0.1399462700D-01
      0.1429020930D+03  0.6858655181D-01
      0.4023432930D+02  0.2322408730D+00
      0.1282021290D+02  0.4690699481D+00
      0.4390437010D+01  0.3604551991D+00
 Atom N9       Shell    34 SP   3    bf  122 -   125          2.698229123055         -2.690852126704         -0.791337790091
      0.1162636186D+02 -0.1149611817D+00  0.6757974388D-01
      0.2716279807D+01 -0.1691174786D+00  0.3239072959D+00
      0.7722183966D+00  0.1145851947D+01  0.7408951398D+00
 Atom N9       Shell    35 SP   1    bf  126 -   129          2.698229123055         -2.690852126704         -0.791337790091
      0.2120314975D+00  0.1000000000D+01  0.1000000000D+01
 Atom N9       Shell    36 D   1     bf  130 -   135          2.698229123055         -2.690852126704         -0.791337790091
      0.8000000000D+00  0.1000000000D+01
 Atom C10      Shell    37 S   6     bf  136 -   136         -2.345218707733         -5.241653033956         -0.687514230871
      0.3047524880D+04  0.1834737132D-02
      0.4573695180D+03  0.1403732281D-01
      0.1039486850D+03  0.6884262226D-01
      0.2921015530D+02  0.2321844432D+00
      0.9286662960D+01  0.4679413484D+00
      0.3163926960D+01  0.3623119853D+00
 Atom C10      Shell    38 SP   3    bf  137 -   140         -2.345218707733         -5.241653033956         -0.687514230871
      0.7868272350D+01 -0.1193324198D+00  0.6899906659D-01
      0.1881288540D+01 -0.1608541517D+00  0.3164239610D+00
      0.5442492580D+00  0.1143456438D+01  0.7443082909D+00
 Atom C10      Shell    39 SP   1    bf  141 -   144         -2.345218707733         -5.241653033956         -0.687514230871
      0.1687144782D+00  0.1000000000D+01  0.1000000000D+01
 Atom C10      Shell    40 D   1     bf  145 -   150         -2.345218707733         -5.241653033956         -0.687514230871
      0.8000000000D+00  0.1000000000D+01
 Atom C11      Shell    41 S   6     bf  151 -   151         -4.730219043678         -6.540556935786         -0.816864035620
      0.3047524880D+04  0.1834737132D-02
      0.4573695180D+03  0.1403732281D-01
      0.1039486850D+03  0.6884262226D-01
      0.2921015530D+02  0.2321844432D+00
      0.9286662960D+01  0.4679413484D+00
      0.3163926960D+01  0.3623119853D+00
 Atom C11      Shell    42 SP   3    bf  152 -   155         -4.730219043678         -6.540556935786         -0.816864035620
      0.7868272350D+01 -0.1193324198D+00  0.6899906659D-01
      0.1881288540D+01 -0.1608541517D+00  0.3164239610D+00
      0.5442492580D+00  0.1143456438D+01  0.7443082909D+00
 Atom C11      Shell    43 SP   1    bf  156 -   159         -4.730219043678         -6.540556935786         -0.816864035620
      0.1687144782D+00  0.1000000000D+01  0.1000000000D+01
 Atom C11      Shell    44 D   1     bf  160 -   165         -4.730219043678         -6.540556935786         -0.816864035620
      0.8000000000D+00  0.1000000000D+01
 Atom C12      Shell    45 S   6     bf  166 -   166         -6.536657860930         -4.735498589635         -1.041134945024
      0.3047524880D+04  0.1834737132D-02
      0.4573695180D+03  0.1403732281D-01
      0.1039486850D+03  0.6884262226D-01
      0.2921015530D+02  0.2321844432D+00
      0.9286662960D+01  0.4679413484D+00
      0.3163926960D+01  0.3623119853D+00
 Atom C12      Shell    46 SP   3    bf  167 -   170         -6.536657860930         -4.735498589635         -1.041134945024
      0.7868272350D+01 -0.1193324198D+00  0.6899906659D-01
      0.1881288540D+01 -0.1608541517D+00  0.3164239610D+00
      0.5442492580D+00  0.1143456438D+01  0.7443082909D+00
 Atom C12      Shell    47 SP   1    bf  171 -   174         -6.536657860930         -4.735498589635         -1.041134945024
      0.1687144782D+00  0.1000000000D+01  0.1000000000D+01
 Atom C12      Shell    48 D   1     bf  175 -   180         -6.536657860930         -4.735498589635         -1.041134945024
      0.8000000000D+00  0.1000000000D+01
 Atom C13      Shell    49 S   6     bf  181 -   181         -5.248600358368         -2.341256786486         -1.018035055708
      0.3047524880D+04  0.1834737132D-02
      0.4573695180D+03  0.1403732281D-01
      0.1039486850D+03  0.6884262226D-01
      0.2921015530D+02  0.2321844432D+00
      0.9286662960D+01  0.4679413484D+00
      0.3163926960D+01  0.3623119853D+00
 Atom C13      Shell    50 SP   3    bf  182 -   185         -5.248600358368         -2.341256786486         -1.018035055708
      0.7868272350D+01 -0.1193324198D+00  0.6899906659D-01
      0.1881288540D+01 -0.1608541517D+00  0.3164239610D+00
      0.5442492580D+00  0.1143456438D+01  0.7443082909D+00
 Atom C13      Shell    51 SP   1    bf  186 -   189         -5.248600358368         -2.341256786486         -1.018035055708
      0.1687144782D+00  0.1000000000D+01  0.1000000000D+01
 Atom C13      Shell    52 D   1     bf  190 -   195         -5.248600358368         -2.341256786486         -1.018035055708
      0.8000000000D+00  0.1000000000D+01
 Atom N14      Shell    53 S   6     bf  196 -   196         -2.701357172655         -2.689678148320         -0.785734772826
      0.4173511460D+04  0.1834772160D-02
      0.6274579110D+03  0.1399462700D-01
      0.1429020930D+03  0.6858655181D-01
      0.4023432930D+02  0.2322408730D+00
      0.1282021290D+02  0.4690699481D+00
      0.4390437010D+01  0.3604551991D+00
 Atom N14      Shell    54 SP   3    bf  197 -   200         -2.701357172655         -2.689678148320         -0.785734772826
      0.1162636186D+02 -0.1149611817D+00  0.6757974388D-01
[...]
 .00000069,-0.00000176,-0.00000019,-0.00000062,-0.00000173,0.00000003,-
 0.00066751,-0.00042417,-0.00001876,0.00000419,0.00002082,0.00000203,-0
 .38691260,0.08902020,0.01374253,-0.00072224,-0.00503405,-0.00014484,0.
 00190960,0.00012386,0.00005574,0.00297090,-0.00045181,-0.00001442,-0.0
 0013298,0.00098721,0.00000209,0.40044015,-0.00032805,-0.00010950,0.000
 98502,-0.00035942,0.00004963,-0.00098555,0.00000328,-0.00001611,-0.000
 03878,-0.00000085,-0.00001950,0.00003075,-0.00005323,0.00005904,-0.000
 17059,0.00040053,0.00000562,0.00015806,-0.00037363,-0.00005629,0.00040
 830,0.00021814,0.00002366,-0.00028224,0.00003158,-0.00022339,-0.000085
 26,0.00172580,-0.00124083,0.00038797,-0.00069501,-0.00006351,0.0010306
 8,-0.00079272,0.00000617,-0.00104182,0.00169398,-0.00117195,-0.0004638
 9,-0.00008621,-0.00136830,-0.00016773,0.00020351,-0.00001614,0.0003100
 7,-0.00040694,-0.00001133,-0.00039708,0.00039942,0.00002757,-0.0001807
 9,-0.00005715,0.00003670,0.00017639,0.00005572,-0.00022415,0.00006256,
 0.00007581,0.00004444,0.00013816,-0.00011199,-0.00003094,0.00013999,-0
 .00011690,-0.00001388,-0.00013573,0.00006408,0.00006154,-0.00013142,-0
 .00002191,-0.00013892,-0.00001083,-0.00000361,0.00002312,-0.00005216,-
 0.00000267,0.00001601,0.00005806,0.00001118,0.00000730,-0.00000477,0.0
 0001165,0.00000631,0.00000531,0.00000938,0.00000784,-0.00000586,-0.000
 00265,0.00001515,-0.00000819,-0.00005336,0.00007664,-0.00001312,-0.000
 05606,0.00008018,0.00003069,-0.00000209,0.00001540,0.00001166,0.000009
 41,0.00000787,0.00000645,-0.00000259,0.00000824,0.00000594,-0.00000301
 ,0.00000880,-0.00000482,-0.00105980,0.00076189,0.00009440,-0.00003451,
 0.00008626,0.00000406,0.08990350,-0.09828511,-0.00546493,-0.00413478,-
 0.00308899,-0.00049672,-0.00247641,-0.00693817,-0.00062096,0.03736070,
 -0.00318065,-0.00131494,-0.00021842,0.00032133,0.00019035,-0.09698377,
 0.09796732,0.00010555,0.00027156,0.00018966,-0.00014788,-0.00028724,0.
 00002226,-0.00004435,0.00000371,0.00004385,0.00004810,-0.00001196,0.00
 004730,-0.00010122,-0.00000247,0.00001252,0.00008634,0.00000334,0.0000
 5738,-0.00014084,-0.00005034,0.00005528,-0.00022500,0.00000036,-0.0003
 2041,0.00016705,0.00005637,-0.00006332,-0.00003439,0.00010536,-0.00123
 173,-0.00042005,-0.00049286,0.00040195,0.00034744,0.00047504,0.0002866
 5,0.00014700,-0.00013925,-0.00127944,0.00005605,-0.00024053,0.00132570
 ,0.00023395,0.00004043,-0.00027567,0.00008255,0.00004132,-0.00000316,-
 0.00002577,-0.00000667,0.00003224,0.00009426,0.00000578,0.00003297,-0.
 00016165,-0.00007976,-0.00005703,-0.00003837,0.00000600,-0.00001705,0.
 00000597,-0.00000297,-0.00000420,-0.00002145,0.00000158,-0.00002118,0.
 00004603,0.00000409,-0.00003749,-0.00000005,-0.00001119,0.00004166,-0.
 00001456,0.00000086,-0.00002852,0.00001266,0.00000394,-0.00002363,0.00
 000248,-0.00000223,-0.00000232,-0.00000119,0.00000345,-0.00000132,-0.0
 0000144,0.00000708,-0.00000029,0.00000018,0.00001373,-0.00001129,-0.00
 003347,0.00005625,-0.00003786,0.00002632,-0.00004365,-0.00004312,-0.00
 000126,-0.00001010,-0.00001146,0.00000274,-0.00000570,-0.00000051,-0.0
 0000144,-0.00000047,0.00000105,0.00000115,0.00000153,0.00000043,-0.000
 05861,0.00007919,-0.00033393,-0.00000144,0.00000274,0.00003477,0.01379
 799,-0.00544391,-0.04603984,-0.00008845,-0.00047530,0.00638768,-0.0001
 0712,-0.00068309,0.00387634,0.00235482,-0.00041094,0.00346912,-0.00007
 345,0.00016153,-0.00262124,-0.01490494,0.00650558,0.03190773,-0.000042
 34,-0.00001393,0.00016823,-0.00005370,0.00000631,-0.00015687,-0.000099
 42,-0.00004100,0.00020406,-0.00011115,-0.00001803,-0.00020673,-0.00002
 167,0.00010776,-0.00013838,0.00012067,-0.00001060,-0.00001413,-0.00008
 093,-0.00001048,0.00008581,0.00005056,-0.00002199,-0.00000741,0.000037
 80,0.00008771,-0.00001696,0.00022547,0.00000119,0.00000413,-0.00014641
 ,-0.00000328,0.00018900,-0.00015878,0.00001915,-0.00018236,0.00023230,
 0.00000507,-0.00003129,-0.00017737,0.00013902,0.00002110,0.00005634,-0
 .00002179,-0.00000598,-0.00007257,0.00000039,-0.00007353,0.00010931,-0
 .00001054,0.00000986,-0.00000900,0.00008447,0.00014133,0.00003115,0.00
 008859,0.00002454,0.00087995,-0.00041339,-0.00016345,-0.00036639,0.000
 23973,0.00012965,-0.00037545,0.00024814,-0.00008682,0.00092412,-0.0003
 9625,0.00005787,-0.00000526,-0.00210916,-0.00011303,0.00000234,-0.0000
 0198,-0.00000445,0.00000255,-0.00000256,0.00000377,0.00000699,-0.00001
 291,-0.00003845,0.00000949,-0.00001662,0.00003574,0.00000220,0.0000015
 0,-0.00000177,0.00000321,0.00000183,-0.00000028,-0.00000385,-0.0000063
 0,0.00000538,-0.00000379,-0.00000563,-0.00000599,0.00000308,0.00000136
 ,0.00000008,0.00000218,0.00000041,0.00000137,-0.00003082,-0.00003383,0
 .00000075,-0.00003037,-0.00003254,-0.00000369,-0.00084625,-0.00054126,
 -0.00001056,0.00001557,0.00005617,0.00000347,-0.00273702,0.00522099,0.
 00049420,-0.35740856,-0.12075152,0.00007768,0.00216553,0.00089767,0.00
 007137,0.00168583,-0.00027767,0.00010647,0.00035772,-0.00000547,0.0000
 4384,-0.00049343,-0.00098241,-0.00001533,0.37552029,0.00005229,0.00001
 236,-0.00017686,0.00006951,-0.00000775,0.00014929,0.00003921,0.0000082
 3,-0.00003057,0.00004594,0.00001105,0.00004020,0.00003143,-0.00000939,
 0.00013004,-0.00017934,-0.00001871,-0.00000622,0.00009778,0.00000807,-
 0.00006888,-0.00011576,0.00002491,-0.00001788,0.00003448,-0.00007732,-
 0.00007038,-0.00017646,-0.00000048,0.00005989,0.00011557,-0.00000267,-
 0.00016257,0.00013245,-0.00002066,0.00015949,-0.00019820,-0.00000061,-
 0.00000757,0.00005683,-0.00009507,-0.00002865,-0.00012927,0.00002004,0
 .00004771,0.00006859,-0.00000114,0.00004115,-0.00014787,-0.00002348,0.
 00000474,0.00001013,0.00002042,-0.00010462,0.00005767,-0.00009474,0.00
 006216,-0.00038142,-0.00106494,-0.00042951,0.00024526,0.00011502,-0.00
 051991,0.00028068,0.00006259,0.00053288,-0.00046524,-0.00119473,0.0003
 3913,-0.00020469,-0.00115397,-0.00011756,-0.00000396,0.00000325,0.0000
 0223,-0.00000407,0.00000361,-0.00000089,-0.00000958,0.00002613,0.00004
 150,-0.00001335,0.00002855,-0.00003628,0.00000094,0.00001030,0.0000006
 2,-0.00000730,0.00000282,-0.00000021,0.00000099,0.00000554,-0.00000588
 ,0.00000041,0.00000487,0.00000662,-0.00000690,0.00000387,0.00000161,0.
 00000123,0.00001256,0.00000186,0.00002136,0.00002387,0.00000432,0.0000
 1975,0.00002160,-0.00000181,0.00056631,0.00017502,-0.00001077,0.000003
 05,0.00008981,0.00000472,0.00496672,-0.00524261,-0.00071358,-0.1283536
 1,-0.12479208,-0.00239238,-0.02748204,0.00233285,0.00062781,-0.0030269
 9,-0.00643672,-0.00076130,-0.00139119,0.00087505,-0.00005013,0.0007263
 0,0.00120061,-0.00003239,0.13005081,0.11918672,0.00008458,-0.00000861,
 0.00018227,-0.00006518,-0.00001585,0.00021370,0.00004323,0.00006470,-0
 .00008742,-0.00003683,-0.00005165,-0.00007848,-0.00012802,0.00013009,-
 0.00018317,0.00023703,-0.00003655,0.00004505,-0.00024216,-0.00003018,0
 .00019135,-0.00013321,0.00000646,-0.00016708,0.00016055,-0.00007700,-0
 .00005049,-0.00018589,-0.00001331,-0.00034127,0.00008350,0.00001963,-0
 .00004976,-0.00006235,-0.00001717,-0.00001941,0.00013495,0.00005652,-0
 .00034791,0.00001595,-0.00003061,0.00033821,0.00010726,0.00001853,-0.0
 0016795,0.00026545,0.00000669,0.00019222,-0.00026050,0.00002776,0.0000
 6114,0.00012153,-0.00010827,-0.00022564,-0.00015822,0.00006676,-0.0000
 2644,-0.00086912,-0.00069319,-0.00029169,0.00010341,0.00011689,-0.0001
 4561,-0.00005816,-0.00010303,-0.00008382,0.00076113,0.00060192,-0.0002
 0616,0.00000636,-0.00007197,0.00079445,-0.00000073,0.00000189,-0.00000
 536,-0.00000016,-0.00000064,-0.00000593,-0.00001634,-0.00001706,-0.000
 00722,0.00001404,0.00002244,-0.00001214,0.00000185,0.00001981,-0.00000
 755,0.00000220,0.00000980,-0.00000468,-0.00000690,0.00000148,-0.000001
 23,0.00000713,-0.00000042,-0.00000062,-0.00000349,-0.00000880,-0.00000
 560,-0.00000224,-0.00001732,-0.00000978,-0.00000979,-0.00001857,-0.000
 00594,0.00001358,0.00002365,-0.00000412,0.00005885,0.00001571,0.000130
 29,0.00000014,0.00000346,0.00001359,0.00047827,-0.00071966,0.00419393,
 -0.00039872,-0.00257418,-0.03779689,-0.00170689,-0.00005057,0.00283573
 ,-0.00006584,-0.00082702,0.00681718,-0.00004299,-0.00008326,0.00220169
 ,0.00009174,0.00000845,0.00143887,-0.00015658,0.00260002,0.02824581,-0
 .00002753,-0.00000928,0.00003971,-0.00003070,-0.00000483,-0.00003607,0
 .00000711,0.00000203,0.00001419,0.00000665,0.00000285,-0.00001325,0.00
 000857,0.00000998,-0.00001451,0.00002192,-0.00000058,0.00001576,-0.000
 02511,-0.00000490,0.00003556,0.00000778,0.00000718,-0.00003224,-0.0000
 1688,-0.00004692,0.00002098,0.00003567,0.00001442,-0.00000410,0.000014
 12,-0.00000203,0.00000891,0.00001289,-0.00000047,-0.00001066,0.0000401
 6,0.00001558,-0.00000286,0.00007120,0.00011202,0.00000656,0.00001226,0
 .00000265,0.00002786,-0.00002159,0.00000007,-0.00003107,0.00001741,0.0
 0000206,-0.00001455,0.00000987,0.00000733,0.00001521,-0.00001887,-0.00
 004058,-0.00002573,0.00003756,0.00000481,0.00000673,-0.00002582,0.0000
 0574,0.00002005,-0.00002892,0.00000776,-0.00001893,0.00004193,0.000007
 08,-0.00000905,-0.00009122,-0.00000143,0.00000415,0.00000109,0.0000000
 7,-0.00000023,0.00000124,-0.00000002,0.00000009,-0.00000061,-0.0000048
 2,-0.00000479,-0.00000017,-0.00000463,0.00000401,0.00000180,0.00000048
 ,0.00000217,-0.00000076,0.00000230,0.00000051,0.00000134,0.00000024,0.
 00000014,0.00000154,0.00000026,-0.00000021,-0.00000063,0.00000189,-0.0
 0000041,0.00000158,-0.00000002,-0.00000242,-0.00000316,-0.00000953,-0.
 00000181,-0.00000289,-0.00000938,0.00000092,0.00027133,0.00051944,0.00
 003773,-0.00004597,-0.00009367,-0.00000586,-0.00775734,-0.00460852,-0.
 00002894,0.01543256,-0.00725000,-0.00077011,-0.15995779,0.14262572,0.0
 1194124,-0.01353524,0.03447496,0.00240877,0.00054471,-0.00019533,-0.00
 005424,0.00027174,0.00144023,0.00012886,-0.00026579,0.00070251,-0.0000
 3854,0.16290751,-0.00001303,-0.00000079,-0.00002647,-0.00000841,-0.000
 00283,0.00001851,0.00000774,0.00000935,0.00001155,0.00000665,0.0000132
 3,-0.00001300,0.00002191,-0.00001179,-0.00000080,-0.00002262,0.0000091
 1,0.00001333,0.00001873,0.00000390,0.00000720,0.00000591,-0.00000008,-
 0.00000716,-0.00002101,-0.00005149,0.00004410,-0.00006998,0.00000292,-
 0.00002215,0.00007250,0.00001468,-0.00006798,0.00007775,0.00000527,0.0
 0006811,-0.00008006,-0.00000446,0.00004410,0.00017819,-0.00006053,-0.0
 0001132,-0.00000144,0.00000031,0.00001889,0.00000475,0.00000333,-0.000
 01694,-0.00001341,0.00000905,-0.00001672,0.00002037,-0.00000966,-0.000
 00170,-0.00002096,-0.00005456,-0.00004942,0.00003490,-0.00001692,0.000
 00635,-0.00003600,0.00001080,0.00000516,-0.00003044,0.00001218,0.00000
 056,0.00002214,-0.00001946,-0.00000693,-0.00010107,0.00002216,-0.00000
 159,0.00000195,-0.00000153,0.00000229,0.00000147,-0.00000107,-0.000002
 29,-0.00000360,-0.00000792,-0.00000507,-0.00000396,-0.00001048,0.00000
 465,0.00000099,-0.00000613,0.00000474,-0.00000072,-0.00000273,0.000002
 83,0.00000425,-0.00000020,-0.00000215,0.00000378,-0.00000047,0.0000020
 0,-0.00000124,-0.00000117,-0.00000252,0.00000104,-0.00000346,-0.000004
 86,-0.00000521,-0.00001086,-0.00000052,-0.00000577,-0.00001169,-0.0000
 0103,0.00032183,0.00076418,0.00000965,-0.00004663,-0.00010313,-0.00000
 249,-0.00344424,-0.00083898,-0.00016522,0.01854532,-0.00694402,-0.0010
 1770,0.15321414,-0.32266376,-0.02173234,-0.00614799,0.01247908,0.00112
 560,0.00103765,-0.00006369,0.00004716,0.00002564,0.00058853,-0.0000819
 9,-0.00065361,-0.00000345,0.00024847,-0.16257698,0.32262348,0.00002987
 ,0.00000233,0.00006281,-0.00002669,-0.00001045,0.00006800,-0.00000320,
 0.00001803,0.00002181,0.00000474,-0.00001926,0.00001839,-0.00001098,0.
 00001550,0.00000277,0.00007854,-0.00001752,0.00004065,-0.00010375,-0.0
 0002130,0.00007797,-0.00006596,0.00002178,-0.00009153,0.00001720,-0.00
 007325,-0.00000524,-0.00010230,-0.00001691,-0.00014789,0.00001977,-0.0
 0000482,-0.00002504,-0.00001195,0.00000861,-0.00001440,0.00008406,0.00
 003454,-0.00014496,0.00001072,-0.00000974,0.00005127,0.00006126,-0.000
 01017,-0.00009638,0.00011001,0.00001223,0.00007503,-0.00007969,0.00001
 323,0.00004522,0.00001324,-0.00001740,-0.00000066,-0.00001909,0.000069
 03,-0.00000017,-0.00009901,-0.00002674,-0.00002347,0.00004324,0.000010
 68,-0.00002223,-0.00004713,-0.00000686,-0.00002050,0.00009953,0.000027
 24,-0.00002530,-0.00000210,-0.00000397,0.00008582,-0.00000292,0.000001
 48,-0.00000170,0.00000299,-0.00000139,-0.00000232,-0.00000507,-0.00001
 569,-0.00000542,0.00000440,0.00001531,-0.00000329,0.00000224,0.0000164
 1,-0.00000295,-0.00000326,0.00000984,-0.00000321,-0.00000430,-0.000000
 06,-0.00000069,0.00000470,0.00000009,-0.00000063,0.00000298,-0.0000096
 8,-0.00000490,-0.00000240,-0.00001649,-0.00000541,-0.00000456,-0.00000
 751,0.00000288,0.00000417,0.00000615,0.00000343,0.00002534,0.00000490,
 0.00048728,-0.00000292,-0.00000136,-0.00004568,0.00004399,-0.00013740,
 0.00310205,0.00084626,-0.00040105,0.00217669,0.01260475,-0.02147925,-0
 .03594167,-0.00013673,0.00015450,-0.00312576,0.00002303,0.00007663,-0.
 00120784,0.00004022,-0.00011580,0.00187905,-0.00012351,0.00021605,-0.0
 0370280,-0.01345496,0.02245967,0.02794802,-0.00029097,-0.00008859,0.00
 118173,-0.00045160,0.00006038,-0.00132702,0.00013405,-0.00003368,0.000
 06659,0.00010429,-0.00002074,-0.00007971,-0.00028448,0.00029042,-0.000
 69849,0.00074639,0.00001485,0.00028922,-0.00055099,-0.00001159,0.00077
 172,0.00008352,-0.00023531,-0.00016670,0.00230708,-0.00114605,0.000384
 31,0.00222193,0.00019217,0.00007696,-0.00164903,-0.00002527,0.00245708
 ,-0.00176662,0.00027822,-0.00235396,0.00219465,0.00021707,0.00007560,-
 0.00400365,0.00870587,0.00057247,0.00014140,-0.00025498,0.00024847,-0.
 00070170,0.00009145,-0.00086355,0.00082293,0.00007477,-0.00040854,-0.0
 0021444,0.00019669,0.00081357,0.00224719,-0.00150693,-0.00092003,0.000
 47245,0.00023346,0.00017769,-0.00068977,-0.00009444,0.00082931,-0.0007
 2790,0.00000956,-0.00079298,0.00043960,0.00023619,-0.00016756,-0.00041
 548,-0.00611492,-0.00036071,0.00000702,-0.00002041,-0.00002335,0.00001
 074,-0.00002625,0.00002210,0.00000076,0.00000520,-0.00002622,0.0000053
 8,0.00000193,0.00002779,-0.00000105,0.00000175,-0.00001125,-0.00001517
 ,0.00002201,0.00002864,-0.00000012,-0.00018782,0.00000448,-0.00000307,
 -0.00018794,-0.00002702,-0.00001955,0.00003080,-0.00002754,0.00000099,
 0.00000550,0.00000726,-0.00003002,0.00008807,0.00002270,-0.00003165,0.
 00009034,-0.00001019,-0.04566324,-0.00015871,0.00063691,0.00788596,0.0
 0032923,-0.00009955,-0.35244797,-0.16102519,-0.00401610,-0.22717029,0.
 07619734,0.00824545,0.00341371,0.08134054,0.00542014,-0.01812048,-0.09
 108873,-0.00473742,0.00238371,0.00342098,0.00033164,-0.01724326,-0.024
 19774,-0.00108376,-0.01890432,0.02389906,0.00185610,0.00207544,-0.0003
 2122,0.00013525,0.66369761,-0.00116998,-0.00006519,0.00039741,-0.00091
 328,-0.00002307,0.00007024,0.00021170,0.00006493,0.00029567,0.00026674
 ,0.00009148,-0.00028676,0.00080816,-0.00004207,-0.00121587,0.00097995,
 0.00023259,0.00112548,-0.00099940,0.00000786,0.00137846,0.00083333,0.0
 0000976,-0.00096154,-0.00093933,-0.00746053,0.00498789,-0.00112097,0.0
 0014894,-0.00210916,0.00152554,0.00035679,-0.00107654,0.00158282,0.000
 21984,0.00102361,-0.00096244,-0.00014547,0.00154901,0.00909811,-0.0002
 3772,-0.00005160,0.00074456,-0.00010536,0.00060831,-0.00076299,0.00015
 502,-0.00099337,0.00068696,0.00031700,-0.00090136,0.00077165,-0.000181
 83,0.00097354,-0.00110437,-0.00566819,-0.00507760,0.00057427,-0.000173
 31,0.00062804,-0.00103078,-0.00015550,0.00072831,-0.00106710,-0.000071
 30,-0.00071296,0.00060804,-0.00004189,-0.00067619,-0.00562575,-0.00128
 095,0.00002118,0.00008426,-0.00008222,0.00008333,0.00007293,-0.0000627
 8,-0.00010169,-0.00005814,-0.00005338,-0.00006643,-0.00006390,-0.00006
 149,0.00005882,0.00000287,-0.00001514,0.00010275,-0.00002046,-0.000008
 87,0.00010517,0.00016453,-0.00012215,-0.00000387,0.00016988,-0.0001155
 4,-0.00002143,-0.00001733,-0.00001001,-0.00009750,-0.00000601,-0.00001
 577,-0.00009295,-0.00009279,-0.00007639,0.00003903,-0.00009256,-0.0000
 7177,-0.00004351,-0.00148394,-0.04221874,-0.00144617,0.00045722,-0.005
 16182,-0.00051323,-0.15987055,-0.26948721,-0.00690296,0.07125513,-0.19
 886781,-0.00902787,-0.00584048,-0.07564764,-0.00566185,-0.00035183,-0.
 11849904,-0.00882461,0.00948090,-0.00587532,-0.00105178,0.00847144,0.0
 1468451,0.00066418,-0.01086355,0.01595080,0.00150379,-0.00510573,-0.00
 566423,-0.00077013,0.09071267,0.70553019,0.00197527,0.00038588,-0.0034
 2482,-0.00224933,0.00003303,-0.00330581,0.00055962,-0.00006848,-0.0000
 8490,-0.00053939,0.00009007,-0.00008175,-0.00061926,-0.00012666,0.0014
 7679,-0.00195937,-0.00021376,-0.00174191,0.00223376,0.00015888,-0.0026
 4331,-0.00090497,-0.00028363,0.00242776,0.00037532,0.00917577,-0.00458
 899,0.00055889,-0.00082077,0.00469249,0.00019647,-0.00002710,-0.000012
 87,0.00008562,0.00004248,0.00024201,-0.00056223,0.00020067,0.00501394,
 0.00059703,-0.00004230,-0.00290004,0.00111592,-0.00001994,0.00248447,-
 0.00244108,0.00018212,-0.00263969,0.00193894,0.00047544,-0.00190289,0.
 00080300,-0.00008954,0.00154657,-0.00087295,-0.00925093,-0.00632133,0.
 00054572,0.00037780,0.00009892,-0.00005871,-0.00006666,0.00018686,-0.0
 0003109,0.00003396,0.00014065,-0.00049097,-0.00040893,0.00000044,-0.00
 033010,0.00003282,0.00053617,-0.00004906,0.00005517,0.00005505,0.00006
 060,-0.00006867,0.00003189,-0.00007311,-0.00000736,0.00002459,0.000066
 59,-0.00000334,0.00002809,-0.00003583,-0.00009811,-0.00009201,0.000061
 32,-0.00010752,-0.00006599,0.00005702,0.00003962,0.00002065,-0.0000350
 6,-0.00004797,0.00001700,-0.00006589,0.00011303,-0.00006048,0.00003120
 ,0.00010767,-0.00009343,0.00001247,-0.00001105,-0.00000183,-0.00002276
 ,-0.00000212,-0.00000483,0.00055394,-0.00147757,-0.01868696,-0.0000915
 3,-0.00051020,0.00282477,-0.00394375,-0.00687559,-0.09867692,0.0079356
 7,-0.00914603,-0.08274290,-0.00004271,-0.00774585,0.01645263,0.0009481
 3,-0.00665545,0.02202525,0.00071143,-0.00090690,0.00721891,0.00096346,
 0.00144509,0.00092158,-0.00032214,0.00067277,-0.00385333,-0.00016457,-
 0.00088455,0.00852296,-0.00648152,0.03234472,0.15693657\\0.00000040,0.
 00000006,-0.00000037,-0.00000097,-0.00000022,-0.00000151,-0.00000033,0
 .00000013,-0.00000008,-0.00000021,-0.00000008,-0.00000085,-0.00000003,
 0.00000063,-0.00000024,-0.00000039,-0.00000027,-0.00000026,0.00000021,
 -0.00000033,0.00000052,-0.00000063,0.00000028,-0.00000058,0.00000047,-
 0.00000023,0.00000070,0.00000015,-0.00000083,0.00000080,-0.00000031,0.
 00000013,0.00000018,-0.00000054,-0.00000005,-0.00000038,0.00000046,-0.
 00000038,0.00000178,-0.00000007,0.00000075,-0.00000131,0.00000103,0.00
 000076,0.00000046,-0.00000001,-0.00000007,-0.00000042,-0.00000021,-0.0
 0000018,-0.00000012,-0.00000030,0.00000032,0.00000056,0.00000069,-0.00
 000080,-0.00000046,0.00000243,-0.00000039,0.00000095,-0.00000130,0.000
 00017,0.00000070,0.00000011,-0.00000004,-0.00000061,-0.00000073,-0.000
 00022,0.00000170,-0.00000096,-0.00000020,-0.00000179,0.00000013,0.,-0.
 00000005,0.00000011,0.00000008,0.00000007,0.00000002,-0.00000005,-0.00
 000009,0.00000004,0.00000002,0.00000015,0.00000003,0.00000006,0.000000
 11,0.,0.00000006,0.,0.00000012,0.00000003,-0.00000006,0.00000009,0.000
 00005,0.00000012,-0.00000009,0.,-0.00000006,0.00000002,0.00000012,-0.0
 0000007,0.,-0.00000014,0.,-0.00000009,-0.00000002,0.,0.00000093,0.0000
 0186,0.00000056,-0.00000013,-0.00000019,0.00000008,-0.00000128,0.00000
 039,-0.00000063,0.00000041,0.00000063,-0.00000018,-0.00000011,0.000000
 22,0.,0.00000034,0.00000049,0.00000044,-0.00000007,0.00000016,0.000000
 06,0.00000004,-0.00000017,0.,0.00000023,-0.00000008,-0.00000004,0.0000
 0005,0.00000014,-0.00000003,0.00000029,-0.00000260,0.00000026\\\@


 WE DON'T KNOW ONE MILLIONTH OF ONE PERCENT ABOUT
 ANYTHING.
                                     T. A. EDISON.
 Job cpu time:       0 days  7 hours 39 minutes 27.8 seconds.
 File lengths (MBytes):  RWF=   2871 Int=      0 D2E=      0 Chk=     27 Scr=      1
 Normal termination of Gaussian 09 at Sat Sep 24 11:31:42 2016.
