 Entering Gaussian System, Link 0=g09
 Initial command:
 /cluster/software/gaussian/gaussian-09-D.01/g09/l1.exe "/local/scratch/glaserr/Gau-20707.inp" -scrdir="/local/scratch/glaserr/"
 Entering Link 1 = /cluster/software/gaussian/gaussian-09-D.01/g09/l1.exe PID=     20708.
  
 Copyright (c) 1988,1990,1992,1993,1995,1998,2003,2009,2013,
            Gaussian, Inc.  All Rights Reserved.
  
 This is part of the Gaussian(R) 09 program.  It is based on
 the Gaussian(R) 03 system (copyright 2003, Gaussian, Inc.),
 the Gaussian(R) 98 system (copyright 1998, Gaussian, Inc.),
 the Gaussian(R) 94 system (copyright 1995, Gaussian, Inc.),
 the Gaussian 92(TM) system (copyright 1992, Gaussian, Inc.),
 the Gaussian 90(TM) system (copyright 1990, Gaussian, Inc.),
 the Gaussian 88(TM) system (copyright 1988, Gaussian, Inc.),
 the Gaussian 86(TM) system (copyright 1986, Carnegie Mellon
 University), and the Gaussian 82(TM) system (copyright 1983,
 Carnegie Mellon University). Gaussian is a federally registered
 trademark of Gaussian, Inc.
  
 This software contains proprietary and confidential information,
 including trade secrets, belonging to Gaussian, Inc.
  
 This software is provided under written license and may be
 used, copied, transmitted, or stored only in accord with that
 written license.
  
 The following legend is applicable only to US Government
 contracts under FAR:
  
                    RESTRICTED RIGHTS LEGEND
  
 Use, reproduction and disclosure by the US Government is
 subject to restrictions as set forth in subparagraphs (a)
 and (c) of the Commercial Computer Software - Restricted
 Rights clause in FAR 52.227-19.
  
 Gaussian, Inc.
 340 Quinnipiac St., Bldg. 40, Wallingford CT 06492
  
  
 ---------------------------------------------------------------
 Warning -- This program may not be used in any manner that
 competes with the business of Gaussian, Inc. or will provide
 assistance to any competitor of Gaussian, Inc.  The licensee
 of this program is prohibited from giving any competitor of
 Gaussian, Inc. access to this program.  By using this program,
 the user acknowledges that Gaussian, Inc. is engaged in the
 business of creating and licensing software in the field of
 computational chemistry and represents and warrants to the
 licensee that it is not a competitor of Gaussian, Inc. and that
 it will not use this program in any manner prohibited above.
 ---------------------------------------------------------------
  

 Cite this work as:
 Gaussian 09, Revision D.01,
 M. J. Frisch, G. W. Trucks, H. B. Schlegel, G. E. Scuseria, 
 M. A. Robb, J. R. Cheeseman, G. Scalmani, V. Barone, B. Mennucci, 
 G. A. Petersson, H. Nakatsuji, M. Caricato, X. Li, H. P. Hratchian, 
 A. F. Izmaylov, J. Bloino, G. Zheng, J. L. Sonnenberg, M. Hada, 
 M. Ehara, K. Toyota, R. Fukuda, J. Hasegawa, M. Ishida, T. Nakajima, 
 Y. Honda, O. Kitao, H. Nakai, T. Vreven, J. A. Montgomery, Jr., 
 J. E. Peralta, F. Ogliaro, M. Bearpark, J. J. Heyd, E. Brothers, 
 K. N. Kudin, V. N. Staroverov, T. Keith, R. Kobayashi, J. Normand, 
 K. Raghavachari, A. Rendell, J. C. Burant, S. S. Iyengar, J. Tomasi, 
 M. Cossi, N. Rega, J. M. Millam, M. Klene, J. E. Knox, J. B. Cross, 
 V. Bakken, C. Adamo, J. Jaramillo, R. Gomperts, R. E. Stratmann, 
 O. Yazyev, A. J. Austin, R. Cammi, C. Pomelli, J. W. Ochterski, 
 R. L. Martin, K. Morokuma, V. G. Zakrzewski, G. A. Voth, 
 P. Salvador, J. J. Dannenberg, S. Dapprich, A. D. Daniels, 
 O. Farkas, J. B. Foresman, J. V. Ortiz, J. Cioslowski, 
 and D. J. Fox, Gaussian, Inc., Wallingford CT, 2013.
 
 ******************************************
 Gaussian 09:  ES64L-G09RevD.01 24-Apr-2013
                26-Sep-2016 
 ******************************************
 %rwf=/home/glaserr/scratch/IM_Q2_scan-FEF
 %int=/home/glaserr/scratch/IM_Q2_scan-FEF
 %d2e=/home/glaserr/scratch/IM_Q2_scan-FEF
 %nosave
 %mem=36GB
 %nprocshared=12
 Will use up to   12 processors via shared memory.
 %chk=/home/glaserr/IM_Q2_scan-FEF
 ----------------------------------------------------------------------
 # opt=modredundant UHF/6-31G* gfp scf=(QC,maxcycles=500) geom=connecti
 vity
 ----------------------------------------------------------------------
 1/18=120,19=15,38=1,57=2/1,3;
 2/9=110,12=2,17=6,18=5,40=1/2;
 3/5=1,6=6,7=1,11=2,16=1,24=100,25=1,30=1,71=1,116=2/1,2,3;
 4//1;
 5/5=2,7=500,8=3,38=5/8;
 6/7=2,8=2,9=2,10=2,28=1/1;
 7//1,2,3,16;
 1/18=20,19=15/3(2);
 2/9=110/2;
 99//99;
 2/9=110/2;
 3/5=1,6=6,7=1,11=2,16=1,25=1,30=1,71=1,116=2/1,2,3;
 4/5=5,16=3,69=1/1;
 5/5=2,7=500,8=3,38=5/8;
 7//1,2,3,16;
 1/18=20,19=15/3(-5);
 2/9=110/2;
 6/7=2,8=2,9=2,10=2,19=2,28=1/1;
 99/9=1/99;
 --------------------------------------
 IM_Q2_scan-FEF, lengthen, 5 steps only
 --------------------------------------
 Symbolic Z-matrix:
 Charge =  1 Multiplicity = 4
 C
 C                    1    B1
 C                    2    B2       1    A1
 C                    1    B3       2    A2       3    D1       0
 C                    4    B4       1    A3       2    D2       0
 C                    5    B5       4    A4       1    D3       0
 C                    6    B6       5    A5       4    D4       0
 C                    1    B7       7    A6       6    D5       0
 N                    5    B8       4    A7       1    D6       0
 C                    1    B9       8    A8       9    D7       0
 C                    10   B10      1    A9       8    D8       0
 C                    11   B11      10   A10      1    D9       0
 C                    12   B12      11   A11      10   D10      0
 N                    10   B13      1    A12      8    D11      0
 C                    2    B14      1    A13      8    D12      0
 C                    15   B15      2    A14      1    D13      0
 C                    16   B16      15   A15      2    D14      0
 C                    3    B17      2    A16      1    D15      0
 N                    18   B18      3    A17      2    D16      0
 C                    3    B19      2    A18      1    D17      0
 C                    20   B20      3    A19      2    D18      0
 C                    21   B21      20   A20      3    D19      0
 C                    4    B22      1    A21      8    D20      0
 N                    23   B23      4    A22      1    D21      0
 H                    1    B24      8    A23      9    D22      0
 H                    2    B25      1    A24      8    D23      0
 H                    3    B26      2    A25      1    D24      0
 H                    4    B27      1    A26      8    D25      0
 H                    6    B28      5    A27      4    D26      0
 H                    7    B29      6    A28      5    D27      0
 H                    11   B30      10   A29      1    D28      0
 H                    12   B31      11   A30      10   D29      0
 H                    16   B32      15   A31      2    D30      0
 H                    17   B33      16   A32      15   D31      0
 H                    21   B34      20   A33      3    D32      0
 H                    22   B35      21   A34      20   D33      0
 Fe                   14   B36      10   A35      1    D34      0
 O                    37   B37      14   A36      10   D35      0
 C                    14   B38      10   A37      1    D36      0
 C                    39   B39      14   A38      10   D37      0
 C                    40   B40      39   A39      14   D38      0
 N                    39   B41      14   A40      10   D39      0
 H                    42   B42      39   A41      14   D40      0
 H                    39   B43      14   A42      10   D41      0
 H                    40   B44      39   A43      14   D42      0
 H                    41   B45      40   A44      39   D43      0
 N                    39   B46      14   A45      10   D44      0
       Variables:
  B1                    4.91346                  
  B2                    4.80292                  
  B3                    4.80291                  
  B4                    1.41782                  
  B5                    1.44526                  
  B6                    1.34728                  
  B7                    1.37882                  
  B8                    1.34584                  
  B9                    1.44127                  
  B10                   1.39457                  
  B11                   1.38804                  
  B12                   1.39457                  
  B13                   1.35627                  
  B14                   1.37882                  
  B15                   1.46657                  
  B16                   1.34728                  
  B17                   1.41782                  
  B18                   1.34584                  
  B19                   1.41006                  
  B20                   1.45914                  
  B21                   1.33397                  
  B22                   1.41006                  
  B23                   1.3536                   
  B24                   1.07506                  
  B25                   1.07506                  
  B26                   1.07449                  
  B27                   1.07449                  
  B28                   1.07113                  
  B29                   1.07132                  
  B30                   1.0716                   
  B31                   1.0716                   
  B32                   1.07132                  
  B33                   1.07113                  
  B34                   1.07112                  
  B35                   1.07112                  
  B36                   1.99908                  
  B37                   1.77833                  
  B38                   3.00057                  
  B39                   2.14509                  
  B40                   1.34361                  
  B41                   1.32992                  
  B42                   0.99583                  
  B43                   1.06721                  
  B44                   1.06602                  
  B45                   1.06764                  
  B46                   1.30429                  
  A1                   89.77404                  
  A2                   89.77385                  
  A3                   20.36933                  
  A4                  126.56032                  
  A5                  106.50267                  
  A6                   27.47641                  
  A7                  123.30238                  
  A8                  128.51195                  
  A9                  125.09213                  
  A10                 106.51861                  
  A11                 106.51877                  
  A12                 124.94615                  
  A13                 109.94473                  
  A14                 126.81589                  
  A15                 106.74444                  
  A16                  20.36937                  
  A17                 123.30246                  
  A18                 107.53695                  
  A19                 124.26252                  
  A20                 106.92563                  
  A21                 107.53695                  
  A22                 126.42687                  
  A23                 116.42997                  
  A24                 133.60289                  
  A25                 136.6144                   
  A26                 136.61449                  
  A27                 125.44845                  
  A28                 128.09206                  
  A29                 126.00373                  
  A30                 127.47338                  
  A31                 125.15556                  
  A32                 128.04127                  
  A33                 124.73026                  
  A34                 128.34242                  
  A35                 126.47994                  
  A36                  91.7196                   
  A37                 100.41711                  
  A38                 110.90031                  
  A39                  73.67603                  
  A40                 176.35502                  
  A41                 125.45067                  
  A42                  53.01209                  
  A43                 157.95458                  
  A44                 131.94182                  
  A45                  72.6608                   
  D1                   -0.00081                  
  D2                  174.73749                  
  D3                  170.19537                  
  D4                 -176.49499                  
  D5                   -4.90449                  
  D6                   -7.21863                  
  D7                    0.74743                  
  D8                 -177.79671                  
  D9                  179.83681                  
  D10                   0.                       
  D11                   1.68454                  
  D12                  -0.001                    
  D13                 175.68874                  
  D14                -176.21869                  
  D15                -174.73601                  
  D16                   7.21985                  
  D17                   0.96893                  
  D18                 176.39171                  
  D19                -179.88832                  
  D20                -175.2545                   
  D21                   3.78491                  
  D22                 179.83601                  
  D23                 178.1544                   
  D24                 175.66162                  
  D25                  10.05202                  
  D26                   2.57012                  
  D27                 179.01342                  
  D28                  -0.86483                  
  D29                 179.28477                  
  D30                   2.83509                  
  D31                 179.03648                  
  D32                  -0.35325                  
  D33                 179.51261                  
  D34                   0.06257                  
  D35                  89.95502                  
  D36                 -75.61775                  
  D37                 125.15932                  
  D38                -179.99941                  
  D39                 -54.83331                  
  D40                  -0.00716                  
  D41                 -54.84093                  
  D42                   0.00031                  
  D43                 180.                       
  D44                 125.15977                  
 
 Add virtual bond connecting atoms Fe37       and N9         Dist= 4.05D+00.
 Add virtual bond connecting atoms Fe37       and N14        Dist= 3.78D+00.
 Add virtual bond connecting atoms Fe37       and N19        Dist= 4.05D+00.
 Add virtual bond connecting atoms Fe37       and N24        Dist= 3.93D+00.
 Add virtual bond connecting atoms N47        and Fe37       Dist= 3.99D+00.
 The following ModRedundant input section has been read:
 B      37      38 S   5 0.0200                                                
 

 GradGradGradGradGradGradGradGradGradGradGradGradGradGradGradGradGradGrad
 Berny optimization.
 Initialization pass.
                           ----------------------------
                           !    Initial Parameters    !
                           ! (Angstroms and Degrees)  !
 --------------------------                            --------------------------
 ! Name  Definition              Value          Derivative Info.                !
 --------------------------------------------------------------------------------
 ! R1    R(1,8)                  1.3788         estimate D2E/DX2                !
 ! R2    R(1,10)                 1.4413         estimate D2E/DX2                !
 ! R3    R(1,25)                 1.0751         estimate D2E/DX2                !
 ! R4    R(2,13)                 1.4413         estimate D2E/DX2                !
 ! R5    R(2,15)                 1.3788         estimate D2E/DX2                !
 ! R6    R(2,26)                 1.0751         estimate D2E/DX2                !
 ! R7    R(3,18)                 1.4178         estimate D2E/DX2                !
 ! R8    R(3,20)                 1.4101         estimate D2E/DX2                !
 ! R9    R(3,27)                 1.0745         estimate D2E/DX2                !
 ! R10   R(4,5)                  1.4178         estimate D2E/DX2                !
 ! R11   R(4,23)                 1.4101         estimate D2E/DX2                !
 ! R12   R(4,28)                 1.0745         estimate D2E/DX2                !
 ! R13   R(5,6)                  1.4453         estimate D2E/DX2                !
 ! R14   R(5,9)                  1.3458         estimate D2E/DX2                !
 ! R15   R(6,7)                  1.3473         estimate D2E/DX2                !
 ! R16   R(6,29)                 1.0711         estimate D2E/DX2                !
 ! R17   R(7,8)                  1.4666         estimate D2E/DX2                !
 ! R18   R(7,30)                 1.0713         estimate D2E/DX2                !
 ! R19   R(8,9)                  1.351          estimate D2E/DX2                !
 ! R20   R(9,37)                 2.1424         estimate D2E/DX2                !
 ! R21   R(10,11)                1.3946         estimate D2E/DX2                !
 ! R22   R(10,14)                1.3563         estimate D2E/DX2                !
 ! R23   R(11,12)                1.388          estimate D2E/DX2                !
 ! R24   R(11,31)                1.0716         estimate D2E/DX2                !
 ! R25   R(12,13)                1.3946         estimate D2E/DX2                !
 ! R26   R(12,32)                1.0716         estimate D2E/DX2                !
 ! R27   R(13,14)                1.3563         estimate D2E/DX2                !
 ! R28   R(14,37)                1.9991         estimate D2E/DX2                !
 ! R29   R(15,16)                1.4666         estimate D2E/DX2                !
 ! R30   R(15,19)                1.351          estimate D2E/DX2                !
 ! R31   R(16,17)                1.3473         estimate D2E/DX2                !
 ! R32   R(16,33)                1.0713         estimate D2E/DX2                !
 ! R33   R(17,18)                1.4453         estimate D2E/DX2                !
 ! R34   R(17,34)                1.0711         estimate D2E/DX2                !
 ! R35   R(18,19)                1.3458         estimate D2E/DX2                !
 ! R36   R(19,37)                2.1424         estimate D2E/DX2                !
 ! R37   R(20,21)                1.4591         estimate D2E/DX2                !
 ! R38   R(20,24)                1.3536         estimate D2E/DX2                !
 ! R39   R(21,22)                1.334          estimate D2E/DX2                !
 ! R40   R(21,35)                1.0711         estimate D2E/DX2                !
 ! R41   R(22,23)                1.4591         estimate D2E/DX2                !
 ! R42   R(22,36)                1.0711         estimate D2E/DX2                !
 ! R43   R(23,24)                1.3536         estimate D2E/DX2                !
 ! R44   R(24,37)                2.0779         estimate D2E/DX2                !
 ! R45   R(37,38)                1.7783         Scan                            !
 ! R46   R(37,47)                2.1117         estimate D2E/DX2                !
 ! R47   R(39,42)                1.3299         estimate D2E/DX2                !
 ! R48   R(39,44)                1.0672         estimate D2E/DX2                !
 ! R49   R(39,47)                1.3043         estimate D2E/DX2                !
 ! R50   R(40,41)                1.3436         estimate D2E/DX2                !
 ! R51   R(40,45)                1.066          estimate D2E/DX2                !
 ! R52   R(40,47)                1.3812         estimate D2E/DX2                !
 ! R53   R(41,42)                1.3731         estimate D2E/DX2                !
 ! R54   R(41,46)                1.0676         estimate D2E/DX2                !
 ! R55   R(42,43)                0.9958         estimate D2E/DX2                !
 ! A1    A(8,1,10)             128.5119         estimate D2E/DX2                !
 ! A2    A(8,1,25)             116.43           estimate D2E/DX2                !
 ! A3    A(10,1,25)            115.0525         estimate D2E/DX2                !
 ! A4    A(13,2,15)            128.512          estimate D2E/DX2                !
 ! A5    A(13,2,26)            115.0526         estimate D2E/DX2                !
 ! A6    A(15,2,26)            116.4298         estimate D2E/DX2                !
 ! A7    A(18,3,20)            127.8387         estimate D2E/DX2                !
 ! A8    A(18,3,27)            116.4592         estimate D2E/DX2                !
 ! A9    A(20,3,27)            115.67           estimate D2E/DX2                !
 ! A10   A(5,4,23)             127.8386         estimate D2E/DX2                !
 ! A11   A(5,4,28)             116.4593         estimate D2E/DX2                !
 ! A12   A(23,4,28)            115.67           estimate D2E/DX2                !
 ! A13   A(4,5,6)              126.5603         estimate D2E/DX2                !
 ! A14   A(4,5,9)              123.3024         estimate D2E/DX2                !
 ! A15   A(6,5,9)              110.0956         estimate D2E/DX2                !
 ! A16   A(5,6,7)              106.5027         estimate D2E/DX2                !
 ! A17   A(5,6,29)             125.4484         estimate D2E/DX2                !
 ! A18   A(7,6,29)             128.0413         estimate D2E/DX2                !
 ! A19   A(6,7,8)              106.7446         estimate D2E/DX2                !
 ! A20   A(6,7,30)             128.0921         estimate D2E/DX2                !
 ! A21   A(8,7,30)             125.1556         estimate D2E/DX2                !
 ! A22   A(1,8,7)              126.8161         estimate D2E/DX2                !
 ! A23   A(1,8,9)              124.4147         estimate D2E/DX2                !
 ! A24   A(7,8,9)              108.715          estimate D2E/DX2                !
 ! A25   A(5,9,8)              107.9041         estimate D2E/DX2                !
 ! A26   A(5,9,37)             127.1944         estimate D2E/DX2                !
 ! A27   A(8,9,37)             124.2505         estimate D2E/DX2                !
 ! A28   A(1,10,11)            125.0921         estimate D2E/DX2                !
 ! A29   A(1,10,14)            124.9462         estimate D2E/DX2                !
 ! A30   A(11,10,14)           109.96           estimate D2E/DX2                !
 ! A31   A(10,11,12)           106.5186         estimate D2E/DX2                !
 ! A32   A(10,11,31)           126.0037         estimate D2E/DX2                !
 ! A33   A(12,11,31)           127.4735         estimate D2E/DX2                !
 ! A34   A(11,12,13)           106.5188         estimate D2E/DX2                !
 ! A35   A(11,12,32)           127.4734         estimate D2E/DX2                !
 ! A36   A(13,12,32)           126.0037         estimate D2E/DX2                !
 ! A37   A(2,13,12)            125.0922         estimate D2E/DX2                !
 ! A38   A(2,13,14)            124.9463         estimate D2E/DX2                !
 ! A39   A(12,13,14)           109.9598         estimate D2E/DX2                !
 ! A40   A(10,14,13)           107.0406         estimate D2E/DX2                !
 ! A41   A(10,14,37)           126.4799         estimate D2E/DX2                !
 ! A42   A(13,14,37)           126.4794         estimate D2E/DX2                !
 ! A43   A(2,15,16)            126.8159         estimate D2E/DX2                !
 ! A44   A(2,15,19)            124.4148         estimate D2E/DX2                !
 ! A45   A(16,15,19)           108.7151         estimate D2E/DX2                !
 ! A46   A(15,16,17)           106.7444         estimate D2E/DX2                !
 ! A47   A(15,16,33)           125.1556         estimate D2E/DX2                !
 ! A48   A(17,16,33)           128.0922         estimate D2E/DX2                !
 ! A49   A(16,17,18)           106.5027         estimate D2E/DX2                !
 ! A50   A(16,17,34)           128.0413         estimate D2E/DX2                !
 ! A51   A(18,17,34)           125.4484         estimate D2E/DX2                !
 ! A52   A(3,18,17)            126.5603         estimate D2E/DX2                !
 ! A53   A(3,18,19)            123.3025         estimate D2E/DX2                !
 ! A54   A(17,18,19)           110.0955         estimate D2E/DX2                !
 ! A55   A(15,19,18)           107.904          estimate D2E/DX2                !
 ! A56   A(15,19,37)           124.2501         estimate D2E/DX2                !
 ! A57   A(18,19,37)           127.1945         estimate D2E/DX2                !
 ! A58   A(3,20,21)            124.2625         estimate D2E/DX2                !
 ! A59   A(3,20,24)            126.4265         estimate D2E/DX2                !
 ! A60   A(21,20,24)           109.3108         estimate D2E/DX2                !
 ! A61   A(20,21,22)           106.9256         estimate D2E/DX2                !
 ! A62   A(20,21,35)           124.7303         estimate D2E/DX2                !
 ! A63   A(22,21,35)           128.3422         estimate D2E/DX2                !
 ! A64   A(21,22,23)           106.9254         estimate D2E/DX2                !
 ! A65   A(21,22,36)           128.3424         estimate D2E/DX2                !
 ! A66   A(23,22,36)           124.7303         estimate D2E/DX2                !
 ! A67   A(4,23,22)            124.2621         estimate D2E/DX2                !
 ! A68   A(4,23,24)            126.4269         estimate D2E/DX2                !
 ! A69   A(22,23,24)           109.3108         estimate D2E/DX2                !
 ! A70   A(20,24,23)           107.5255         estimate D2E/DX2                !
 ! A71   A(20,24,37)           126.1393         estimate D2E/DX2                !
 ! A72   A(23,24,37)           126.1391         estimate D2E/DX2                !
 ! A73   A(9,37,14)             91.2343         estimate D2E/DX2                !
 ! A74   A(9,37,24)             88.7881         estimate D2E/DX2                !
 ! A75   A(9,37,38)             92.2549         estimate D2E/DX2                !
 ! A76   A(9,37,47)             87.7196         estimate D2E/DX2                !
 ! A77   A(14,37,19)            91.2347         estimate D2E/DX2                !
 ! A78   A(14,37,38)            91.7196         estimate D2E/DX2                !
 ! A79   A(14,37,47)            89.4305         estimate D2E/DX2                !
 ! A80   A(19,37,24)            88.788          estimate D2E/DX2                !
 ! A81   A(19,37,38)            92.2544         estimate D2E/DX2                !
 ! A82   A(19,37,47)            87.7197         estimate D2E/DX2                !
 ! A83   A(24,37,38)            87.7168         estimate D2E/DX2                !
 ! A84   A(24,37,47)            91.1331         estimate D2E/DX2                !
 ! A85   A(42,39,44)           123.3429         estimate D2E/DX2                !
 ! A86   A(42,39,47)           110.9842         estimate D2E/DX2                !
 ! A87   A(44,39,47)           125.6729         estimate D2E/DX2                !
 ! A88   A(41,40,45)           128.3694         estimate D2E/DX2                !
 ! A89   A(41,40,47)           109.4438         estimate D2E/DX2                !
 ! A90   A(45,40,47)           122.1869         estimate D2E/DX2                !
 ! A91   A(40,41,42)           105.5151         estimate D2E/DX2                !
 ! A92   A(40,41,46)           131.9418         estimate D2E/DX2                !
 ! A93   A(42,41,46)           122.5431         estimate D2E/DX2                !
 ! A94   A(39,42,41)           108.0642         estimate D2E/DX2                !
 ! A95   A(39,42,43)           125.4507         estimate D2E/DX2                !
 ! A96   A(41,42,43)           126.4851         estimate D2E/DX2                !
 ! A97   A(37,47,39)           125.5522         estimate D2E/DX2                !
 ! A98   A(37,47,40)           128.455          estimate D2E/DX2                !
 ! A99   A(39,47,40)           105.9928         estimate D2E/DX2                !
 ! A100  L(9,37,19,14,-1)      182.4691         estimate D2E/DX2                !
 ! A101  L(14,37,24,9,-1)      180.0225         estimate D2E/DX2                !
 ! A102  L(38,37,47,9,-1)      179.9744         estimate D2E/DX2                !
 ! A103  L(9,37,19,14,-2)      175.4134         estimate D2E/DX2                !
 ! A104  L(14,37,24,9,-2)      179.4368         estimate D2E/DX2                !
 ! A105  L(38,37,47,9,-2)      178.8493         estimate D2E/DX2                !
 ! D1    D(10,1,8,7)          -176.269          estimate D2E/DX2                !
 ! D2    D(10,1,8,9)             0.7474         estimate D2E/DX2                !
 ! D3    D(25,1,8,7)             2.8196         estimate D2E/DX2                !
 ! D4    D(25,1,8,9)           179.836          estimate D2E/DX2                !
 ! D5    D(8,1,10,11)         -177.7967         estimate D2E/DX2                !
 ! D6    D(8,1,10,14)            1.6845         estimate D2E/DX2                !
 ! D7    D(25,1,10,11)           3.1042         estimate D2E/DX2                !
 ! D8    D(25,1,10,14)        -177.4145         estimate D2E/DX2                !
 ! D9    D(15,2,13,12)         177.7954         estimate D2E/DX2                !
 ! D10   D(15,2,13,14)          -1.6852         estimate D2E/DX2                !
 ! D11   D(26,2,13,12)          -3.1055         estimate D2E/DX2                !
 ! D12   D(26,2,13,14)         177.4138         estimate D2E/DX2                !
 ! D13   D(13,2,15,16)         176.2689         estimate D2E/DX2                !
 ! D14   D(13,2,15,19)          -0.7477         estimate D2E/DX2                !
 ! D15   D(26,2,15,16)          -2.8197         estimate D2E/DX2                !
 ! D16   D(26,2,15,19)        -179.8362         estimate D2E/DX2                !
 ! D17   D(20,3,18,17)        -175.3813         estimate D2E/DX2                !
 ! D18   D(20,3,18,19)           2.0318         estimate D2E/DX2                !
 ! D19   D(27,3,18,17)           2.4533         estimate D2E/DX2                !
 ! D20   D(27,3,18,19)         179.8665         estimate D2E/DX2                !
 ! D21   D(18,3,20,21)         178.2833         estimate D2E/DX2                !
 ! D22   D(18,3,20,24)          -1.8935         estimate D2E/DX2                !
 ! D23   D(27,3,20,21)           0.4341         estimate D2E/DX2                !
 ! D24   D(27,3,20,24)        -179.7427         estimate D2E/DX2                !
 ! D25   D(23,4,5,6)           175.3835         estimate D2E/DX2                !
 ! D26   D(23,4,5,9)            -2.0305         estimate D2E/DX2                !
 ! D27   D(28,4,5,6)            -2.4518         estimate D2E/DX2                !
 ! D28   D(28,4,5,9)          -179.8658         estimate D2E/DX2                !
 ! D29   D(5,4,23,22)         -178.2844         estimate D2E/DX2                !
 ! D30   D(5,4,23,24)            1.8933         estimate D2E/DX2                !
 ! D31   D(28,4,23,22)          -0.4346         estimate D2E/DX2                !
 ! D32   D(28,4,23,24)         179.7431         estimate D2E/DX2                !
 ! D33   D(4,5,6,7)           -176.495          estimate D2E/DX2                !
 ! D34   D(4,5,6,29)             2.5701         estimate D2E/DX2                !
 ! D35   D(9,5,6,7)              1.2037         estimate D2E/DX2                !
 ! D36   D(9,5,6,29)          -179.7312         estimate D2E/DX2                !
 ! D37   D(4,5,9,8)            175.8297         estimate D2E/DX2                !
 ! D38   D(4,5,9,37)             4.8406         estimate D2E/DX2                !
 ! D39   D(6,5,9,8)             -1.9587         estimate D2E/DX2                !
 ! D40   D(6,5,9,37)          -172.9478         estimate D2E/DX2                !
 ! D41   D(5,6,7,8)             -0.0036         estimate D2E/DX2                !
 ! D42   D(5,6,7,30)           179.0134         estimate D2E/DX2                !
 ! D43   D(29,6,7,8)          -179.0366         estimate D2E/DX2                !
 ! D44   D(29,6,7,30)           -0.0195         estimate D2E/DX2                !
 ! D45   D(6,7,8,1)            176.2187         estimate D2E/DX2                !
 ! D46   D(6,7,8,9)             -1.1828         estimate D2E/DX2                !
 ! D47   D(30,7,8,1)            -2.8351         estimate D2E/DX2                !
 ! D48   D(30,7,8,9)           179.7634         estimate D2E/DX2                !
 ! D49   D(1,8,9,5)           -175.5508         estimate D2E/DX2                !
 ! D50   D(1,8,9,37)            -4.2322         estimate D2E/DX2                !
 ! D51   D(7,8,9,5)              1.9276         estimate D2E/DX2                !
 ! D52   D(7,8,9,37)           173.2462         estimate D2E/DX2                !
 ! D53   D(5,9,37,14)          173.9785         estimate D2E/DX2                !
 ! D54   D(5,9,37,24)           -5.4582         estimate D2E/DX2                !
 ! D55   D(5,9,37,38)           82.2086         estimate D2E/DX2                !
 ! D56   D(5,9,37,47)          -96.6407         estimate D2E/DX2                !
 ! D57   D(8,9,37,14)            4.3661         estimate D2E/DX2                !
 ! D58   D(8,9,37,24)         -175.0706         estimate D2E/DX2                !
 ! D59   D(8,9,37,38)          -87.4039         estimate D2E/DX2                !
 ! D60   D(8,9,37,47)           93.7468         estimate D2E/DX2                !
 ! D61   D(1,10,11,12)         179.8368         estimate D2E/DX2                !
 ! D62   D(1,10,11,31)          -0.8648         estimate D2E/DX2                !
 ! D63   D(14,10,11,12)          0.2892         estimate D2E/DX2                !
 ! D64   D(14,10,11,31)        179.5876         estimate D2E/DX2                !
 ! D65   D(1,10,14,13)         179.9852         estimate D2E/DX2                !
 ! D66   D(1,10,14,37)           0.0626         estimate D2E/DX2                !
 ! D67   D(11,10,14,13)         -0.4664         estimate D2E/DX2                !
 ! D68   D(11,10,14,37)        179.611          estimate D2E/DX2                !
 ! D69   D(10,11,12,13)          0.0            estimate D2E/DX2                !
 ! D70   D(10,11,12,32)        179.2848         estimate D2E/DX2                !
 ! D71   D(31,11,12,13)       -179.2848         estimate D2E/DX2                !
 ! D72   D(31,11,12,32)          0.0            estimate D2E/DX2                !
 ! D73   D(11,12,13,2)        -179.8363         estimate D2E/DX2                !
 ! D74   D(11,12,13,14)         -0.2892         estimate D2E/DX2                !
 ! D75   D(32,12,13,2)           0.8653         estimate D2E/DX2                !
 ! D76   D(32,12,13,14)       -179.5875         estimate D2E/DX2                !
 ! D77   D(2,13,14,10)        -179.9857         estimate D2E/DX2                !
 ! D78   D(2,13,14,37)          -0.0631         estimate D2E/DX2                !
 ! D79   D(12,13,14,10)          0.4664         estimate D2E/DX2                !
 ! D80   D(12,13,14,37)       -179.611          estimate D2E/DX2                !
 ! D81   D(10,14,37,9)          -2.3385         estimate D2E/DX2                !
 ! D82   D(10,14,37,19)       -177.7519         estimate D2E/DX2                !
 ! D83   D(10,14,37,38)         89.955          estimate D2E/DX2                !
 ! D84   D(10,14,37,47)        -90.0451         estimate D2E/DX2                !
 ! D85   D(13,14,37,9)         177.7535         estimate D2E/DX2                !
 ! D86   D(13,14,37,19)          2.3401         estimate D2E/DX2                !
 ! D87   D(13,14,37,38)        -89.953          estimate D2E/DX2                !
 ! D88   D(13,14,37,47)         90.0468         estimate D2E/DX2                !
 ! D89   D(2,15,16,17)        -176.2187         estimate D2E/DX2                !
 ! D90   D(2,15,16,33)           2.8351         estimate D2E/DX2                !
 ! D91   D(19,15,16,17)          1.1829         estimate D2E/DX2                !
 ! D92   D(19,15,16,33)       -179.7633         estimate D2E/DX2                !
 ! D93   D(2,15,19,18)         175.5507         estimate D2E/DX2                !
 ! D94   D(2,15,19,37)           4.2342         estimate D2E/DX2                !
 ! D95   D(16,15,19,18)         -1.9279         estimate D2E/DX2                !
 ! D96   D(16,15,19,37)       -173.2443         estimate D2E/DX2                !
 ! D97   D(15,16,17,18)          0.0037         estimate D2E/DX2                !
 ! D98   D(15,16,17,34)        179.0365         estimate D2E/DX2                !
 ! D99   D(33,16,17,18)       -179.0133         estimate D2E/DX2                !
 ! D100  D(33,16,17,34)          0.0195         estimate D2E/DX2                !
 ! D101  D(16,17,18,3)         176.4939         estimate D2E/DX2                !
 ! D102  D(16,17,18,19)         -1.204          estimate D2E/DX2                !
 ! D103  D(34,17,18,3)          -2.571          estimate D2E/DX2                !
 ! D104  D(34,17,18,19)        179.7311         estimate D2E/DX2                !
 ! D105  D(3,18,19,15)        -175.8286         estimate D2E/DX2                !
 ! D106  D(3,18,19,37)          -4.8419         estimate D2E/DX2                !
 ! D107  D(17,18,19,15)          1.9591         estimate D2E/DX2                !
 ! D108  D(17,18,19,37)        172.9458         estimate D2E/DX2                !
 ! D109  D(15,19,37,14)         -4.3684         estimate D2E/DX2                !
 ! D110  D(15,19,37,24)        175.0683         estimate D2E/DX2                !
 ! D111  D(15,19,37,38)         87.4015         estimate D2E/DX2                !
 ! D112  D(15,19,37,47)        -93.7492         estimate D2E/DX2                !
 ! D113  D(18,19,37,14)       -173.9782         estimate D2E/DX2                !
 ! D114  D(18,19,37,24)          5.4586         estimate D2E/DX2                !
 ! D115  D(18,19,37,38)        -82.2082         estimate D2E/DX2                !
 ! D116  D(18,19,37,47)         96.6411         estimate D2E/DX2                !
 ! D117  D(3,20,21,22)        -179.8883         estimate D2E/DX2                !
 ! D118  D(3,20,21,35)          -0.3532         estimate D2E/DX2                !
 ! D119  D(24,20,21,22)          0.2624         estimate D2E/DX2                !
 ! D120  D(24,20,21,35)        179.7975         estimate D2E/DX2                !
 ! D121  D(3,20,24,23)         179.7301         estimate D2E/DX2                !
 ! D122  D(3,20,24,37)           4.5819         estimate D2E/DX2                !
 ! D123  D(21,20,24,23)         -0.4247         estimate D2E/DX2                !
 ! D124  D(21,20,24,37)       -175.5729         estimate D2E/DX2                !
 ! D125  D(20,21,22,23)          0.0            estimate D2E/DX2                !
 ! D126  D(20,21,22,36)        179.5126         estimate D2E/DX2                !
 ! D127  D(35,21,22,23)       -179.5128         estimate D2E/DX2                !
 ! D128  D(35,21,22,36)         -0.0002         estimate D2E/DX2                !
 ! D129  D(21,22,23,4)         179.8891         estimate D2E/DX2                !
 ! D130  D(21,22,23,24)         -0.2624         estimate D2E/DX2                !
 ! D131  D(36,22,23,4)           0.3543         estimate D2E/DX2                !
 ! D132  D(36,22,23,24)       -179.7973         estimate D2E/DX2                !
 ! D133  D(4,23,24,20)        -179.731          estimate D2E/DX2                !
 ! D134  D(4,23,24,37)          -4.5827         estimate D2E/DX2                !
 ! D135  D(22,23,24,20)          0.4247         estimate D2E/DX2                !
 ! D136  D(22,23,24,37)        175.5729         estimate D2E/DX2                !
 ! D137  D(20,24,37,9)         179.4399         estimate D2E/DX2                !
 ! D138  D(20,24,37,19)         -5.1708         estimate D2E/DX2                !
 ! D139  D(20,24,37,38)         87.1343         estimate D2E/DX2                !
 ! D140  D(20,24,37,47)        -92.8655         estimate D2E/DX2                !
 ! D141  D(23,24,37,9)           5.1714         estimate D2E/DX2                !
 ! D142  D(23,24,37,19)       -179.4392         estimate D2E/DX2                !
 ! D143  D(23,24,37,38)        -87.1341         estimate D2E/DX2                !
 ! D144  D(23,24,37,47)         92.866          estimate D2E/DX2                !
 ! D145  D(9,37,47,39)         -91.2596         estimate D2E/DX2                !
 ! D146  D(9,37,47,40)          88.7409         estimate D2E/DX2                !
 ! D147  D(14,37,47,39)         -0.0015         estimate D2E/DX2                !
 ! D148  D(14,37,47,40)        179.999          estimate D2E/DX2                !
 ! D149  D(19,37,47,39)         91.2569         estimate D2E/DX2                !
 ! D150  D(19,37,47,40)        -88.7426         estimate D2E/DX2                !
 ! D151  D(24,37,47,39)        179.9986         estimate D2E/DX2                !
 ! D152  D(24,37,47,40)         -0.0009         estimate D2E/DX2                !
 ! D153  D(44,39,42,41)        180.0            estimate D2E/DX2                !
 ! D154  D(44,39,42,43)          0.0001         estimate D2E/DX2                !
 ! D155  D(47,39,42,41)         -0.0002         estimate D2E/DX2                !
 ! D156  D(47,39,42,43)        179.9999         estimate D2E/DX2                !
 ! D157  D(42,39,47,37)       -179.9994         estimate D2E/DX2                !
 ! D158  D(42,39,47,40)          0.0002         estimate D2E/DX2                !
 ! D159  D(44,39,47,37)          0.0004         estimate D2E/DX2                !
 ! D160  D(44,39,47,40)        180.0            estimate D2E/DX2                !
 ! D161  D(45,40,41,42)       -180.0            estimate D2E/DX2                !
 ! D162  D(45,40,41,46)          0.0001         estimate D2E/DX2                !
 ! D163  D(47,40,41,42)          0.0            estimate D2E/DX2                !
 ! D164  D(47,40,41,46)       -179.9999         estimate D2E/DX2                !
 ! D165  D(41,40,47,37)        179.9995         estimate D2E/DX2                !
 ! D166  D(41,40,47,39)         -0.0001         estimate D2E/DX2                !
 ! D167  D(45,40,47,37)         -0.0006         estimate D2E/DX2                !
 ! D168  D(45,40,47,39)        179.9998         estimate D2E/DX2                !
 ! D169  D(40,41,42,39)          0.0001         estimate D2E/DX2                !
 ! D170  D(40,41,42,43)       -180.0            estimate D2E/DX2                !
 ! D171  D(46,41,42,39)       -179.9999         estimate D2E/DX2                !
 ! D172  D(46,41,42,43)         -0.0001         estimate D2E/DX2                !
 --------------------------------------------------------------------------------
 Trust Radius=3.00D-01 FncErr=1.00D-07 GrdErr=1.00D-07
 Number of optimizations in scan=   6
 Number of steps in this run=    282 maximum allowed number of steps=    282.
 GradGradGradGradGradGradGradGradGradGradGradGradGradGradGradGradGradGrad

                          Input orientation:                          
 ---------------------------------------------------------------------
 Center     Atomic      Atomic             Coordinates (Angstroms)
 Number     Number       Type             X           Y           Z
 ---------------------------------------------------------------------
      1          6           0        0.000000    0.000000    0.000000
      2          6           0        0.000000    0.000000    4.913458
      3          6           0        4.802879    0.000000    4.894516
      4          6           0        4.802876    0.000068    0.018957
      5          6           0        3.475661   -0.045214   -0.477708
      6          6           0        3.072229    0.025789   -1.863701
      7          6           0        1.724967    0.024996   -1.870657
      8          6           0        1.295247   -0.047545   -0.470332
      9          7           0        2.391366   -0.113615    0.316588
     10          6           0       -0.459056    0.005428    1.366199
     11          6           0       -1.796051    0.011447    1.762712
     12          6           0       -1.796050    0.011449    3.150749
     13          6           0       -0.459054    0.005432    3.547265
     14          7           0        0.347237   -0.004634    2.456729
     15          6           0        1.295250   -0.047568    5.383793
     16          6           0        1.724964    0.024972    6.784119
     17          6           0        3.072227    0.025738    6.777167
     18          6           0        3.475663   -0.045276    5.391176
     19          7           0        2.391367   -0.113666    4.596877
     20          6           0        5.222453    0.022736    3.548523
     21          6           0        6.615922    0.105734    3.123724
     22          6           0        6.615922    0.105757    1.789753
     23          6           0        5.222446    0.022774    1.364954
     24          7           0        4.424079   -0.030654    2.456736
     25          1           0       -0.776646    0.053581   -0.741420
     26          1           0       -0.776643    0.053598    5.654880
     27          1           0        5.586658    0.055833    5.627389
     28          1           0        5.586658    0.055921   -0.713910
     29          1           0        3.736595    0.083761   -2.701901
     30          1           0        1.068358    0.082449   -2.715224
     31          1           0       -2.646388    0.025889    1.110758
     32          1           0       -2.646388    0.025894    3.802704
     33          1           0        1.068352    0.082441    7.628682
     34          1           0        3.736590    0.083703    7.615371
     35          1           0        7.454084    0.162796    3.788203
     36          1           0        7.454080    0.162845    1.125272
     37         26           0        2.346190   -0.027414    2.456735
     38          8           0        2.419806    1.749392    2.456763
     39          6           0        1.224049   -2.874241    2.456723
     40          6           0        3.364150   -3.020502    2.456680
     41          6           0        2.899464   -4.281197    2.456681
     42          7           0        1.531026   -4.168243    2.456711
     43          1           0        0.875035   -4.917478    2.456720
     44          1           0        0.221179   -2.509279    2.456746
     45          1           0        4.377211   -2.688684    2.456660
     46          1           0        3.397800   -5.225397    2.456666
     47          7           0        2.301138   -2.138679    2.456708
 ---------------------------------------------------------------------
                    Distance matrix (angstroms):
                    1          2          3          4          5
     1  C    0.000000
     2  C    4.913458   0.000000
     3  C    6.857400   4.802916   0.000000
     4  C    4.802913   6.857387   4.875559   0.000000
     5  C    3.508628   6.414587   5.533926   1.417824   0.000000
     6  C    3.593416   7.441044   6.976339   2.557382   1.445260
     7  C    2.544699   7.000025   7.432478   3.611756   2.238340
     8  C    1.378818   5.537610   6.409941   3.541910   2.180427
     9  N    2.414906   5.182929   5.175493   2.432465   1.345838
    10  C    1.441270   3.576844   6.335378   5.431668   4.345636
    11  C    2.516562   3.626724   7.304396   6.825441   5.728318
    12  C    3.626727   2.516559   6.825446   7.304387   6.399987
    13  C    3.576849   1.441265   5.431671   6.335368   5.628938
    14  N    2.481152   2.481151   5.078934   5.078924   4.289476
    15  C    5.537613   1.378822   3.541908   6.409927   6.253909
    16  C    7.000029   2.544700   3.611756   7.432468   7.470207
    17  C    7.441051   3.593418   2.557380   6.976332   7.266430
    18  C    6.414598   3.508631   1.417824   5.533922   5.868884
    19  N    5.182937   2.414908   2.432467   5.175486   5.189585
    20  C    6.313996   5.397924   1.410056   3.554489   4.389355
    21  C    7.317052   6.854542   2.536535   3.596926   4.780620
    22  C    6.854547   7.317044   3.596924   2.536537   3.876262
    23  C    5.397921   6.313979   3.554485   1.410057   2.539937
    24  N    5.060530   5.060523   2.467225   2.467225   3.083937
    25  H    1.075060   5.708213   7.930811   5.631350   4.261622
    26  H    5.708214   1.075060   5.631349   7.930796   7.463275
    27  H    7.929778   5.632368   1.074490   5.663208   6.460551
    28  H    5.632365   7.929763   5.663204   1.074490   2.126577
    29  H    4.611879   8.483092   7.671345   2.923531   2.243158
    30  H    2.919012   7.703569   8.477122   4.629164   3.289056
    31  H    2.870161   4.632987   8.355182   7.528893   6.325169
    32  H    4.632990   2.870159   7.528897   8.355174   7.470372
    33  H    7.703568   2.919009   4.629163   8.477108   8.457244
    34  H    8.483100   4.611881   2.923530   7.671340   8.098310
    35  H    8.363035   7.540296   2.877380   4.611138   5.836875
    36  H    7.540296   8.363025   4.611137   2.877380   4.294258
    37  Fe   3.397191   3.397182   3.461048   3.461044   3.144356
    38  O    3.866719   3.866676   3.831717   3.831717   3.598133
    39  C    3.974298   3.974305   5.197318   5.197341   4.656611
    40  C    5.145505   5.145552   4.139616   4.139597   4.180359
    41  C    5.724580   5.724621   5.281541   5.281544   5.185189
    42  N    5.074813   5.074830   5.832852   5.832878   5.421419
    43  H    5.566215   5.566223   6.749252   6.749287   6.254045
    44  H    3.518665   3.518641   5.764649   5.764684   5.027354
    45  H    5.694223   5.694283   3.654225   3.654171   4.051078
    46  H    6.699629   6.699675   5.934824   5.934825   5.954066
    47  N    3.988057   3.988083   4.095799   4.095798   3.791160
                    6          7          8          9         10
     6  C    0.000000
     7  C    1.347280   0.000000
     8  C    2.259318   1.466571   0.000000
     9  N    2.288377   2.290708   1.350957   0.000000
    10  C    4.785670   3.904814   2.540321   3.039862   0.000000
    11  C    6.070521   5.059557   3.813934   4.431859   1.394566
    12  C    6.988923   6.132884   4.761494   5.057921   2.229845
    13  C    6.461340   5.841593   4.384229   4.310027   2.181066
    14  N    5.108094   4.541507   3.077053   2.961511   1.356269
    15  C    7.462519   7.267528   5.854125   5.184823   4.384229
    16  C    8.752138   8.654776   7.267529   6.503250   5.841591
    17  C    8.640868   8.752141   7.462525   6.497851   6.461343
    18  C    7.266433   7.470214   6.253919   5.189587   5.628945
    19  N    6.497853   6.503254   5.184830   4.280289   4.310033
    20  C    5.823713   6.449800   5.619527   4.298726   6.086245
    21  C    6.118705   6.990836   6.422640   5.076908   7.290697
    22  C    5.090371   6.109546   5.782825   4.479420   7.088355
    23  C    3.879130   4.764613   4.335448   3.022033   5.681528
    24  N    4.527345   5.100454   4.284577   2.952801   5.003556
    25  H    4.009255   2.744825   2.091999   3.344195   2.131957
    26  H    8.446517   7.930484   6.466930   6.209799   4.300694
    27  H    7.901878   8.434115   7.457151   6.200259   7.396684
    28  H    2.765009   4.031336   4.299563   3.361630   6.393751
    29  H    1.071131   2.177399   3.310184   3.310570   5.844575
    30  H    2.178027   1.071322   2.260070   3.313711   4.358548
    31  H    6.445928   5.291274   4.247556   5.101876   2.202292
    32  H    8.050511   7.162106   5.813839   6.127922   3.274355
    33  H    9.701755   9.522178   8.103234   7.433405   6.446518
    34  H    9.502501   9.697154   8.447247   7.424338   7.527398
    35  H    7.152862   8.053847   7.490703   6.144886   8.276995
    36  H    5.305974   6.466632   6.365645   5.134343   7.918368
    37  Fe   4.381339   4.372069   3.110082   2.142358   3.009942
    38  O    4.697113   4.709873   3.614070   2.837596   3.538161
    39  C    5.521956   5.232849   4.069758   3.682914   3.509213
    40  C    5.294412   5.539659   4.656848   3.738488   4.996229
    41  C    6.102924   6.216800   5.391171   4.712419   5.553734
    42  N    6.215398   6.028846   5.059973   4.664796   4.750703
    43  H    6.923120   6.623944   5.697409   5.473255   5.215749
    44  H    5.763793   5.235489   3.972599   3.876750   2.824139
    45  H    5.266579   5.755356   5.004138   3.892873   5.642413
    46  H    6.807827   7.006477   6.308581   5.632331   6.589839
    47  N    4.893407   4.872325   3.735267   2.947734   3.661294
                   11         12         13         14         15
    11  C    0.000000
    12  C    1.388037   0.000000
    13  C    2.229848   1.394567   0.000000
    14  N    2.252909   2.252909   1.356272   0.000000
    15  C    4.761496   3.813935   2.540320   3.077056   0.000000
    16  C    6.132883   5.059555   3.904810   4.541510   1.466571
    17  C    6.988926   6.070521   4.785669   5.108099   2.259317
    18  C    6.399994   5.728323   4.345639   4.289485   2.180426
    19  N    5.057926   4.431862   3.039864   2.961519   1.350955
    20  C    7.242144   7.029775   5.681533   4.996048   4.335445
    21  C    8.521885   8.412543   7.088352   6.305036   5.782816
    22  C    8.412544   8.521882   7.290692   6.305034   6.422630
    23  C    7.029767   7.242131   6.086232   4.996037   5.619509
    24  N    6.258870   6.258867   5.003552   4.076925   4.284567
    25  H    2.704005   4.023673   4.300698   3.390378   6.466933
    26  H    4.023672   2.704003   2.131953   3.390378   2.092000
    27  H    8.333192   7.787175   6.393754   6.124400   4.299560
    28  H    7.787170   8.333183   7.396674   6.124390   7.457136
    29  H    7.109723   8.054123   7.527395   6.173089   8.447240
    30  H    5.316182   6.528362   6.446525   5.222710   8.103238
    31  H    1.071600   2.210169   3.274357   3.282432   5.813840
    32  H    2.210169   1.071601   2.202294   3.282433   4.247558
    33  H    6.528357   5.316175   4.358539   5.222708   2.260069
    34  H    8.054126   7.109724   5.844574   6.173095   3.310183
    35  H    9.470507   9.273307   7.918368   7.232436   6.365641
    36  H    9.273304   9.470500   8.276987   7.232430   7.490691
    37  Fe   4.200159   4.200156   3.009938   1.999083   3.110072
    38  O    4.612549   4.612537   3.538139   2.715170   3.614028
    39  C    4.234364   4.234368   3.509221   3.000574   4.069753
    40  C    6.025112   6.025125   4.996253   4.265821   4.656896
    41  C    6.399706   6.399718   5.553756   4.980246   5.391206
    42  N    5.387103   5.387110   4.750715   4.328626   5.059977
    43  H    5.648951   5.648956   5.215758   4.941115   5.697400
    44  H    3.302265   3.302260   2.824132   2.507816   3.972563
    45  H    6.773583   6.773598   5.642441   4.841985   5.004207
    46  H    7.408251   7.408265   6.589864   6.046677   6.308621
    47  N    4.678848   4.678856   3.661309   2.893420   3.735289
                   16         17         18         19         20
    16  C    0.000000
    17  C    1.347280   0.000000
    18  C    2.238341   1.445259   0.000000
    19  N    2.290708   2.288377   1.345840   0.000000
    20  C    4.764611   3.879127   2.539936   3.022035   0.000000
    21  C    6.109540   5.090366   3.876258   4.479417   1.459143
    22  C    6.990829   6.118699   4.780616   5.076904   2.245422
    23  C    6.449785   5.823702   4.389345   4.298715   2.183569
    24  N    5.100447   4.527340   3.083934   2.952797   1.353607
    25  H    7.930487   8.446524   7.463287   6.209807   7.375213
    26  H    2.744821   4.009253   4.261622   3.344195   6.358211
    27  H    4.031335   2.765007   2.126575   3.361632   2.110787
    28  H    8.434102   7.901868   6.460544   6.200250   4.278094
    29  H    9.697149   9.502499   8.098311   7.424337   6.424897
    30  H    9.522183   9.701763   8.457255   7.433414   7.516289
    31  H    7.162105   8.050512   7.470378   6.127926   8.237801
    32  H    5.291272   6.445927   6.325172   5.101878   7.872946
    33  H    1.071321   2.178028   3.289056   3.313709   5.823042
    34  H    2.177399   1.071132   2.243158   3.310571   4.330214
    35  H    6.466631   5.305974   4.294258   5.134343   2.248830
    36  H    8.053839   7.152857   5.836871   6.144881   3.297262
    37  Fe   4.372061   4.381334   3.144356   2.142356   3.076915
    38  O    4.709824   4.697077   3.598118   2.837584   3.468157
    39  C    5.232849   5.521945   4.656589   3.682888   5.056851
    40  C    5.539727   5.294470   4.180392   3.738509   3.729170
    41  C    6.216853   6.102961   5.185199   4.712422   5.011211
    42  N    6.028858   6.215394   5.421398   4.664772   5.690606
    43  H    6.623940   6.923099   6.254011   5.473222   6.670667
    44  H    5.235452   5.763751   5.027311   3.876705   5.711026
    45  H    5.755454   5.266674   4.051146   3.892920   3.042761
    46  H    7.006540   6.807874   5.954080   5.632336   5.662545
    47  N    4.872356   4.893430   3.791168   2.947736   3.794452
                   21         22         23         24         25
    21  C    0.000000
    22  C    1.333971   0.000000
    23  C    2.245424   1.459149   0.000000
    24  N    2.295136   2.295136   1.353600   0.000000
    25  H    8.342189   7.814066   6.358212   6.105968   0.000000
    26  H    7.814057   8.342179   7.375194   6.105958   6.396300
    27  H    2.707436   3.973578   4.278095   3.378181   9.002965
    28  H    3.973575   2.707434   2.110788   3.378178   6.363364
    29  H    6.498378   5.335350   4.330218   5.205503   4.920746
    30  H    8.054149   7.146386   5.823046   6.166265   2.701995
    31  H    9.478860   9.287507   7.872939   7.197663   2.631970
    32  H    9.287506   9.478857   8.237789   7.197661   4.913834
    33  H    7.146378   8.054140   7.516272   6.166256   8.571083
    34  H    5.335347   6.498374   6.424888   5.205500   9.497693
    35  H    1.071123   2.167850   3.297264   3.315292   9.395442
    36  H    2.167851   1.071122   2.248835   3.315290   8.440459
    37  Fe   4.323565   4.323565   3.076906   2.077891   4.470667
    38  O    4.555638   4.555637   3.468147   2.680610   4.829230
    39  C    6.196566   6.196574   5.056859   4.280908   4.775253
    40  C    4.559859   4.559858   3.729163   3.172167   6.068281
    41  C    5.788106   5.788110   5.011215   4.515702   6.521652
    42  N    6.675923   6.675932   5.690618   5.048702   5.777300
    43  H    7.657371   7.657383   6.670684   6.039599   6.137392
    44  H    6.940885   6.940895   5.711039   4.879339   4.218077
    45  H    3.642193   3.642182   3.042736   2.658443   6.656574
    46  H    6.262765   6.262769   5.662549   5.295149   7.451266
    47  N    4.909141   4.909143   3.794449   2.991764   4.950433
                   26         27         28         29         30
    26  H    0.000000
    27  H    6.363362   0.000000
    28  H    9.002949   6.341299   0.000000
    29  H    9.497685   8.532326   2.715809   0.000000
    30  H    8.571085   9.487620   4.941760   2.668270   0.000000
    31  H    4.913833   9.390628   8.432874   7.435199   5.332980
    32  H    2.631970   8.432877   9.390620   9.113490   7.502395
    33  H    2.701987   4.941759   9.487604  10.669605  10.343906
    34  H    4.920743   2.715806   8.532318  10.317272  10.669614
    35  H    8.440454   2.623227   4.875216   7.479801   9.114742
    36  H    9.395429   4.875220   2.623222   5.336030   7.452069
    37  Fe   4.470657   4.534381   4.534376   5.343886   5.328610
    38  O    4.829178   4.790612   4.790612   5.578537   5.599514
    39  C    4.775271   6.137655   6.137680   6.455545   5.959471
    40  C    6.068340   4.945379   4.945358   6.032091   6.453492
    41  C    6.521708   6.007015   6.007017   6.809157   7.010204
    42  N    5.777332   6.659142   6.659170   7.039556   6.710541
    43  H    6.137415   7.548931   7.548973   7.733841   7.196225
    44  H    4.218062   6.739521   6.739560   6.759707   5.846712
    45  H    6.656646   4.364476   4.364417   5.891315   6.736177
    46  H    7.451331   6.537276   6.537275   7.410314   7.768396
    47  N    4.950466   5.065940   5.065938   5.797501   5.762121
                   31         32         33         34         35
    31  H    0.000000
    32  H    2.691946   0.000000
    33  H    7.502387   5.332972   0.000000
    34  H    9.113492   7.435198   2.668272   0.000000
    35  H   10.450214  10.101409   7.452067   5.336031   0.000000
    36  H   10.101407  10.450208   9.114731   7.479798   2.662931
    37  Fe   5.171105   5.171103   5.328599   5.343883   5.282004
    38  O    5.518017   5.518000   5.599455   5.578501   5.443709
    39  C    5.020224   5.020232   5.959477   6.455536   7.057603
    40  C    6.871577   6.871600   6.453569   6.032155   5.351065
    41  C    7.149753   7.149775   7.010271   6.809201   6.501276
    42  N    6.070677   6.070690   6.710564   7.039555   7.457438
    43  H    6.216825   6.216834   7.196232   7.733821   8.418189
    44  H    4.057302   4.057295   5.846677   6.759666   7.824811
    45  H    7.649268   7.649295   6.736282   5.891420   4.401260
    46  H    8.119093   8.119118   7.768476   7.410369   6.874522
    47  N    5.565514   5.565527   5.762157   5.797527   5.798493
                   36         37         38         39         40
    36  H    0.000000
    37  Fe   5.282001   0.000000
    38  O    5.443704   1.778330   0.000000
    39  C    7.057616   3.060004   4.775753   0.000000
    40  C    5.351063   3.161459   4.862476   2.145094   0.000000
    41  C    6.501284   4.289613   6.049634   2.187816   1.343609
    42  N    7.457454   4.220303   5.984007   1.329917   2.162788
    43  H    8.418211   5.106567   6.843499   2.072832   3.129571
    44  H    7.824828   3.267312   4.792728   1.067214   3.184277
    45  H    4.401242   3.347747   4.850562   3.158617   1.066019
    46  H    6.874530   5.303293   7.043022   3.202051   2.205151
    47  N    5.798496   2.111746   3.889882   1.304289   1.381162
                   41         42         43         44         45
    41  C    0.000000
    42  N    1.373091   0.000000
    43  H    2.122066   0.995830   0.000000
    44  H    3.211371   2.113732   2.495386   0.000000
    45  H    2.172518   3.207782   4.151236   4.159903   0.000000
    46  H    1.067639   2.145325   2.541487   4.179500   2.719220
    47  N    2.224494   2.170760   3.123378   2.112717   2.147693
                   46         47
    46  H    0.000000
    47  N    3.275743   0.000000
 Stoichiometry    C23H16FeN6O(1+,4)
 Framework group  C1[X(C23H16FeN6O)]
 Deg. of freedom   135
 Full point group                 C1      NOp   1
 Largest Abelian subgroup         C1      NOp   1
 Largest concise Abelian subgroup C1      NOp   1
                         Standard orientation:                         
 ---------------------------------------------------------------------
 Center     Atomic      Atomic             Coordinates (Angstroms)
 Number     Number       Type             X           Y           Z
 ---------------------------------------------------------------------
      1          6           0        2.456806   -2.347793   -0.548736
      2          6           0       -2.456652   -2.347950   -0.548751
      3          6           0       -2.437864    2.451893   -0.377988
      4          6           0        2.437695    2.452048   -0.378041
      5          6           0        2.934402    1.124078   -0.379974
      6          6           0        4.320408    0.723471   -0.465272
      7          6           0        4.327408   -0.622967   -0.512381
      8          6           0        2.927097   -1.055040   -0.455168
      9          7           0        2.140141    0.038012   -0.350170
     10          6           0        1.090623   -2.806409   -0.570486
     11          6           0        0.694152   -4.142357   -0.624038
     12          6           0       -0.693885   -4.142401   -0.624045
     13          6           0       -1.090443   -2.806477   -0.570497
     14          7           0        0.000066   -2.001019   -0.531767
     15          6           0       -2.927028   -1.055225   -0.455163
     16          6           0       -4.327368   -0.623249   -0.512383
     17          6           0       -4.320460    0.723189   -0.465248
     18          6           0       -2.934482    1.123890   -0.379930
     19          7           0       -2.140148    0.037874   -0.350133
     20          6           0       -1.091885    2.872053   -0.385788
     21          6           0       -0.667130    4.267605   -0.419188
     22          6           0        0.666841    4.267649   -0.419207
     23          6           0        1.091684    2.872117   -0.385819
     24          7           0       -0.000072    2.072320   -0.360814
     25          1           0        3.198252   -3.122019   -0.629894
     26          1           0       -3.198048   -3.122221   -0.629930
     27          1           0       -3.170762    3.237138   -0.405921
     28          1           0        3.170537    3.237344   -0.405990
     29          1           0        5.158588    1.389504   -0.499584
     30          1           0        5.171996   -1.277092   -0.593140
     31          1           0        1.346133   -4.991623   -0.668702
     32          1           0       -1.345813   -4.991708   -0.668716
     33          1           0       -5.171910   -1.277430   -0.593164
     34          1           0       -5.158684    1.389167   -0.499558
     35          1           0       -1.331636    5.107245   -0.446416
     36          1           0        1.331295    5.107328   -0.446457
     37         26           0       -0.000004   -0.004140   -0.437930
     38          8           0       -0.000031    0.132603   -2.210995
     39          6           0        0.000038   -1.226788    2.367200
     40          6           0        0.000013    0.906760    2.589459
     41          6           0        0.000023    0.397544    3.832835
     42          7           0        0.000038   -0.966012    3.671299
     43          1           0        0.000049   -1.648227    4.396737
     44          1           0        0.000049   -2.216048    1.966813
     45          1           0        0.000001    1.930978    2.293869
     46          1           0        0.000021    0.861995    4.794156
     47          7           0        0.000021   -0.124228    1.670399
 ---------------------------------------------------------------------
 Rotational constants (GHZ):      0.1889395      0.1857114      0.1304366
 Standard basis: 6-31G(d) (6D, 7F)
 AO basis set (Overlap normalization):
 Atom C1       Shell     1 S   6     bf    1 -     1          4.642691284454         -4.436685204364         -1.036960675801
      0.3047524880D+04  0.1834737132D-02
      0.4573695180D+03  0.1403732281D-01
      0.1039486850D+03  0.6884262226D-01
      0.2921015530D+02  0.2321844432D+00
      0.9286662960D+01  0.4679413484D+00
      0.3163926960D+01  0.3623119853D+00
 Atom C1       Shell     2 SP   3    bf    2 -     5          4.642691284454         -4.436685204364         -1.036960675801
      0.7868272350D+01 -0.1193324198D+00  0.6899906659D-01
      0.1881288540D+01 -0.1608541517D+00  0.3164239610D+00
      0.5442492580D+00  0.1143456438D+01  0.7443082909D+00
 Atom C1       Shell     3 SP   1    bf    6 -     9          4.642691284454         -4.436685204364         -1.036960675801
      0.1687144782D+00  0.1000000000D+01  0.1000000000D+01
 Atom C1       Shell     4 D   1     bf   10 -    15          4.642691284454         -4.436685204364         -1.036960675801
      0.8000000000D+00  0.1000000000D+01
 Atom C2       Shell     5 S   6     bf   16 -    16         -4.642398696166         -4.436982850840         -1.036989499540
      0.3047524880D+04  0.1834737132D-02
      0.4573695180D+03  0.1403732281D-01
      0.1039486850D+03  0.6884262226D-01
      0.2921015530D+02  0.2321844432D+00
      0.9286662960D+01  0.4679413484D+00
      0.3163926960D+01  0.3623119853D+00
 Atom C2       Shell     6 SP   3    bf   17 -    20         -4.642398696166         -4.436982850840         -1.036989499540
      0.7868272350D+01 -0.1193324198D+00  0.6899906659D-01
      0.1881288540D+01 -0.1608541517D+00  0.3164239610D+00
      0.5442492580D+00  0.1143456438D+01  0.7443082909D+00
 Atom C2       Shell     7 SP   1    bf   21 -    24         -4.642398696166         -4.436982850840         -1.036989499540
      0.1687144782D+00  0.1000000000D+01  0.1000000000D+01
 Atom C2       Shell     8 D   1     bf   25 -    30         -4.642398696166         -4.436982850840         -1.036989499540
      0.8000000000D+00  0.1000000000D+01
 Atom C3       Shell     9 S   6     bf   31 -    31         -4.606895911718          4.633405829236         -0.714293993977
      0.3047524880D+04  0.1834737132D-02
      0.4573695180D+03  0.1403732281D-01
      0.1039486850D+03  0.6884262226D-01
      0.2921015530D+02  0.2321844432D+00
      0.9286662960D+01  0.4679413484D+00
      0.3163926960D+01  0.3623119853D+00
 Atom C3       Shell    10 SP   3    bf   32 -    35         -4.606895911718          4.633405829236         -0.714293993977
      0.7868272350D+01 -0.1193324198D+00  0.6899906659D-01
      0.1881288540D+01 -0.1608541517D+00  0.3164239610D+00
      0.5442492580D+00  0.1143456438D+01  0.7443082909D+00
 Atom C3       Shell    11 SP   1    bf   36 -    39         -4.606895911718          4.633405829236         -0.714293993977
      0.1687144782D+00  0.1000000000D+01  0.1000000000D+01
 Atom C3       Shell    12 D   1     bf   40 -    45         -4.606895911718          4.633405829236         -0.714293993977
      0.8000000000D+00  0.1000000000D+01
 Atom C4       Shell    13 S   6     bf   46 -    46          4.606575338046          4.633699820719         -0.714393675796
      0.3047524880D+04  0.1834737132D-02
      0.4573695180D+03  0.1403732281D-01
      0.1039486850D+03  0.6884262226D-01
      0.2921015530D+02  0.2321844432D+00
      0.9286662960D+01  0.4679413484D+00
      0.3163926960D+01  0.3623119853D+00
 Atom C4       Shell    14 SP   3    bf   47 -    50          4.606575338046          4.633699820719         -0.714393675796
      0.7868272350D+01 -0.1193324198D+00  0.6899906659D-01
      0.1881288540D+01 -0.1608541517D+00  0.3164239610D+00
      0.5442492580D+00  0.1143456438D+01  0.7443082909D+00
 Atom C4       Shell    15 SP   1    bf   51 -    54          4.606575338046          4.633699820719         -0.714393675796
      0.1687144782D+00  0.1000000000D+01  0.1000000000D+01
 Atom C4       Shell    16 D   1     bf   55 -    60          4.606575338046          4.633699820719         -0.714393675796
      0.8000000000D+00  0.1000000000D+01
 Atom C5       Shell    17 S   6     bf   61 -    61          5.545216357833          2.124200283008         -0.718046523418
      0.3047524880D+04  0.1834737132D-02
      0.4573695180D+03  0.1403732281D-01
      0.1039486850D+03  0.6884262226D-01
      0.2921015530D+02  0.2321844432D+00
      0.9286662960D+01  0.4679413484D+00
      0.3163926960D+01  0.3623119853D+00
 Atom C5       Shell    18 SP   3    bf   62 -    65          5.545216357833          2.124200283008         -0.718046523418
      0.7868272350D+01 -0.1193324198D+00  0.6899906659D-01
      0.1881288540D+01 -0.1608541517D+00  0.3164239610D+00
      0.5442492580D+00  0.1143456438D+01  0.7443082909D+00
 Atom C5       Shell    19 SP   1    bf   66 -    69          5.545216357833          2.124200283008         -0.718046523418
      0.1687144782D+00  0.1000000000D+01  0.1000000000D+01
 Atom C5       Shell    20 D   1     bf   70 -    75          5.545216357833          2.124200283008         -0.718046523418
      0.8000000000D+00  0.1000000000D+01
 Atom C6       Shell    21 S   6     bf   76 -    76          8.164388548616          1.367161489924         -0.879236264646
      0.3047524880D+04  0.1834737132D-02
      0.4573695180D+03  0.1403732281D-01
      0.1039486850D+03  0.6884262226D-01
      0.2921015530D+02  0.2321844432D+00
      0.9286662960D+01  0.4679413484D+00
      0.3163926960D+01  0.3623119853D+00
 Atom C6       Shell    22 SP   3    bf   77 -    80          8.164388548616          1.367161489924         -0.879236264646
      0.7868272350D+01 -0.1193324198D+00  0.6899906659D-01
      0.1881288540D+01 -0.1608541517D+00  0.3164239610D+00
      0.5442492580D+00  0.1143456438D+01  0.7443082909D+00
 Atom C6       Shell    23 SP   1    bf   81 -    84          8.164388548616          1.367161489924         -0.879236264646
      0.1687144782D+00  0.1000000000D+01  0.1000000000D+01
 Atom C6       Shell    24 D   1     bf   85 -    90          8.164388548616          1.367161489924         -0.879236264646
      0.8000000000D+00  0.1000000000D+01
 Atom C7       Shell    25 S   6     bf   91 -    91          8.177615499869         -1.177237617895         -0.968259428854
      0.3047524880D+04  0.1834737132D-02
      0.4573695180D+03  0.1403732281D-01
      0.1039486850D+03  0.6884262226D-01
      0.2921015530D+02  0.2321844432D+00
      0.9286662960D+01  0.4679413484D+00
      0.3163926960D+01  0.3623119853D+00
 Atom C7       Shell    26 SP   3    bf   92 -    95          8.177615499869         -1.177237617895         -0.968259428854
      0.7868272350D+01 -0.1193324198D+00  0.6899906659D-01
      0.1881288540D+01 -0.1608541517D+00  0.3164239610D+00
      0.5442492580D+00  0.1143456438D+01  0.7443082909D+00
 Atom C7       Shell    27 SP   1    bf   96 -    99          8.177615499869         -1.177237617895         -0.968259428854
      0.1687144782D+00  0.1000000000D+01  0.1000000000D+01
 Atom C7       Shell    28 D   1     bf  100 -   105          8.177615499869         -1.177237617895         -0.968259428854
      0.8000000000D+00  0.1000000000D+01
 Atom C8       Shell    29 S   6     bf  106 -   106          5.531411527617         -1.993735901874         -0.860142680796
      0.3047524880D+04  0.1834737132D-02
      0.4573695180D+03  0.1403732281D-01
      0.1039486850D+03  0.6884262226D-01
      0.2921015530D+02  0.2321844432D+00
      0.9286662960D+01  0.4679413484D+00
      0.3163926960D+01  0.3623119853D+00
 Atom C8       Shell    30 SP   3    bf  107 -   110          5.531411527617         -1.993735901874         -0.860142680796
      0.7868272350D+01 -0.1193324198D+00  0.6899906659D-01
      0.1881288540D+01 -0.1608541517D+00  0.3164239610D+00
      0.5442492580D+00  0.1143456438D+01  0.7443082909D+00
 Atom C8       Shell    31 SP   1    bf  111 -   114          5.531411527617         -1.993735901874         -0.860142680796
      0.1687144782D+00  0.1000000000D+01  0.1000000000D+01
 Atom C8       Shell    32 D   1     bf  115 -   120          5.531411527617         -1.993735901874         -0.860142680796
      0.8000000000D+00  0.1000000000D+01
 Atom N9       Shell    33 S   6     bf  121 -   121          4.044280404474          0.071832104459         -0.661725248571
      0.4173511460D+04  0.1834772160D-02
      0.6274579110D+03  0.1399462700D-01
      0.1429020930D+03  0.6858655181D-01
      0.4023432930D+02  0.2322408730D+00
      0.1282021290D+02  0.4690699481D+00
      0.4390437010D+01  0.3604551991D+00
 Atom N9       Shell    34 SP   3    bf  122 -   125          4.044280404474          0.071832104459         -0.661725248571
      0.1162636186D+02 -0.1149611817D+00  0.6757974388D-01
      0.2716279807D+01 -0.1691174786D+00  0.3239072959D+00
      0.7722183966D+00  0.1145851947D+01  0.7408951398D+00
 Atom N9       Shell    35 SP   1    bf  126 -   129          4.044280404474          0.071832104459         -0.661725248571
      0.2120314975D+00  0.1000000000D+01  0.1000000000D+01
 Atom N9       Shell    36 D   1     bf  130 -   135          4.044280404474          0.071832104459         -0.661725248571
      0.8000000000D+00  0.1000000000D+01
 Atom C10      Shell    37 S   6     bf  136 -   136          2.060977884437         -5.303344521388         -1.078062371740
      0.3047524880D+04  0.1834737132D-02
      0.4573695180D+03  0.1403732281D-01
      0.1039486850D+03  0.6884262226D-01
      0.2921015530D+02  0.2321844432D+00
      0.9286662960D+01  0.4679413484D+00
      0.3163926960D+01  0.3623119853D+00
 Atom C10      Shell    38 SP   3    bf  137 -   140          2.060977884437         -5.303344521388         -1.078062371740
      0.7868272350D+01 -0.1193324198D+00  0.6899906659D-01
      0.1881288540D+01 -0.1608541517D+00  0.3164239610D+00
      0.5442492580D+00  0.1143456438D+01  0.7443082909D+00
 Atom C10      Shell    39 SP   1    bf  141 -   144          2.060977884437         -5.303344521388         -1.078062371740
      0.1687144782D+00  0.1000000000D+01  0.1000000000D+01
 Atom C10      Shell    40 D   1     bf  145 -   150          2.060977884437         -5.303344521388         -1.078062371740
      0.8000000000D+00  0.1000000000D+01
 Atom C11      Shell    41 S   6     bf  151 -   151          1.311757067583         -7.827920800672         -1.179261079550
      0.3047524880D+04  0.1834737132D-02
      0.4573695180D+03  0.1403732281D-01
      0.1039486850D+03  0.6884262226D-01
      0.2921015530D+02  0.2321844432D+00
      0.9286662960D+01  0.4679413484D+00
      0.3163926960D+01  0.3623119853D+00
 Atom C11      Shell    42 SP   3    bf  152 -   155          1.311757067583         -7.827920800672         -1.179261079550
      0.7868272350D+01 -0.1193324198D+00  0.6899906659D-01
      0.1881288540D+01 -0.1608541517D+00  0.3164239610D+00
      0.5442492580D+00  0.1143456438D+01  0.7443082909D+00
 Atom C11      Shell    43 SP   1    bf  156 -   159          1.311757067583         -7.827920800672         -1.179261079550
      0.1687144782D+00  0.1000000000D+01  0.1000000000D+01
 Atom C11      Shell    44 D   1     bf  160 -   165          1.311757067583         -7.827920800672         -1.179261079550
      0.8000000000D+00  0.1000000000D+01
 Atom C12      Shell    45 S   6     bf  166 -   166         -1.311252723418         -7.828002653936         -1.179274443024
      0.3047524880D+04  0.1834737132D-02
      0.4573695180D+03  0.1403732281D-01
      0.1039486850D+03  0.6884262226D-01
      0.2921015530D+02  0.2321844432D+00
      0.9286662960D+01  0.4679413484D+00
      0.3163926960D+01  0.3623119853D+00
 Atom C12      Shell    46 SP   3    bf  167 -   170         -1.311252723418         -7.828002653936         -1.179274443024
      0.7868272350D+01 -0.1193324198D+00  0.6899906659D-01
      0.1881288540D+01 -0.1608541517D+00  0.3164239610D+00
      0.5442492580D+00  0.1143456438D+01  0.7443082909D+00
[...]
    26   Atom        0.042322     -0.037444     -0.004878
    27   Atom       -0.049795      0.053105     -0.003310
    28   Atom        0.053030     -0.049868     -0.003163
    29   Atom        0.012113     -0.010008     -0.002106
    30   Atom        0.027370     -0.024875     -0.002494
    31   Atom       -0.002760      0.007843     -0.005083
    32   Atom        0.009055     -0.003862     -0.005193
    33   Atom       -0.020294      0.022763     -0.002468
    34   Atom       -0.016031      0.018406     -0.002375
    35   Atom        0.007708     -0.005979     -0.001729
    36   Atom       -0.004046      0.005876     -0.001830
    37   Atom       -1.167424      0.171373      0.996051
    38   Atom        3.179281     -1.470191     -1.709090
    39   Atom       -0.011435      0.004262      0.007173
    40   Atom       -0.009035     -0.001183      0.010218
    41   Atom       -0.000212     -0.010306      0.010517
    42   Atom       -0.003341     -0.001211      0.004552
    43   Atom       -0.002059     -0.002212      0.004270
    44   Atom       -0.000839     -0.006362      0.007201
    45   Atom       -0.000986     -0.006895      0.007881
    46   Atom       -0.001377     -0.001955      0.003332
    47   Atom       -0.006236     -0.021233      0.027469
 --------------------------------------------------------
                        XY            XZ            YZ
 --------------------------------------------------------
     1   Atom        0.007738     -0.027491     -0.025371
     2   Atom       -0.005044     -0.065822     -0.017703
     3   Atom        0.009992     -0.004673     -0.005802
     4   Atom       -0.009610      0.053925     -0.018155
     5   Atom       -0.007609     -0.024562      0.013794
     6   Atom       -0.009720      0.011077     -0.014510
     7   Atom       -0.006163     -0.013982      0.020133
     8   Atom        0.003742      0.008452      0.015237
     9   Atom       -0.004424      0.033684     -0.065559
    10   Atom        0.007091      0.002989      0.003015
    11   Atom        0.004718     -0.010327     -0.002600
    12   Atom        0.004369     -0.004219      0.000553
    13   Atom        0.001578     -0.000520     -0.000554
    14   Atom        0.012458     -0.047552     -0.026754
    15   Atom       -0.005584      0.028774      0.011044
    16   Atom        0.000061      0.040571      0.004386
    17   Atom       -0.016580     -0.026069     -0.000170
    18   Atom        0.010120      0.028487      0.000834
    19   Atom        0.012798     -0.105699      0.013758
    20   Atom        0.006832     -0.022729     -0.001271
    21   Atom        0.004303     -0.007534      0.002301
    22   Atom        0.013809     -0.003176      0.002989
    23   Atom       -0.006027     -0.044896      0.013332
    24   Atom        0.011154      0.097179      0.009926
    25   Atom        0.015270     -0.000746      0.000366
    26   Atom       -0.016150      0.001680     -0.001762
    27   Atom        0.020136      0.000315      0.001718
    28   Atom       -0.019094     -0.001345     -0.000157
    29   Atom       -0.012705     -0.000120     -0.000710
    30   Atom       -0.003770     -0.000329     -0.001718
    31   Atom        0.009722     -0.000289     -0.000008
    32   Atom        0.004438      0.000120      0.000072
    33   Atom        0.015024     -0.001964      0.002030
    34   Atom       -0.001849     -0.001383      0.000921
    35   Atom       -0.004033      0.000330      0.001054
    36   Atom        0.001327      0.001290      0.000514
    37   Atom       -0.018576     -0.541428      0.400466
    38   Atom        0.042021      0.168501      0.037953
    39   Atom       -0.008713     -0.005023      0.000552
    40   Atom       -0.002702      0.007382      0.002445
    41   Atom        0.003653      0.001181     -0.000282
    42   Atom       -0.000524     -0.002316      0.000919
    43   Atom        0.000227     -0.001272     -0.000431
    44   Atom        0.001496     -0.007031     -0.002801
    45   Atom       -0.000257      0.010250      0.003505
    46   Atom        0.000170      0.000803      0.000168
    47   Atom        0.005849      0.004621     -0.006485
 --------------------------------------------------------


 ---------------------------------------------------------------------------------
              Anisotropic Spin Dipole Couplings in Principal Axis System
 ---------------------------------------------------------------------------------

       Atom             a.u.   MegaHertz   Gauss  10(-4) cm-1        Axes

              Baa    -0.2691   -36.109   -12.885   -12.045  0.9827 -0.1828  0.0292
     1 C(13)  Bbb    -0.2312   -31.020   -11.069   -10.347  0.1816  0.9825  0.0410
              Bcc     0.5003    67.129    23.953    22.392 -0.0361 -0.0350  0.9987
 
              Baa    -0.2609   -35.008   -12.492   -11.677  0.1811  0.9827  0.0397
     2 C(13)  Bbb    -0.2240   -30.059   -10.726   -10.026  0.9791 -0.1839  0.0871
              Bcc     0.4849    65.066    23.217    21.704 -0.0929 -0.0231  0.9954
 
              Baa    -0.3624   -48.627   -17.351   -16.220  0.9814 -0.1919  0.0034
     3 C(13)  Bbb    -0.3095   -41.528   -14.818   -13.852  0.1919  0.9814  0.0067
              Bcc     0.6718    90.155    32.170    30.073 -0.0046 -0.0059  1.0000
 
              Baa    -0.3609   -48.428   -17.280   -16.154  0.1711  0.9852  0.0084
     4 C(13)  Bbb    -0.3097   -41.557   -14.829   -13.862  0.9837 -0.1703 -0.0575
              Bcc     0.6706    89.986    32.109    30.016  0.0552 -0.0181  0.9983
 
              Baa    -0.5223   -70.085   -25.008   -23.378  0.0305 -0.0177  0.9994
     5 C(13)  Bbb     0.2423    32.520    11.604    10.848  0.2193  0.9756  0.0106
              Bcc     0.2799    37.564    13.404    12.530  0.9752 -0.2189 -0.0337
 
              Baa    -0.1355   -18.187    -6.490    -6.066  0.9442  0.3291 -0.0151
     6 C(13)  Bbb    -0.1057   -14.184    -5.061    -4.731 -0.3280  0.9434  0.0501
              Bcc     0.2412    32.371    11.551    10.798  0.0307 -0.0423  0.9986
 
              Baa    -0.3741   -50.196   -17.911   -16.744  0.0242 -0.0361  0.9991
     7 C(13)  Bbb     0.1776    23.827     8.502     7.948  0.3802  0.9246  0.0242
              Bcc     0.1965    26.369     9.409     8.796  0.9246 -0.3793 -0.0361
 
              Baa    -0.2771   -37.183   -13.268   -12.403 -0.0207 -0.0353  0.9992
     8 C(13)  Bbb     0.1243    16.675     5.950     5.562  0.9895 -0.1435  0.0154
              Bcc     0.1528    20.509     7.318     6.841  0.1428  0.9890  0.0379
 
              Baa    -0.4585   -17.683    -6.310    -5.898  0.8394  0.5435  0.0054
     9 N(14)  Bbb    -0.4524   -17.446    -6.225    -5.820 -0.5429  0.8381  0.0539
              Bcc     0.9109    35.130    12.535    11.718  0.0248 -0.0481  0.9985
 
              Baa    -0.0441    -5.923    -2.113    -1.976 -0.0446 -0.0378  0.9983
    10 C(13)  Bbb     0.0132     1.767     0.631     0.590  0.8898 -0.4558  0.0225
              Bcc     0.0310     4.155     1.483     1.386  0.4542  0.8893  0.0540
 
              Baa    -0.0552    -7.413    -2.645    -2.473 -0.7015  0.7119 -0.0346
    11 C(13)  Bbb    -0.0462    -6.198    -2.212    -2.067  0.7094  0.7021  0.0623
              Bcc     0.1014    13.611     4.857     4.540 -0.0686 -0.0192  0.9975
 
              Baa    -0.0272    -3.650    -1.302    -1.218 -0.5369  0.8428 -0.0381
    12 C(13)  Bbb    -0.0175    -2.350    -0.838    -0.784  0.8412  0.5382  0.0525
              Bcc     0.0447     6.000     2.141     2.001 -0.0648  0.0039  0.9979
 
              Baa    -0.0129    -1.733    -0.618    -0.578 -0.0634  0.9973  0.0368
    13 C(13)  Bbb     0.0012     0.160     0.057     0.053  0.0549 -0.0333  0.9979
              Bcc     0.0117     1.574     0.562     0.525  0.9965  0.0653 -0.0526
 
              Baa    -0.1250    -4.821    -1.720    -1.608 -0.4224  0.9063  0.0121
    14 N(14)  Bbb    -0.1027    -3.963    -1.414    -1.322  0.8945  0.4147  0.1670
              Bcc     0.2278     8.784     3.134     2.930 -0.1463 -0.0814  0.9859
 
              Baa    -0.2533   -33.992   -12.129   -11.338 -0.0756 -0.0304  0.9967
    15 C(13)  Bbb     0.1206    16.180     5.773     5.397  0.4281  0.9017  0.0600
              Bcc     0.1327    17.812     6.356     5.942  0.9005 -0.4313  0.0551
 
              Baa    -0.3730   -50.051   -17.859   -16.695 -0.0736 -0.0077  0.9973
    16 C(13)  Bbb     0.1800    24.148     8.617     8.055  0.9969 -0.0293  0.0733
              Bcc     0.1930    25.902     9.243     8.640  0.0287  0.9995  0.0099
 
              Baa    -0.1389   -18.635    -6.650    -6.216  0.6427  0.7648  0.0443
    17 C(13)  Bbb    -0.1053   -14.128    -5.041    -4.713  0.7627 -0.6442  0.0569
              Bcc     0.2442    32.764    11.691    10.929 -0.0721  0.0028  0.9974
 
              Baa    -0.5215   -69.979   -24.970   -23.342 -0.0377 -0.0006  0.9993
    18 C(13)  Bbb     0.2331    31.275    11.160    10.432  0.9818 -0.1865  0.0369
              Bcc     0.2884    38.704    13.811    12.910  0.1864  0.9825  0.0076
 
              Baa    -0.4837   -18.656    -6.657    -6.223  0.8963 -0.4376  0.0716
    19 N(14)  Bbb    -0.4487   -17.304    -6.174    -5.772  0.4370  0.8991  0.0246
              Bcc     0.9324    35.960    12.831    11.995 -0.0751  0.0092  0.9971
 
              Baa    -0.5229   -70.165   -25.037   -23.405  0.0296  0.0013  0.9996
    20 C(13)  Bbb     0.2426    32.554    11.616    10.859  0.9822 -0.1855 -0.0289
              Bcc     0.2803    37.611    13.420    12.546  0.1853  0.9827 -0.0068
 
              Baa    -0.0956   -12.826    -4.577    -4.278  0.0485 -0.0194  0.9986
    21 C(13)  Bbb     0.0333     4.467     1.594     1.490 -0.1449  0.9891  0.0262
              Bcc     0.0623     8.359     2.983     2.788  0.9883  0.1459 -0.0452
 
              Baa    -0.0566    -7.598    -2.711    -2.534  0.0485 -0.0392  0.9981
    22 C(13)  Bbb     0.0123     1.652     0.589     0.551  0.8701 -0.4891 -0.0615
              Bcc     0.0443     5.946     2.122     1.983  0.4905  0.8714  0.0104
 
              Baa    -0.5261   -70.603   -25.193   -23.551  0.0554 -0.0169  0.9983
    23 C(13)  Bbb     0.2412    32.366    11.549    10.796  0.1571  0.9876  0.0080
              Bcc     0.2849    38.236    13.644    12.754  0.9860 -0.1564 -0.0573
 
              Baa    -0.4805   -18.533    -6.613    -6.182 -0.4608  0.8871  0.0255
    24 N(14)  Bbb    -0.4550   -17.550    -6.262    -5.854  0.8847  0.4614 -0.0654
              Bcc     0.9356    36.083    12.875    12.036  0.0698  0.0076  0.9975
 
              Baa    -0.0415   -22.139    -7.900    -7.385  0.9841 -0.1763  0.0219
    25 H(1)   Bbb    -0.0050    -2.686    -0.958    -0.896 -0.0223 -0.0005  0.9998
              Bcc     0.0465    24.825     8.858     8.281  0.1762  0.9843  0.0044
 
              Baa    -0.0406   -21.686    -7.738    -7.234  0.1902  0.9810  0.0394
    26 H(1)   Bbb    -0.0049    -2.615    -0.933    -0.872 -0.0462 -0.0312  0.9984
              Bcc     0.0455    24.301     8.671     8.106  0.9807 -0.1917  0.0394
 
              Baa    -0.0536   -28.596   -10.204    -9.539  0.9827 -0.1854  0.0002
    27 H(1)   Bbb    -0.0034    -1.793    -0.640    -0.598 -0.0055 -0.0284  0.9996
              Bcc     0.0570    30.389    10.843    10.137  0.1854  0.9822  0.0290
 
              Baa    -0.0533   -28.438   -10.147    -9.486  0.1768  0.9842  0.0078
    28 H(1)   Bbb    -0.0032    -1.701    -0.607    -0.567  0.0200 -0.0115  0.9997
              Bcc     0.0565    30.139    10.754    10.053  0.9840 -0.1766 -0.0217
 
              Baa    -0.0158    -8.445    -3.013    -2.817  0.4136  0.9091  0.0506
    29 H(1)   Bbb    -0.0021    -1.106    -0.395    -0.369 -0.0294 -0.0422  0.9987
              Bcc     0.0179     9.550     3.408     3.186  0.9100 -0.4145  0.0093
 
              Baa    -0.0253   -13.487    -4.813    -4.499  0.0717  0.9945  0.0760
    30 H(1)   Bbb    -0.0024    -1.261    -0.450    -0.421  0.0013 -0.0763  0.9971
              Bcc     0.0276    14.748     5.263     4.920  0.9974 -0.0714 -0.0068
 
              Baa    -0.0085    -4.561    -1.628    -1.521  0.8580 -0.5088  0.0703
    31 H(1)   Bbb    -0.0051    -2.703    -0.965    -0.902 -0.0562  0.0430  0.9975
              Bcc     0.0136     7.265     2.592     2.423  0.5106  0.8598 -0.0083
 
              Baa    -0.0053    -2.805    -1.001    -0.936 -0.2585  0.8461 -0.4661
    32 H(1)   Bbb    -0.0052    -2.762    -0.986    -0.921 -0.1456  0.4429  0.8847
              Bcc     0.0104     5.567     1.986     1.857  0.9550  0.2965  0.0087
 
              Baa    -0.0253   -13.493    -4.815    -4.501  0.9475 -0.3008  0.1083
    33 H(1)   Bbb    -0.0023    -1.205    -0.430    -0.402 -0.1168 -0.0104  0.9931
              Bcc     0.0275    14.698     5.245     4.903  0.2976  0.9536  0.0450
 
              Baa    -0.0163    -8.674    -3.095    -2.893  0.9941  0.0505  0.0957
    34 H(1)   Bbb    -0.0023    -1.224    -0.437    -0.408 -0.0931 -0.0526  0.9943
              Bcc     0.0186     9.899     3.532     3.302 -0.0552  0.9973  0.0475
 
              Baa    -0.0073    -3.894    -1.389    -1.299  0.2586  0.9462 -0.1945
    35 H(1)   Bbb    -0.0015    -0.806    -0.288    -0.269  0.0474  0.1886  0.9809
              Bcc     0.0088     4.700     1.677     1.568  0.9648 -0.2628  0.0040
 
              Baa    -0.0047    -2.526    -0.901    -0.842  0.9158 -0.0957 -0.3900
    36 H(1)   Bbb    -0.0014    -0.734    -0.262    -0.245  0.3764 -0.1339  0.9167
              Bcc     0.0061     3.260     1.163     1.087  0.1399  0.9864  0.0866
 
              Baa    -1.2993   -22.494    -8.026    -7.503  0.9699 -0.0525  0.2379
    37 Fe(57) Bbb     0.0332     0.574     0.205     0.192  0.1289  0.9392 -0.3181
              Bcc     1.2661    21.919     7.821     7.311 -0.2068  0.3392  0.9177
 
              Baa    -1.7202   124.474    44.415    41.520 -0.0328 -0.1446  0.9889
    38 O(17)  Bbb    -1.4653   106.025    37.832    35.366 -0.0142  0.9894  0.1442
              Bcc     3.1855  -230.499   -82.248   -76.886  0.9994  0.0093  0.0345
 
              Baa    -0.0161    -2.166    -0.773    -0.722  0.9054  0.3816  0.1861
    39 C(13)  Bbb     0.0056     0.747     0.266     0.249  0.1486 -0.6953  0.7032
              Bcc     0.0106     1.419     0.506     0.473 -0.3977  0.6090  0.6862
 
              Baa    -0.0125    -1.682    -0.600    -0.561  0.9025  0.2845 -0.3234
    40 C(13)  Bbb    -0.0003    -0.046    -0.016    -0.015 -0.3035  0.9528 -0.0085
              Bcc     0.0129     1.728     0.617     0.576  0.3057  0.1058  0.9462
 
              Baa    -0.0115    -1.544    -0.551    -0.515 -0.3103  0.9502  0.0288
    41 C(13)  Bbb     0.0009     0.116     0.041     0.039  0.9442  0.3116 -0.1063
              Bcc     0.0106     1.429     0.510     0.477  0.1100  0.0058  0.9939
 
              Baa    -0.0040    -0.154    -0.055    -0.051  0.9631  0.0985  0.2504
    42 N(14)  Bbb    -0.0013    -0.052    -0.019    -0.017 -0.0551  0.9831 -0.1748
              Bcc     0.0053     0.206     0.074     0.069 -0.2634  0.1546  0.9522
 
              Baa    -0.0024    -1.290    -0.460    -0.430  0.7722 -0.6264  0.1065
    43 H(1)   Bbb    -0.0021    -1.137    -0.406    -0.379  0.6060  0.7765  0.1727
              Bcc     0.0045     2.427     0.866     0.810 -0.1909 -0.0689  0.9792
 
              Baa    -0.0069    -3.693    -1.318    -1.232 -0.0387  0.9837  0.1758
    44 H(1)   Bbb    -0.0049    -2.621    -0.935    -0.874  0.8689 -0.0537  0.4920
              Bcc     0.0118     6.314     2.253     2.106 -0.4934 -0.1718  0.8527
 
              Baa    -0.0096    -5.134    -1.832    -1.712  0.5810  0.6624 -0.4729
    45 H(1)   Bbb    -0.0054    -2.856    -1.019    -0.953 -0.6138  0.7382  0.2799
              Bcc     0.0150     7.990     2.851     2.665  0.5345  0.1276  0.8355
 
              Baa    -0.0020    -1.068    -0.381    -0.356 -0.2764  0.9610  0.0114
    46 H(1)   Bbb    -0.0015    -0.784    -0.280    -0.262  0.9469  0.2743 -0.1680
              Bcc     0.0035     1.853     0.661     0.618  0.1646  0.0356  0.9857
 
              Baa    -0.0244    -0.940    -0.335    -0.314 -0.3372  0.9300  0.1464
    47 N(14)  Bbb    -0.0044    -0.169    -0.060    -0.056  0.9349  0.3491 -0.0646
              Bcc     0.0287     1.109     0.396     0.370  0.1111 -0.1151  0.9871
 

 ---------------------------------------------------------------------------------

 1\1\GINC-TC-NODE159\Scan\UHF\6-31G(d)\C23H16Fe1N6O1(1+,4)\GLASERR\26-S
 ep-2016\0\\# opt=modredundant UHF/6-31G* gfp scf=(QC,maxcycles=500) ge
 om=connectivity\\IM_Q2_scan-FEF, lengthen, 5 steps only\\1,4\C,0.01717
 52807,-0.0565263336,0.020856744\C,-0.0433472367,0.064806938,4.88871178
 98\C,4.7654897781,-0.0538163212,4.8812539295\C,4.8272970611,0.04650070
 1,0.050941556\C,3.4938854385,-0.0060150553,-0.4067914961\C,3.095373728
 5,0.0258429285,-1.7896637588\C,1.7506890906,-0.0122745435,-1.799799499
 9\C,1.3230625656,-0.0630833572,-0.4061088194\N,2.4105736391,-0.0738235
 785,0.4013759979\C,-0.4532888797,-0.0331014482,1.3688714034\C,-1.79741
 26279,0.0116078819,1.7382376839\C,-1.8176187306,0.0570290234,3.1214835
 023\C,-0.4856624,0.0361454771,3.5308255201\N,0.347160602,-0.0297771386
 ,2.4621473296\C,1.2549426145,0.0140982894,5.3274342779\C,1.6831826773,
 0.0574499124,6.7197368002\C,3.0280277935,0.0119100291,6.7098907668\C,3
 .4255737295,-0.0512578945,5.3273097506\N,2.3421736616,-0.0648658225,4.
 5194217747\C,5.211455587,-0.0279697558,3.5545891372\C,6.6117320384,0.0
 739169762,3.1587078272\C,6.6305953167,0.1166768752,1.8271118755\C,5.24
 41417056,0.0341926338,1.3877107933\N,4.4223654539,-0.0655506517,2.4578
 542288\H,-0.740217751,-0.0424952156,-0.7412636386\H,-0.810805634,0.136
 3467305,5.6375430708\H,5.5234488948,-0.0277181643,5.6418276671\H,5.595
 1585475,0.1216427662,-0.6962440041\H,3.7657339817,0.0805275616,-2.6231
 332291\H,1.0899342847,0.0049515196,-2.642740693\H,-2.63351101,0.023914
 5935,1.0683927737\H,-2.6727828106,0.1106588296,3.7648387741\H,1.024674
 723,0.1231734639,7.5620927306\H,3.7000127205,0.0335985043,7.5435805424
 \H,7.4366466108,0.1192769229,3.8403731068\H,7.4742809035,0.2040685207,
 1.1730723278\Fe,2.3468243944,-0.0318300301,2.4564256606\O,2.4516055422
 ,1.8435465683,2.4668042595\C,1.296081862,-2.8956469218,2.7573350689\C,
 3.3391898063,-3.0246269904,2.1217360248\C,2.8978900448,-4.2890693884,2
 .2315782063\N,1.5905174216,-4.1874292673,2.6399470081\H,0.9634528501,-
 4.9416680014,2.8116783732\H,0.3351383204,-2.5375626054,3.0532053864\H,
 4.3057063563,-2.683974914,1.8280448457\H,3.3749638564,-5.2290136636,2.
 0620055691\N,2.3233898609,-2.1516498113,2.4569859982\\Version=ES64L-G0
 9RevD.01\State=4-A\HF=-2543.9029728,-2543.9028698,-2543.9024857,-2543.
 9018496,-2543.900987,-2543.8999215\S2=5.60704,5.624159,5.644066,5.6630
 89,5.682964,5.702477\S2-1=0.,0.,0.,0.,0.,0.\S2A=6.578539,6.650303,6.73
 1685,6.808853,6.888003,6.964627\RMSD=0.000e+00,0.000e+00,0.000e+00,0.0
 00e+00,0.000e+00,0.000e+00\PG=C01 [X(C23H16Fe1N6O1)]\\@


     ON THE SURVIVAL OF THE FITTEST -
 "STRONG REPRESENTATIVES FROM EACH PAST ERA THRIVE TODAY,
 SUCH AS PROGRAMMING IN THE THIRTY YEAR OLD LANGUAGE KNOWN
 AS FORTRAN, AND EVEN IN THE ANCIENT SCRIPT KNOWN AS DIRECT
 MACHINE CODE. SOME PEOPLE MIGHT LOOK ON SUCH RELICS AS LIVING
 FOSSILS; OTHERS WOULD POINT OUT THAT EVEN A VERY OLD SPECIES
 MIGHT STILL BE FILLING A PARTICULAR ECOLOGICAL NICHE."
     -- ALAN KAY, SCI.AM. SEPTEMBER 1984
 Job cpu time:       3 days 12 hours 20 minutes 16.5 seconds.
 File lengths (MBytes):  RWF=    355 Int=      0 D2E=      0 Chk=     30 Scr=      1
 Normal termination of Gaussian 09 at Mon Sep 26 15:38:56 2016.
