 Entering Gaussian System, Link 0=g09
 Initial command:
 /cluster/software/gaussian/gaussian-09-D.01/g09/l1.exe "/local/scratch/epktb/Gau-4742.inp" -scrdir="/local/scratch/epktb/"
 Entering Link 1 = /cluster/software/gaussian/gaussian-09-D.01/g09/l1.exe PID=      4743.
  
 Copyright (c) 1988,1990,1992,1993,1995,1998,2003,2009,2013,
            Gaussian, Inc.  All Rights Reserved.
  
 This is part of the Gaussian(R) 09 program.  It is based on
 the Gaussian(R) 03 system (copyright 2003, Gaussian, Inc.),
 the Gaussian(R) 98 system (copyright 1998, Gaussian, Inc.),
 the Gaussian(R) 94 system (copyright 1995, Gaussian, Inc.),
 the Gaussian 92(TM) system (copyright 1992, Gaussian, Inc.),
 the Gaussian 90(TM) system (copyright 1990, Gaussian, Inc.),
 the Gaussian 88(TM) system (copyright 1988, Gaussian, Inc.),
 the Gaussian 86(TM) system (copyright 1986, Carnegie Mellon
 University), and the Gaussian 82(TM) system (copyright 1983,
 Carnegie Mellon University). Gaussian is a federally registered
 trademark of Gaussian, Inc.
  
 This software contains proprietary and confidential information,
 including trade secrets, belonging to Gaussian, Inc.
  
 This software is provided under written license and may be
 used, copied, transmitted, or stored only in accord with that
 written license.
  
 The following legend is applicable only to US Government
 contracts under FAR:
  
                    RESTRICTED RIGHTS LEGEND
  
 Use, reproduction and disclosure by the US Government is
 subject to restrictions as set forth in subparagraphs (a)
 and (c) of the Commercial Computer Software - Restricted
 Rights clause in FAR 52.227-19.
  
 Gaussian, Inc.
 340 Quinnipiac St., Bldg. 40, Wallingford CT 06492
  
  
 ---------------------------------------------------------------
 Warning -- This program may not be used in any manner that
 competes with the business of Gaussian, Inc. or will provide
 assistance to any competitor of Gaussian, Inc.  The licensee
 of this program is prohibited from giving any competitor of
 Gaussian, Inc. access to this program.  By using this program,
 the user acknowledges that Gaussian, Inc. is engaged in the
 business of creating and licensing software in the field of
 computational chemistry and represents and warrants to the
 licensee that it is not a competitor of Gaussian, Inc. and that
 it will not use this program in any manner prohibited above.
 ---------------------------------------------------------------
  

 Cite this work as:
 Gaussian 09, Revision D.01,
 M. J. Frisch, G. W. Trucks, H. B. Schlegel, G. E. Scuseria, 
 M. A. Robb, J. R. Cheeseman, G. Scalmani, V. Barone, B. Mennucci, 
 G. A. Petersson, H. Nakatsuji, M. Caricato, X. Li, H. P. Hratchian, 
 A. F. Izmaylov, J. Bloino, G. Zheng, J. L. Sonnenberg, M. Hada, 
 M. Ehara, K. Toyota, R. Fukuda, J. Hasegawa, M. Ishida, T. Nakajima, 
 Y. Honda, O. Kitao, H. Nakai, T. Vreven, J. A. Montgomery, Jr., 
 J. E. Peralta, F. Ogliaro, M. Bearpark, J. J. Heyd, E. Brothers, 
 K. N. Kudin, V. N. Staroverov, T. Keith, R. Kobayashi, J. Normand, 
 K. Raghavachari, A. Rendell, J. C. Burant, S. S. Iyengar, J. Tomasi, 
 M. Cossi, N. Rega, J. M. Millam, M. Klene, J. E. Knox, J. B. Cross, 
 V. Bakken, C. Adamo, J. Jaramillo, R. Gomperts, R. E. Stratmann, 
 O. Yazyev, A. J. Austin, R. Cammi, C. Pomelli, J. W. Ochterski, 
 R. L. Martin, K. Morokuma, V. G. Zakrzewski, G. A. Voth, 
 P. Salvador, J. J. Dannenberg, S. Dapprich, A. D. Daniels, 
 O. Farkas, J. B. Foresman, J. V. Ortiz, J. Cioslowski, 
 and D. J. Fox, Gaussian, Inc., Wallingford CT, 2013.
 
 ******************************************
 Gaussian 09:  ES64L-G09RevD.01 24-Apr-2013
                11-Oct-2016 
 ******************************************
 %rwf=/home/epktb/scratch/benzene-mp2freq/
 %int=/home/epktb/scratch/benzene-mp2freq/
 %d2e=/home/epktb/scratch/benzene-mp2freq/
 %nprocshared=8
 Will use up to    8 processors via shared memory.
 %mem=8GB
 %oldchk=benzene-mp2
 %chk=benzene-mp2freq
 Copying data from "benzene-mp2.chk" to current chk file "benzene-mp2freq.chk".
 --------------------------------------------
 #freq=(raman) mp2(full)/6-311+g** geom=check
 --------------------------------------------
 1/10=4,29=2,30=1,38=1121/1,6,3;
 2/12=2,40=1/2;
 3/5=4,6=6,7=111,11=9,14=-4,16=1,25=1,30=1,71=2,140=1/1,2,3;
 4/69=2/1;
 5/5=2,38=5,98=1/2;
 8/6=3,8=1,10=90,19=11/1;
 9/15=3,16=-3/6;
 11/6=1,8=1,15=11,17=11,24=-1,27=1,28=-2,29=300,32=6,42=3/1,2,10;
 10/6=2,21=1/2;
 8/6=4,8=1,10=90,19=11/11,4;
 10/5=1,20=4/2;
 11/12=2,14=11,16=1,28=-2,42=3/2,10,12;
 6/7=2,8=2,9=2,10=2,22=-1/1;
 7/10=1,12=2,25=1,44=2/1,2,3,16;
 1/38=1120/6(3);
 7/8=1,25=1,44=-1/16;
 1/10=4,30=1,38=1120/3;
 99//99;
 3/5=4,6=6,7=111,11=9,14=-3,16=1,25=1,30=1,71=1,140=1/1,2,3;
 4/5=5,16=3,69=2/1;
 5/5=2,38=5,98=1/2;
 8/6=3,8=1,10=90,19=11/1;
 9/15=3,16=-3/6;
 11/6=1,8=1,15=11,17=11,24=-1,27=1,28=-2,29=300,32=6,42=3/1,2,10;
 10/6=2,21=1/2;
 8/6=4,8=1,10=90,19=11/11,4;
 10/5=1,20=4/2;
 11/12=2,14=11,16=1,28=-2,42=3/2,10,12;
 6/7=2,8=2,9=2,10=2,22=-1/1;
 7/7=1,10=1,12=2,44=2/16;
 1/38=1120/6(-12);
 7/8=1,25=1,44=-1/16;
 1/10=4,30=1,38=1120/3;
 99//99;
 -----
 title
 -----
 Structure from the checkpoint file:  "benzene-mp2freq.chk"
 Charge =  0 Multiplicity = 1
 Redundant internal coordinates found in file.
 C,0,0.,0.,0.9951360108
 C,0,0.,-1.2102873011,1.6963250779
 C,0,0.,-1.2118813485,3.0955356687
 C,0,0.,0.,3.795161362
 C,0,0.,1.2118813485,3.0955356687
 C,0,0.,1.2102873011,1.6963250779
 H,0,0.,0.,-0.0877519247
 H,0,0.,-2.1498034216,1.1499018498
 H,0,0.,-2.1526021058,3.6393092145
 H,0,0.,0.,4.8816880204
 H,0,0.,2.1526021058,3.6393092145
 H,0,0.,2.1498034216,1.1499018498
 C,0,-1.3997852372,0.,-2.3959076935
 C,0,-0.6998428178,1.2118847565,-2.3964428073
 C,0,0.6998428178,1.2118847565,-2.3964428073
 C,0,1.3997852372,0.,-2.3959076935
 C,0,0.6998428178,-1.2118847565,-2.3964428073
 C,0,-0.6998428178,-1.2118847565,-2.3964428073
 H,0,-2.4861566898,0.,-2.3900346444
 H,0,-1.2430951605,2.152884311,-2.396160417
 H,0,1.2430951605,2.152884311,-2.396160417
 H,0,2.4861566898,0.,-2.3900346444
 H,0,1.2430951605,-2.152884311,-2.396160417
 H,0,-1.2430951605,-2.152884311,-2.396160417
 Recover connectivity data from disk.
 Differentiate once with respect to electric field.
 Nuclear step= 0.001000 Angstroms, electric field step= 0.000333 atomic units, NStep=1.

 GradGradGradGradGradGradGradGradGradGradGradGradGradGradGradGradGradGrad
 Berny optimization.
 Initialization pass.
                           ----------------------------
                           !    Initial Parameters    !
                           ! (Angstroms and Degrees)  !
 --------------------------                            --------------------------
 ! Name  Definition              Value          Derivative Info.                !
 --------------------------------------------------------------------------------
 ! R1    R(1,2)                  1.3987         calculate D2E/DX2 analytically  !
 ! R2    R(1,6)                  1.3987         calculate D2E/DX2 analytically  !
 ! R3    R(1,7)                  1.0829         calculate D2E/DX2 analytically  !
 ! R4    R(2,3)                  1.3992         calculate D2E/DX2 analytically  !
 ! R5    R(2,8)                  1.0869         calculate D2E/DX2 analytically  !
 ! R6    R(3,4)                  1.3993         calculate D2E/DX2 analytically  !
 ! R7    R(3,9)                  1.0866         calculate D2E/DX2 analytically  !
 ! R8    R(4,5)                  1.3993         calculate D2E/DX2 analytically  !
 ! R9    R(4,10)                 1.0865         calculate D2E/DX2 analytically  !
 ! R10   R(5,6)                  1.3992         calculate D2E/DX2 analytically  !
 ! R11   R(5,11)                 1.0866         calculate D2E/DX2 analytically  !
 ! R12   R(6,12)                 1.0869         calculate D2E/DX2 analytically  !
 ! R13   R(7,13)                 2.6994         calculate D2E/DX2 analytically  !
 ! R14   R(7,14)                 2.6997         calculate D2E/DX2 analytically  !
 ! R15   R(7,15)                 2.6997         calculate D2E/DX2 analytically  !
 ! R16   R(7,16)                 2.6994         calculate D2E/DX2 analytically  !
 ! R17   R(7,17)                 2.6997         calculate D2E/DX2 analytically  !
 ! R18   R(13,14)                1.3995         calculate D2E/DX2 analytically  !
 ! R19   R(13,18)                1.3995         calculate D2E/DX2 analytically  !
 ! R20   R(13,19)                1.0864         calculate D2E/DX2 analytically  !
 ! R21   R(14,15)                1.3997         calculate D2E/DX2 analytically  !
 ! R22   R(14,20)                1.0866         calculate D2E/DX2 analytically  !
 ! R23   R(15,16)                1.3995         calculate D2E/DX2 analytically  !
 ! R24   R(15,21)                1.0866         calculate D2E/DX2 analytically  !
 ! R25   R(16,17)                1.3995         calculate D2E/DX2 analytically  !
 ! R26   R(16,22)                1.0864         calculate D2E/DX2 analytically  !
 ! R27   R(17,18)                1.3997         calculate D2E/DX2 analytically  !
 ! R28   R(17,23)                1.0866         calculate D2E/DX2 analytically  !
 ! R29   R(18,24)                1.0866         calculate D2E/DX2 analytically  !
 ! A1    A(2,1,6)              119.8276         calculate D2E/DX2 analytically  !
 ! A2    A(2,1,7)              120.0862         calculate D2E/DX2 analytically  !
 ! A3    A(6,1,7)              120.0862         calculate D2E/DX2 analytically  !
 ! A4    A(1,2,3)              120.1515         calculate D2E/DX2 analytically  !
 ! A5    A(1,2,8)              119.7315         calculate D2E/DX2 analytically  !
 ! A6    A(3,2,8)              120.117          calculate D2E/DX2 analytically  !
 ! A7    A(2,3,4)              119.9328         calculate D2E/DX2 analytically  !
 ! A8    A(2,3,9)              120.0949         calculate D2E/DX2 analytically  !
 ! A9    A(4,3,9)              119.9723         calculate D2E/DX2 analytically  !
 ! A10   A(3,4,5)              120.0039         calculate D2E/DX2 analytically  !
 ! A11   A(3,4,10)             119.9981         calculate D2E/DX2 analytically  !
 ! A12   A(5,4,10)             119.9981         calculate D2E/DX2 analytically  !
 ! A13   A(4,5,6)              119.9328         calculate D2E/DX2 analytically  !
 ! A14   A(4,5,11)             119.9723         calculate D2E/DX2 analytically  !
 ! A15   A(6,5,11)             120.0949         calculate D2E/DX2 analytically  !
 ! A16   A(1,6,5)              120.1515         calculate D2E/DX2 analytically  !
 ! A17   A(1,6,12)             119.7315         calculate D2E/DX2 analytically  !
 ! A18   A(5,6,12)             120.117          calculate D2E/DX2 analytically  !
 ! A19   A(1,7,13)             148.7652         calculate D2E/DX2 analytically  !
 ! A20   A(1,7,14)             148.7773         calculate D2E/DX2 analytically  !
 ! A21   A(1,7,15)             148.7773         calculate D2E/DX2 analytically  !
 ! A22   A(1,7,16)             148.7652         calculate D2E/DX2 analytically  !
 ! A23   A(1,7,17)             148.7773         calculate D2E/DX2 analytically  !
 ! A24   A(13,7,15)             53.3603         calculate D2E/DX2 analytically  !
 ! A25   A(13,7,16)             62.4696         calculate D2E/DX2 analytically  !
 ! A26   A(13,7,17)             53.3603         calculate D2E/DX2 analytically  !
 ! A27   A(14,7,16)             53.3603         calculate D2E/DX2 analytically  !
 ! A28   A(14,7,17)             62.4454         calculate D2E/DX2 analytically  !
 ! A29   A(15,7,17)             53.3453         calculate D2E/DX2 analytically  !
 ! A30   A(7,13,18)             74.9882         calculate D2E/DX2 analytically  !
 ! A31   A(7,13,19)            120.925          calculate D2E/DX2 analytically  !
 ! A32   A(14,13,18)           119.9815         calculate D2E/DX2 analytically  !
 ! A33   A(14,13,19)           120.0089         calculate D2E/DX2 analytically  !
 ! A34   A(18,13,19)           120.0089         calculate D2E/DX2 analytically  !
 ! A35   A(7,14,20)            121.2078         calculate D2E/DX2 analytically  !
 ! A36   A(13,14,15)           120.0092         calculate D2E/DX2 analytically  !
 ! A37   A(13,14,20)           119.9923         calculate D2E/DX2 analytically  !
 ! A38   A(15,14,20)           119.9984         calculate D2E/DX2 analytically  !
 ! A39   A(7,15,21)            121.2078         calculate D2E/DX2 analytically  !
 ! A40   A(14,15,16)           120.0092         calculate D2E/DX2 analytically  !
 ! A41   A(14,15,21)           119.9984         calculate D2E/DX2 analytically  !
 ! A42   A(16,15,21)           119.9923         calculate D2E/DX2 analytically  !
 ! A43   A(7,16,22)            120.925          calculate D2E/DX2 analytically  !
 ! A44   A(15,16,17)           119.9815         calculate D2E/DX2 analytically  !
 ! A45   A(15,16,22)           120.0089         calculate D2E/DX2 analytically  !
 ! A46   A(17,16,22)           120.0089         calculate D2E/DX2 analytically  !
 ! A47   A(7,17,18)             74.9758         calculate D2E/DX2 analytically  !
 ! A48   A(7,17,23)            121.2078         calculate D2E/DX2 analytically  !
 ! A49   A(16,17,18)           120.0092         calculate D2E/DX2 analytically  !
 ! A50   A(16,17,23)           119.9923         calculate D2E/DX2 analytically  !
 ! A51   A(18,17,23)           119.9984         calculate D2E/DX2 analytically  !
 ! A52   A(13,18,17)           120.0092         calculate D2E/DX2 analytically  !
 ! A53   A(13,18,24)           119.9923         calculate D2E/DX2 analytically  !
 ! A54   A(17,18,24)           119.9984         calculate D2E/DX2 analytically  !
 ! D1    D(6,1,2,3)              0.0            calculate D2E/DX2 analytically  !
 ! D2    D(6,1,2,8)            180.0            calculate D2E/DX2 analytically  !
 ! D3    D(7,1,2,3)            180.0            calculate D2E/DX2 analytically  !
 ! D4    D(7,1,2,8)              0.0            calculate D2E/DX2 analytically  !
 ! D5    D(2,1,6,5)              0.0            calculate D2E/DX2 analytically  !
 ! D6    D(2,1,6,12)           180.0            calculate D2E/DX2 analytically  !
 ! D7    D(7,1,6,5)            180.0            calculate D2E/DX2 analytically  !
 ! D8    D(7,1,6,12)             0.0            calculate D2E/DX2 analytically  !
 ! D9    D(2,1,7,13)            90.0            calculate D2E/DX2 analytically  !
 ! D10   D(2,1,7,14)           149.9943         calculate D2E/DX2 analytically  !
 ! D11   D(2,1,7,15)          -149.9943         calculate D2E/DX2 analytically  !
 ! D12   D(2,1,7,16)           -90.0            calculate D2E/DX2 analytically  !
 ! D13   D(2,1,7,17)           -30.0057         calculate D2E/DX2 analytically  !
 ! D14   D(6,1,7,13)           -90.0            calculate D2E/DX2 analytically  !
 ! D15   D(6,1,7,14)           -30.0057         calculate D2E/DX2 analytically  !
 ! D16   D(6,1,7,15)            30.0057         calculate D2E/DX2 analytically  !
 ! D17   D(6,1,7,16)            90.0            calculate D2E/DX2 analytically  !
 ! D18   D(6,1,7,17)           149.9943         calculate D2E/DX2 analytically  !
 ! D19   D(1,2,3,4)              0.0            calculate D2E/DX2 analytically  !
 ! D20   D(1,2,3,9)            180.0            calculate D2E/DX2 analytically  !
 ! D21   D(8,2,3,4)            180.0            calculate D2E/DX2 analytically  !
 ! D22   D(8,2,3,9)              0.0            calculate D2E/DX2 analytically  !
 ! D23   D(2,3,4,5)              0.0            calculate D2E/DX2 analytically  !
 ! D24   D(2,3,4,10)           180.0            calculate D2E/DX2 analytically  !
 ! D25   D(9,3,4,5)            180.0            calculate D2E/DX2 analytically  !
 ! D26   D(9,3,4,10)             0.0            calculate D2E/DX2 analytically  !
 ! D27   D(3,4,5,6)              0.0            calculate D2E/DX2 analytically  !
 ! D28   D(3,4,5,11)           180.0            calculate D2E/DX2 analytically  !
 ! D29   D(10,4,5,6)           180.0            calculate D2E/DX2 analytically  !
 ! D30   D(10,4,5,11)            0.0            calculate D2E/DX2 analytically  !
 ! D31   D(4,5,6,1)              0.0            calculate D2E/DX2 analytically  !
 ! D32   D(4,5,6,12)           180.0            calculate D2E/DX2 analytically  !
 ! D33   D(11,5,6,1)           180.0            calculate D2E/DX2 analytically  !
 ! D34   D(11,5,6,12)            0.0            calculate D2E/DX2 analytically  !
 ! D35   D(1,7,13,18)         -116.2929         calculate D2E/DX2 analytically  !
 ! D36   D(1,7,13,19)            0.0            calculate D2E/DX2 analytically  !
 ! D37   D(15,7,13,18)          97.7238         calculate D2E/DX2 analytically  !
 ! D38   D(15,7,13,19)        -145.9833         calculate D2E/DX2 analytically  !
 ! D39   D(16,7,13,18)          63.7071         calculate D2E/DX2 analytically  !
 ! D40   D(16,7,13,19)         180.0            calculate D2E/DX2 analytically  !
 ! D41   D(17,7,13,18)          29.6904         calculate D2E/DX2 analytically  !
 ! D42   D(17,7,13,19)         145.9833         calculate D2E/DX2 analytically  !
 ! D43   D(1,7,14,20)            0.0085         calculate D2E/DX2 analytically  !
 ! D44   D(16,7,14,20)        -145.9614         calculate D2E/DX2 analytically  !
 ! D45   D(17,7,14,20)        -179.9915         calculate D2E/DX2 analytically  !
 ! D46   D(1,7,15,21)           -0.0085         calculate D2E/DX2 analytically  !
 ! D47   D(13,7,15,21)         145.9614         calculate D2E/DX2 analytically  !
 ! D48   D(17,7,15,21)        -145.9776         calculate D2E/DX2 analytically  !
 ! D49   D(1,7,16,22)            0.0            calculate D2E/DX2 analytically  !
 ! D50   D(13,7,16,22)         180.0            calculate D2E/DX2 analytically  !
 ! D51   D(14,7,16,22)         145.9833         calculate D2E/DX2 analytically  !
 ! D52   D(1,7,17,18)          116.282          calculate D2E/DX2 analytically  !
 ! D53   D(1,7,17,23)            0.0085         calculate D2E/DX2 analytically  !
 ! D54   D(13,7,17,18)         -29.6879         calculate D2E/DX2 analytically  !
 ! D55   D(13,7,17,23)        -145.9614         calculate D2E/DX2 analytically  !
 ! D56   D(14,7,17,18)         -63.718          calculate D2E/DX2 analytically  !
 ! D57   D(14,7,17,23)        -179.9915         calculate D2E/DX2 analytically  !
 ! D58   D(15,7,17,18)         -97.7489         calculate D2E/DX2 analytically  !
 ! D59   D(15,7,17,23)         145.9776         calculate D2E/DX2 analytically  !
 ! D60   D(18,13,14,15)         -0.0506         calculate D2E/DX2 analytically  !
 ! D61   D(18,13,14,20)        179.9919         calculate D2E/DX2 analytically  !
 ! D62   D(19,13,14,15)        179.6423         calculate D2E/DX2 analytically  !
 ! D63   D(19,13,14,20)         -0.3152         calculate D2E/DX2 analytically  !
 ! D64   D(7,13,18,17)         -62.2837         calculate D2E/DX2 analytically  !
 ! D65   D(7,13,18,24)         117.6738         calculate D2E/DX2 analytically  !
 ! D66   D(14,13,18,17)          0.0506         calculate D2E/DX2 analytically  !
 ! D67   D(14,13,18,24)       -179.9919         calculate D2E/DX2 analytically  !
 ! D68   D(19,13,18,17)       -179.6423         calculate D2E/DX2 analytically  !
 ! D69   D(19,13,18,24)          0.3152         calculate D2E/DX2 analytically  !
 ! D70   D(13,14,15,16)          0.0            calculate D2E/DX2 analytically  !
 ! D71   D(13,14,15,21)       -179.9575         calculate D2E/DX2 analytically  !
 ! D72   D(20,14,15,16)        179.9575         calculate D2E/DX2 analytically  !
 ! D73   D(20,14,15,21)          0.0            calculate D2E/DX2 analytically  !
 ! D74   D(14,15,16,17)          0.0506         calculate D2E/DX2 analytically  !
 ! D75   D(14,15,16,22)       -179.6423         calculate D2E/DX2 analytically  !
 ! D76   D(21,15,16,17)       -179.9919         calculate D2E/DX2 analytically  !
 ! D77   D(21,15,16,22)          0.3152         calculate D2E/DX2 analytically  !
 ! D78   D(15,16,17,18)         -0.0506         calculate D2E/DX2 analytically  !
 ! D79   D(15,16,17,23)        179.9919         calculate D2E/DX2 analytically  !
 ! D80   D(22,16,17,18)        179.6423         calculate D2E/DX2 analytically  !
 ! D81   D(22,16,17,23)         -0.3152         calculate D2E/DX2 analytically  !
 ! D82   D(7,17,18,13)          62.2787         calculate D2E/DX2 analytically  !
 ! D83   D(7,17,18,24)        -117.6788         calculate D2E/DX2 analytically  !
 ! D84   D(16,17,18,13)          0.0            calculate D2E/DX2 analytically  !
 ! D85   D(16,17,18,24)       -179.9575         calculate D2E/DX2 analytically  !
 ! D86   D(23,17,18,13)        179.9575         calculate D2E/DX2 analytically  !
 ! D87   D(23,17,18,24)          0.0            calculate D2E/DX2 analytically  !
 --------------------------------------------------------------------------------
 Trust Radius=3.00D-01 FncErr=1.00D-07 GrdErr=1.00D-07
 Number of steps in this run=      2 maximum allowed number of steps=      2.
 GradGradGradGradGradGradGradGradGradGradGradGradGradGradGradGradGradGrad

                          Input orientation:                          
 ---------------------------------------------------------------------
 Center     Atomic      Atomic             Coordinates (Angstroms)
 Number     Number       Type             X           Y           Z
 ---------------------------------------------------------------------
      1          6           0        0.000000    0.000000    0.995136
      2          6           0        0.000000   -1.210287    1.696325
      3          6           0        0.000000   -1.211881    3.095536
      4          6           0        0.000000    0.000000    3.795161
      5          6           0        0.000000    1.211881    3.095536
      6          6           0        0.000000    1.210287    1.696325
      7          1           0        0.000000    0.000000   -0.087752
      8          1           0        0.000000   -2.149803    1.149902
      9          1           0        0.000000   -2.152602    3.639309
     10          1           0        0.000000    0.000000    4.881688
     11          1           0        0.000000    2.152602    3.639309
     12          1           0        0.000000    2.149803    1.149902
     13          6           0       -1.399785    0.000000   -2.395908
     14          6           0       -0.699843    1.211885   -2.396443
     15          6           0        0.699843    1.211885   -2.396443
     16          6           0        1.399785    0.000000   -2.395908
     17          6           0        0.699843   -1.211885   -2.396443
     18          6           0       -0.699843   -1.211885   -2.396443
     19          1           0       -2.486157    0.000000   -2.390035
     20          1           0       -1.243095    2.152884   -2.396160
     21          1           0        1.243095    2.152884   -2.396160
     22          1           0        2.486157    0.000000   -2.390035
     23          1           0        1.243095   -2.152884   -2.396160
     24          1           0       -1.243095   -2.152884   -2.396160
 ---------------------------------------------------------------------
                    Distance matrix (angstroms):
                    1          2          3          4          5
     1  C    0.000000
     2  C    1.398736   0.000000
     3  C    2.424940   1.399211   0.000000
     4  C    2.800025   2.422790   1.399333   0.000000
     5  C    2.424940   2.797265   2.423763   1.399333   0.000000
     6  C    1.398736   2.420575   2.797265   2.422790   1.399211
     7  H    1.082888   2.155859   3.406167   3.882913   3.406167
     8  H    2.155367   1.086862   2.159905   3.408673   3.884124
     9  H    3.409596   2.159432   1.086575   2.158237   3.408143
    10  H    3.886552   3.407541   2.158471   1.086527   2.158471
    11  H    3.409596   3.883840   3.408143   2.158237   1.086575
    12  H    2.155367   3.404231   3.884124   3.408673   2.159905
    13  C    3.668593   4.491165   5.795171   6.347341   5.795171
    14  C    3.668958   4.807021   6.043695   6.347788   5.536389
    15  C    3.668958   4.807021   6.043695   6.347788   5.536389
    16  C    3.668593   4.491165   5.795171   6.347341   5.795171
    17  C    3.668958   4.152172   5.536389   6.347788   6.043695
    18  C    3.668958   4.152172   5.536389   6.347788   6.043695
    19  H    4.200042   4.933975   6.143380   6.666155   6.143380
    20  H    4.204889   5.441015   6.559395   6.671781   5.708721
    21  H    4.204889   5.441015   6.559395   6.671781   5.708721
    22  H    4.200042   4.933975   6.143380   6.666155   6.143380
    23  H    4.204889   4.379750   5.708721   6.671781   6.559395
    24  H    4.204889   4.379750   5.708721   6.671781   6.559395
                    6          7          8          9         10
     6  C    0.000000
     7  H    2.155859   0.000000
     8  H    3.404231   2.480613   0.000000
     9  H    3.883840   4.304031   2.489409   0.000000
    10  H    3.407541   4.969440   4.306725   2.485398   0.000000
    11  H    2.159432   4.304031   4.970698   4.305204   2.485398
    12  H    1.086862   2.480613   4.299607   4.970698   4.306725
    13  C    4.491165   2.699441   4.376508   6.558730   7.410992
    14  C    4.152172   2.699722   4.936323   6.945492   7.411453
    15  C    4.152172   2.699722   4.936323   6.945492   7.411453
    16  C    4.491165   2.699441   4.376508   6.558730   7.410992
    17  C    4.807021   2.699722   3.734439   6.148580   7.411453
    18  C    4.807021   2.699722   3.734439   6.148580   7.411453
    19  H    4.933975   3.388433   4.830505   6.867871   7.684981
    20  H    4.379750   3.392484   5.712527   7.517273   7.690727
    21  H    4.379750   3.392484   5.712527   7.517273   7.690727
    22  H    4.933975   3.388433   4.830505   6.867871   7.684981
    23  H    5.441015   3.392484   3.757639   6.162157   7.690727
    24  H    5.441015   3.392484   3.757639   6.162157   7.690727
                   11         12         13         14         15
    11  H    0.000000
    12  H    2.489409   0.000000
    13  C    6.558730   4.376508   0.000000
    14  C    6.148580   3.734439   1.399494   0.000000
    15  C    6.148580   3.734439   2.424274   1.399686   0.000000
    16  C    6.558730   4.376508   2.799570   2.424274   1.399494
    17  C    6.945492   4.936323   2.424274   2.798889   2.423770
    18  C    6.945492   4.936323   1.399494   2.423770   2.798889
    19  H    6.867871   4.830505   1.086387   2.158616   3.408709
    20  H    6.162157   3.757639   2.158579   1.086556   2.158816
    21  H    6.162157   3.757639   3.408772   2.158816   1.086556
    22  H    6.867871   4.830505   3.885946   3.408709   2.158616
    23  H    7.517273   5.712527   3.408772   3.885444   3.408342
    24  H    7.517273   5.712527   2.158579   3.408342   3.885444
                   16         17         18         19         20
    16  C    0.000000
    17  C    1.399494   0.000000
    18  C    2.424274   1.399686   0.000000
    19  H    3.885946   3.408709   2.158616   0.000000
    20  H    3.408772   3.885444   3.408342   2.485991   0.000000
    21  H    2.158579   3.408342   3.885444   4.306073   2.486190
    22  H    1.086387   2.158616   3.408709   4.972313   4.306073
    23  H    2.158579   1.086556   2.158816   4.306073   4.972000
    24  H    3.408772   2.158816   1.086556   2.485991   4.305769
                   21         22         23         24
    21  H    0.000000
    22  H    2.485991   0.000000
    23  H    4.305769   2.485991   0.000000
    24  H    4.972000   4.306073   2.486190   0.000000
 Stoichiometry    C12H12
 Framework group  C2V[C2(HCCH),SGV(C4H4),SGV'(C2H2),X(C4H4)]
 Deg. of freedom    21
 Full point group                 C2V     NOp   4
 Largest Abelian subgroup         C2V     NOp   4
 Largest concise Abelian subgroup C2V     NOp   4
                         Standard orientation:                         
 ---------------------------------------------------------------------
 Center     Atomic      Atomic             Coordinates (Angstroms)
 Number     Number       Type             X           Y           Z
 ---------------------------------------------------------------------
      1          6           0        0.000000    0.000000    0.995300
      2          6           0        0.000000    1.210287    1.696489
      3          6           0        0.000000    1.211881    3.095699
      4          6           0        0.000000    0.000000    3.795325
      5          6           0        0.000000   -1.211881    3.095699
      6          6           0        0.000000   -1.210287    1.696489
      7          1           0        0.000000    0.000000   -0.087588
      8          1           0        0.000000    2.149803    1.150066
      9          1           0        0.000000    2.152602    3.639473
     10          1           0        0.000000    0.000000    4.881852
     11          1           0        0.000000   -2.152602    3.639473
     12          1           0        0.000000   -2.149803    1.150066
     13          6           0        1.399785    0.000000   -2.395744
     14          6           0        0.699843   -1.211885   -2.396279
     15          6           0       -0.699843   -1.211885   -2.396279
     16          6           0       -1.399785    0.000000   -2.395744
     17          6           0       -0.699843    1.211885   -2.396279
     18          6           0        0.699843    1.211885   -2.396279
     19          1           0        2.486157    0.000000   -2.389871
     20          1           0        1.243095   -2.152884   -2.395997
     21          1           0       -1.243095   -2.152884   -2.395997
     22          1           0       -2.486157    0.000000   -2.389871
     23          1           0       -1.243095    2.152884   -2.395997
     24          1           0        1.243095    2.152884   -2.395997
 ---------------------------------------------------------------------
 Rotational constants (GHZ):      1.8895342      0.4703567      0.4343703
 Standard basis: 6-311+G(d,p) (5D, 7F)
 There are   127 symmetry adapted cartesian basis functions of A1  symmetry.
 There are    52 symmetry adapted cartesian basis functions of A2  symmetry.
 There are    77 symmetry adapted cartesian basis functions of B1  symmetry.
 There are    92 symmetry adapted cartesian basis functions of B2  symmetry.
 There are   121 symmetry adapted basis functions of A1  symmetry.
 There are    51 symmetry adapted basis functions of A2  symmetry.
 There are    75 symmetry adapted basis functions of B1  symmetry.
 There are    89 symmetry adapted basis functions of B2  symmetry.
   336 basis functions,   528 primitive gaussians,   348 cartesian basis functions
    42 alpha electrons       42 beta electrons
       nuclear repulsion energy       595.0138735997 Hartrees.
 NAtoms=   24 NActive=   24 NUniq=   12 SFac= 4.00D+00 NAtFMM=   60 NAOKFM=F Big=F
 Integral buffers will be    131072 words long.
 Raffenetti 1 integral format.
 Two-electron integral symmetry is turned on.
 One-electron integrals computed using PRISM.
 NBasis=   336 RedAO= T EigKep=  2.07D-06  NBF=   121    51    75    89
 NBsUse=   336 1.00D-06 EigRej= -1.00D+00 NBFU=   121    51    75    89
 ExpMin= 4.38D-02 ExpMax= 4.56D+03 ExpMxC= 6.82D+02 IAcc=2 IRadAn=         4 AccDes= 0.00D+00
 Harris functional with IExCor=  205 and IRadAn=       4 diagonalized for initial guess.
 HarFok:  IExCor=  205 AccDes= 0.00D+00 IRadAn=         4 IDoV= 1 UseB2=F ITyADJ=14
 ICtDFT=  3500011 ScaDFX=  1.000000  1.000000  1.000000  1.000000
 FoFCou: FMM=F IPFlag=           0 FMFlag=      100000 FMFlg1=           0
         NFxFlg=           0 DoJE=T BraDBF=F KetDBF=T FulRan=T
         wScrn=  0.000000 ICntrl=     500 IOpCl=  0 I1Cent=   200000004 NGrid=           0
         NMat0=    1 NMatS0=      1 NMatT0=    0 NMatD0=    1 NMtDS0=    0 NMtDT0=    0
 Petite list used in FoFCou.
 Initial guess orbital symmetries:
       Occupied  (A1) (A1) (B1) (B2) (A1) (B2) (A1) (A1) (A2) (B2)
                 (B1) (A1) (A1) (A1) (A1) (B2) (B1) (B2) (A1) (B2)
                 (A2) (A1) (A1) (A1) (B2) (B2) (A1) (B1) (A1) (B2)
                 (B1) (B2) (A1) (B1) (A1) (A2) (B2) (A1) (B1) (B2)
                 (A2) (B1)
       Virtual   (A2) (A1) (B1) (A2) (A1) (A1) (B1) (B1) (B2) (B1)
                 (A1) (B2) (A1) (A1) (A2) (B2) (A1) (A1) (B1) (B1)
                 (B1) (B2) (A1) (A2) (B2) (B2) (A1) (B1) (B2) (B2)
                 (A1) (A2) (A1) (A1) (A2) (B1) (A1) (B1) (B2) (B2)
                 (A1) (A1) (A2) (A1) (B1) (A1) (B2) (A2) (B1) (A1)
                 (B2) (B1) (B2) (B1) (A1) (A2) (A1) (B2) (A1) (B1)
                 (B2) (A1) (B2) (A1) (B1) (A2) (B2) (A1) (B2) (A1)
                 (B1) (A2) (A1) (B2) (A1) (B2) (A1) (A2) (B2) (A1)
                 (B1) (B2) (B2) (A1) (B1) (A1) (B1) (A2) (B2) (A1)
                 (A2) (B1) (B1) (A1) (B2) (A2) (A1) (B1) (A2) (A1)
                 (B2) (A1) (A2) (B1) (A1) (A1) (B1) (B2) (A1) (B1)
                 (B2) (B1) (B2) (A1) (A1) (B2) (A1) (B1) (B2) (A1)
                 (A2) (A2) (B2) (A1) (B1) (A1) (B2) (B1) (A1) (B2)
                 (B1) (B2) (A1) (A2) (B2) (A2) (B2) (B1) (A1) (A2)
                 (A1) (B1) (A2) (A2) (A1) (B2) (B1) (A1) (A1) (B1)
                 (A1) (A1) (B2) (A1) (B2) (B1) (B2) (B2) (A1) (A1)
                 (A2) (B1) (A1) (A2) (B1) (B1) (B2) (A2) (A1) (A1)
                 (B2) (B1) (B2) (A1) (B1) (A1) (B1) (A2) (B2) (B1)
                 (A1) (B2) (A2) (A1) (B2) (B2) (A2) (B1) (B1) (B2)
                 (B2) (B1) (A1) (B2) (A1) (A2) (B1) (A2) (A1) (B2)
                 (A1) (B2) (A2) (A2) (A1) (B1) (A2) (A2) (B1) (B1)
                 (A1) (B2) (A1) (A2) (B1) (B2) (A1) (B2) (A1) (A1)
                 (B2) (B1) (A1) (B1) (B2) (A1) (B1) (A1) (A1) (B1)
                 (A2) (B2) (A1) (B1) (B2) (B2) (A2) (A1) (A1) (B1)
                 (A1) (B1) (A1) (A2) (A2) (B1) (B2) (A1) (A2) (B2)
                 (A2) (A1) (B2) (A1) (B2) (B1) (B1) (B2) (B2) (A2)
                 (A1) (A1) (B2) (A1) (B1) (B2) (A1) (A1) (B1) (A1)
                 (A2) (A1) (B2) (A1) (B1) (A1) (B1) (B2) (B2) (A1)
                 (A2) (B2) (A1) (A1) (B2) (B1) (A1) (B2) (A2) (A1)
                 (B2) (A1) (B1) (A1)
 The electronic state of the initial guess is 1-A1.
 Requested convergence on RMS density matrix=1.00D-08 within 128 cycles.
 Requested convergence on MAX density matrix=1.00D-06.
 Requested convergence on             energy=1.00D-06.
 No special actions if energy rises.
 Initial convergence to 1.0D-05 achieved.  Increase integral accuracy.
 SCF Done:  E(RHF) =  -461.507164419     A.U. after   13 cycles
            NFock= 13  Conv=0.85D-08     -V/T= 2.0016
 Range of M.O.s used for correlation:     1   336
 NBasis=   336 NAE=    42 NBE=    42 NFC=     0 NFV=     0
 NROrb=    336 NOA=    42 NOB=    42 NVA=   294 NVB=   294

 **** Warning!!: The largest alpha MO coefficient is  0.13778508D+03

 Disk-based method using ON**2 memory for 42 occupieds at a time.
 Permanent disk used for amplitudes=   189557235 words.
 Estimated scratch disk usage=  1112545824 words.
 Actual    scratch disk usage=  1026824736 words.
 JobTyp=1 Pass  1:  I=   1 to  42 NPSUse=  8 ParTrn=T ParDer=T DoDerP=T.
 (rs|ai) integrals will be sorted in core.
 Spin components of T(2) and E(2):
     alpha-alpha T2 =       0.8707225029D-01 E2=     -0.2301941663D+00
     alpha-beta  T2 =       0.4556450770D+00 E2=     -0.1435981065D+01
     beta-beta   T2 =       0.8707225029D-01 E2=     -0.2301941663D+00
 ANorm=    0.1276632123D+01
 E2 =    -0.1896369398D+01 EUMP2 =    -0.46340353381737D+03
 G2DrvN: will do    25 centers at a time, making    1 passes.
 Calling FoFCou, ICntrl=  3107 FMM=F I1Cent=   0 AccDes= 0.00D+00.
 End of G2Drv F.D. properties file   721 does not exist.
 End of G2Drv F.D. properties file   722 does not exist.
 End of G2Drv F.D. properties file   788 does not exist.
          IDoAtm=111111111111111111111111
          Differentiating once with respect to electric field.
                with respect to dipole field.
          Differentiating once with respect to nuclear coordinates.
          There are    75 degrees of freedom in the 1st order CPHF.  IDoFFX=6 NUNeed=    75.
     72 vectors produced by pass  0 Test12= 1.65D-14 1.33D-09 XBig12= 6.21D+01 2.95D+00.
 AX will form    72 AO Fock derivatives at one time.
     72 vectors produced by pass  1 Test12= 1.65D-14 1.33D-09 XBig12= 3.71D+00 2.81D-01.
     72 vectors produced by pass  2 Test12= 1.65D-14 1.33D-09 XBig12= 5.67D-02 5.98D-02.
     72 vectors produced by pass  3 Test12= 1.65D-14 1.33D-09 XBig12= 5.89D-04 4.63D-03.
     72 vectors produced by pass  4 Test12= 1.65D-14 1.33D-09 XBig12= 5.32D-06 3.36D-04.
     72 vectors produced by pass  5 Test12= 1.65D-14 1.33D-09 XBig12= 4.64D-08 3.32D-05.
     72 vectors produced by pass  6 Test12= 1.65D-14 1.33D-09 XBig12= 3.36D-10 2.90D-06.
     39 vectors produced by pass  7 Test12= 1.65D-14 1.33D-09 XBig12= 2.51D-12 2.20D-07.
      3 vectors produced by pass  8 Test12= 1.65D-14 1.33D-09 XBig12= 1.42D-14 1.91D-08.
      3 vectors produced by pass  9 Test12= 1.65D-14 1.33D-09 XBig12= 1.99D-15 2.35D-08.
      1 vectors produced by pass 10 Test12= 1.65D-14 1.33D-09 XBig12= 3.25D-16 5.11D-09.
 InvSVY:  IOpt=1 It=  1 EMax= 3.55D-15
 Solved reduced A of dimension   550 with    75 vectors.
 End of Minotr F.D. properties file   721 does not exist.
 End of Minotr F.D. properties file   722 does not exist.
 End of Minotr F.D. properties file   788 does not exist.
 MDV=  1073741824.
 Form MO integral derivatives with frozen-active canonical formalism.
 Discarding MO integrals.
 Reordered first order wavefunction length =    304946208
 In DefCFB: NBatch=  1 ICI= 42 ICA=294 LFMax= 37
            Large arrays: LIAPS=  5775307776 LIARS=   691833744 words.
 Semi-Direct transformation.
 ModeAB=           4 MOrb=            42 LenV=    1071105935
 LASXX=    732400662 LTotXX=   732400662 LenRXX=  1471469034
 LTotAB=   739068372 MaxLAS=   273180096 LenRXY=           0
 NonZer=  2203869696 LenScr=  3306946560 LnRSAI=   273180096
 LnScr1=   410255360 LExtra=           0 Total=   5461851050
 MaxDsk=          -1 SrtSym=           T ITran=            4
 JobTyp=0 Pass  1:  I=   1 to  42.
 (rs|ai) integrals will be sorted in core.
 Spin components of T(2) and E(2):
     alpha-alpha T2 =       0.8707225029D-01 E2=     -0.2301941663D+00
     alpha-beta  T2 =       0.4556450770D+00 E2=     -0.1435981065D+01
     beta-beta   T2 =       0.8707225029D-01 E2=     -0.2301941663D+00
 ANorm=    0.1805430463D+01
 E2 =    -0.1896369398D+01 EUMP2 =    -0.46340353381736D+03
          IDoAtm=111111111111111111111111
          Differentiating once with respect to electric field.
                with respect to dipole field.
          Differentiating once with respect to nuclear coordinates.
          There are     1 degrees of freedom in the 1st order CPHF.  IDoFFX=0 NUNeed=     1.
 LinEq1:  Iter=  0 NonCon=     1 RMS=2.48D-03 Max=7.15D-02 NDo=     1
 LinEq1:  Iter=  1 NonCon=     1 RMS=5.98D-04 Max=1.48D-02 NDo=     1
 LinEq1:  Iter=  2 NonCon=     1 RMS=1.69D-04 Max=5.28D-03 NDo=     1
 LinEq1:  Iter=  3 NonCon=     1 RMS=3.74D-05 Max=9.79D-04 NDo=     1
 LinEq1:  Iter=  4 NonCon=     1 RMS=9.36D-06 Max=4.59D-04 NDo=     1
 LinEq1:  Iter=  5 NonCon=     1 RMS=4.04D-06 Max=2.60D-04 NDo=     1
 LinEq1:  Iter=  6 NonCon=     1 RMS=1.71D-06 Max=5.29D-05 NDo=     1
 LinEq1:  Iter=  7 NonCon=     1 RMS=2.94D-07 Max=8.46D-06 NDo=     1
 LinEq1:  Iter=  8 NonCon=     1 RMS=1.13D-07 Max=2.21D-06 NDo=     1
 LinEq1:  Iter=  9 NonCon=     1 RMS=1.61D-08 Max=2.65D-07 NDo=     1
 LinEq1:  Iter= 10 NonCon=     1 RMS=4.63D-09 Max=1.33D-07 NDo=     1
 LinEq1:  Iter= 11 NonCon=     1 RMS=1.31D-09 Max=2.38D-08 NDo=     1
 LinEq1:  Iter= 12 NonCon=     1 RMS=3.29D-10 Max=6.54D-09 NDo=     1
 LinEq1:  Iter= 13 NonCon=     1 RMS=8.74D-11 Max=1.11D-09 NDo=     1
 LinEq1:  Iter= 14 NonCon=     0 RMS=1.28D-11 Max=2.69D-10 NDo=     1
 Linear equations converged to 1.000D-10 1.000D-09 after    14 iterations.
 End of Minotr F.D. properties file   721 does not exist.
 End of Minotr F.D. properties file   722 does not exist.
 End of Minotr F.D. properties file   788 does not exist.
 Symmetrizing basis deriv contribution to polar:
 IMax=3 JMax=2 DiffMx= 0.00D+00
 G2DrvN: will do    25 centers at a time, making    1 passes.
 Calling FoFCou, ICntrl=  3107 FMM=F I1Cent=   0 AccDes= 0.00D+00.
 End of G2Drv F.D. properties file   721 does not exist.
 End of G2Drv F.D. properties file   722 does not exist.
 End of G2Drv F.D. properties file   788 does not exist.
 Would need an additional  2635220608 words for in-memory AO integral storage.
 DD1Dir will call FoFJK   2 times, MxPair=       904
 NAB=   903 NAA=     0 NBB=     0 NumPrc=  8.
 FoFJK:  IHMeth= 1 ICntrl=     200 DoSepK=F KAlg= 0 I1Cent=   0 FoldK=F
 IRaf= 990000000 NMat= 904 IRICut=    1130 DoRegI=T DoRafI=T ISym2E=-1.
 FoFCou: FMM=F IPFlag=           0 FMFlag=           0 FMFlg1=           0
         NFxFlg=           0 DoJE=F BraDBF=F KetDBF=F FulRan=T
         wScrn=  0.000000 ICntrl=     200 IOpCl=  0 I1Cent=           0 NGrid=           0
         NMat0=  904 NMatS0=      0 NMatT0=  452 NMatD0=  904 NMtDS0=    0 NMtDT0=    0
 Petite list used in FoFCou.
 Discarding MO integrals.

 **********************************************************************

            Population analysis using the MP2 density.

 **********************************************************************

 Orbital symmetries:
       Occupied  (A1) (B2) (B1) (A2) (A1) (B1) (A1) (B2) (A1) (A1)
                 (B2) (A1) (A1) (A1) (B2) (B1) (B2) (A1) (A2) (A1)
                 (B2) (A1) (A1) (A1) (B1) (A1) (B2) (B2) (B2) (B1)
                 (A1) (B2) (A1) (A2) (A1) (B1) (B2) (A1) (B1) (B2)
                 (A2) (B1)
       Virtual   (A1) (B2) (A1) (B1) (B2) (A1) (A2) (A1) (A2) (A1)
                 (B1) (A1) (B2) (A2) (B1) (B1) (A1) (B2) (A1) (B1)
                 (B2) (A2) (A1) (A1) (A2) (B1) (B2) (B1) (A1) (B1)
                 (A2) (B2) (B2) (B2) (B1) (A1) (A1) (A2) (A1) (B1)
                 (B2) (A1) (B1) (A2) (A1) (B2) (A2) (A1) (B1) (A1)
                 (A1) (B1) (B2) (B2) (B2) (A1) (B1) (A1) (B2) (A1)
                 (A2) (B1) (A1) (B2) (B1) (A1) (A2) (A1) (B2) (B1)
                 (B2) (A1) (A1) (B2) (A1) (A1) (B2) (B1) (A1) (B2)
                 (B2) (B1) (A1) (A1) (B2) (B1) (A2) (A2) (A1) (B2)
                 (A2) (B1) (B2) (B1) (A1) (A2) (A1) (B1) (A2) (A1)
                 (B2) (B1) (B1) (A1) (A1) (A2) (B1) (B1) (B2) (A1)
                 (B2) (B2) (A1) (A1) (A1) (A1) (A2) (B1) (B2) (A1)
                 (B2) (A1) (B2) (B1) (B2) (B1) (B2) (A1) (A1) (A2)
                 (A1) (B2) (B1) (A2) (A1) (B2) (A1) (B2) (A2) (B1)
                 (A2) (B1) (B2) (A2) (A1) (A2) (B1) (A1) (B1) (A1)
                 (A1) (A1) (B2) (A1) (B2) (B1) (B2) (B2) (A1) (B1)
                 (A1) (A2) (B1) (A1) (A2) (B1) (A2) (A1) (B2) (B1)
                 (B2) (A1) (B2) (A1) (B1) (A1) (B1) (A2) (B2) (B1)
                 (A1) (A2) (B2) (A1) (B2) (B2) (B1) (B2) (A2) (A2)
                 (B1) (B2) (B1) (B2) (A1) (B1) (B2) (A1) (A2) (A1)
                 (A1) (A2) (A1) (A2) (B2) (B1) (B1) (A2) (B1) (A2)
                 (A2) (A1) (A1) (B2) (A1) (B2) (B1) (B2) (A1) (A1)
                 (B2) (B1) (A1) (B2) (A1) (B1) (A1) (B2) (A1) (B1)
                 (B2) (A2) (A1) (B1) (A1) (B1) (A1) (B2) (A1) (A1)
                 (B1) (A2) (B2) (B1) (A2) (B2) (A2) (A1) (A2) (A1)
                 (A2) (B1) (B2) (A1) (B1) (B1) (B2) (B2) (A2) (A1)
                 (B2) (A1) (B2) (B1) (A1) (B2) (A1) (A1) (B1) (A1)
                 (A2) (A1) (B2) (A1) (B1) (A1) (B1) (B2) (B2) (A1)
                 (A2) (B2) (A1) (A1) (B1) (B2) (B2) (A1) (A2) (A1)
                 (B2) (A1) (B1) (A1)
 The electronic state is 1-A1.
 Alpha  occ. eigenvalues --  -11.24596 -11.24547 -11.24533 -11.24427 -11.24412
 Alpha  occ. eigenvalues --  -11.24360 -11.23273 -11.23224 -11.23093 -11.22954
 Alpha  occ. eigenvalues --  -11.22941 -11.22492  -1.15589  -1.14031  -1.02049
 Alpha  occ. eigenvalues --   -1.02022  -1.00606  -1.00545  -0.82931  -0.82925
 Alpha  occ. eigenvalues --   -0.81545  -0.81523  -0.71426  -0.70056  -0.64947
 Alpha  occ. eigenvalues --   -0.63675  -0.62410  -0.60990  -0.59386  -0.59360
 Alpha  occ. eigenvalues --   -0.58284  -0.58015  -0.50974  -0.50086  -0.50064
 Alpha  occ. eigenvalues --   -0.49151  -0.48684  -0.47730  -0.34556  -0.34355
 Alpha  occ. eigenvalues --   -0.32839  -0.32372
 Alpha virt. eigenvalues --    0.06313   0.07154   0.07572   0.07774   0.08903
 Alpha virt. eigenvalues --    0.08996   0.09301   0.09908   0.09990   0.10249
 Alpha virt. eigenvalues --    0.11374   0.11651   0.12118   0.12455   0.12569
 Alpha virt. eigenvalues --    0.12986   0.14378   0.15203   0.15736   0.15769
 Alpha virt. eigenvalues --    0.16007   0.16585   0.18775   0.19650   0.19675
 Alpha virt. eigenvalues --    0.19834   0.20293   0.20518   0.21478   0.22196
 Alpha virt. eigenvalues --    0.22259   0.22415   0.23590   0.24707   0.24763
 Alpha virt. eigenvalues --    0.24896   0.25208   0.25317   0.26957   0.27196
 Alpha virt. eigenvalues --    0.27912   0.28415   0.28806   0.29061   0.29294
 Alpha virt. eigenvalues --    0.29577   0.30172   0.30949   0.31306   0.32168
 Alpha virt. eigenvalues --    0.32570   0.32748   0.32840   0.33008   0.35187
 Alpha virt. eigenvalues --    0.35971   0.36152   0.36416   0.37045   0.37079
 Alpha virt. eigenvalues --    0.37999   0.38054   0.39059   0.39699   0.40373
 Alpha virt. eigenvalues --    0.40625   0.47657   0.47766   0.48361   0.48487
 Alpha virt. eigenvalues --    0.49224   0.50390   0.52056   0.52711   0.57067
 Alpha virt. eigenvalues --    0.60142   0.60382   0.69069   0.69398   0.69635
 Alpha virt. eigenvalues --    0.71699   0.72266   0.72795   0.73357   0.74218
 Alpha virt. eigenvalues --    0.74332   0.74348   0.75565   0.76081   0.76173
 Alpha virt. eigenvalues --    0.76875   0.77096   0.78267   0.80481   0.82265
 Alpha virt. eigenvalues --    0.82352   0.83982   0.84766   0.84822   0.86357
 Alpha virt. eigenvalues --    0.86357   0.88425   0.90467   0.91131   0.91914
 Alpha virt. eigenvalues --    0.91991   0.92441   0.92933   0.93008   0.93171
 Alpha virt. eigenvalues --    0.94232   0.94968   0.96467   0.97761   0.98810
 Alpha virt. eigenvalues --    1.00043   1.00369   1.00879   1.01217   1.01336
 Alpha virt. eigenvalues --    1.03529   1.03669   1.04650   1.08467   1.09039
 Alpha virt. eigenvalues --    1.09919   1.10795   1.10987   1.11473   1.12036
 Alpha virt. eigenvalues --    1.17849   1.20111   1.20234   1.20368   1.22195
 Alpha virt. eigenvalues --    1.22562   1.23879   1.24998   1.26352   1.31821
 Alpha virt. eigenvalues --    1.33168   1.35001   1.37555   1.38303   1.38669
 Alpha virt. eigenvalues --    1.39915   1.41067   1.41571   1.49595   1.51932
 Alpha virt. eigenvalues --    1.58443   1.68812   1.70575   1.75174   1.76500
 Alpha virt. eigenvalues --    1.77086   1.77129   1.78654   1.79764   1.81184
 Alpha virt. eigenvalues --    1.82684   1.83418   1.83713   1.84304   1.85280
 Alpha virt. eigenvalues --    1.85300   1.90486   1.90788   1.92089   1.92180
 Alpha virt. eigenvalues --    1.92222   1.92296   1.96028   1.96704   2.01078
 Alpha virt. eigenvalues --    2.02580   2.05100   2.06031   2.06338   2.08200
 Alpha virt. eigenvalues --    2.09027   2.09353   2.09663   2.12140   2.12176
 Alpha virt. eigenvalues --    2.13885   2.22780   2.22944   2.23324   2.24163
 Alpha virt. eigenvalues --    2.24250   2.24809   2.24979   2.25772   2.26796
 Alpha virt. eigenvalues --    2.28236   2.28651   2.29641   2.33109   2.33706
 Alpha virt. eigenvalues --    2.36506   2.36819   2.37754   2.38208   2.38507
 Alpha virt. eigenvalues --    2.41561   2.62620   2.64792   2.64937   2.66289
 Alpha virt. eigenvalues --    2.71347   2.71887   2.72948   2.73342   2.74734
 Alpha virt. eigenvalues --    2.76430   2.77124   2.80098   2.81242   2.84316
 Alpha virt. eigenvalues --    2.93591   2.94034   2.95342   2.96459   2.97612
 Alpha virt. eigenvalues --    2.98179   2.99187   3.02452   3.03481   3.04687
 Alpha virt. eigenvalues --    3.05172   3.05782   3.05933   3.06775   3.07012
 Alpha virt. eigenvalues --    3.08247   3.08513   3.10179   3.11057   3.17864
 Alpha virt. eigenvalues --    3.19862   3.20176   3.23801   3.23808   3.24534
 Alpha virt. eigenvalues --    3.27527   3.28307   3.29075   3.29568   3.30127
 Alpha virt. eigenvalues --    3.31208   3.31930   3.32517   3.35156   3.47124
 Alpha virt. eigenvalues --    3.49630   3.53113   3.59333   3.76368   3.76586
 Alpha virt. eigenvalues --    3.77691   3.79591   3.90902   3.91358   3.91441
 Alpha virt. eigenvalues --    3.94315   3.95136   3.99243   4.04719   4.07182
 Alpha virt. eigenvalues --    4.38246   4.38449   4.39882   4.41288   4.47913
 Alpha virt. eigenvalues --    4.49680   4.56110   4.56539   4.57950   4.61267
 Alpha virt. eigenvalues --    5.26233   5.28511  24.74921  24.79171  25.10844
 Alpha virt. eigenvalues --   25.11909  25.12400  25.13408  25.23057  25.23135
 Alpha virt. eigenvalues --   25.24767  25.25010  25.33881  25.35725
          Condensed to atoms (all electrons):
               1          2          3          4          5          6
     1  C   12.640204  -2.348239  -0.370013  -1.323600  -0.370013  -2.348239
     2  C   -2.348239  16.357658  -3.762432   0.496286  -2.513583  -2.407064
     3  C   -0.370013  -3.762432  10.835701  -0.148249   1.874916  -2.513583
     4  C   -1.323600   0.496286  -0.148249   6.397445  -0.148249   0.496286
     5  C   -0.370013  -2.513583   1.874916  -0.148249  10.835701  -3.762432
     6  C   -2.348239  -2.407064  -2.513583   0.496286  -3.762432  16.357658
     7  H   -0.118967  -0.045380   0.143207   0.015082   0.143207  -0.045380
     8  H    0.078476   0.364180  -0.098482  -0.009959  -0.009936   0.004429
     9  H   -0.007180  -0.029913   0.377137   0.000709  -0.004579  -0.007128
    10  H    0.018095  -0.023687  -0.006648   0.374171  -0.006648  -0.023687
    11  H   -0.007180  -0.007128  -0.004579   0.000709   0.377137  -0.029913
    12  H    0.078476   0.004429  -0.009936  -0.009959  -0.098482   0.364180
    13  C   -0.798821   0.136595   0.166928   0.007047   0.166928   0.136595
    14  C    0.249801  -0.258255  -0.036659   0.002612  -0.153400   0.240424
    15  C    0.249801  -0.258255  -0.036659   0.002612  -0.153400   0.240424
    16  C   -0.798821   0.136595   0.166928   0.007047   0.166928   0.136595
    17  C    0.249801   0.240424  -0.153400   0.002612  -0.036659  -0.258255
    18  C    0.249801   0.240424  -0.153400   0.002612  -0.036659  -0.258255
    19  H    0.000411  -0.000803   0.000537  -0.000131   0.000537  -0.000803
    20  H   -0.011360   0.000888   0.000558  -0.000061   0.005267   0.003637
    21  H   -0.011360   0.000888   0.000558  -0.000061   0.005267   0.003637
    22  H    0.000411  -0.000803   0.000537  -0.000131   0.000537  -0.000803
    23  H   -0.011360   0.003637   0.005267  -0.000061   0.000558   0.000888
    24  H   -0.011360   0.003637   0.005267  -0.000061   0.000558   0.000888
               7          8          9         10         11         12
     1  C   -0.118967   0.078476  -0.007180   0.018095  -0.007180   0.078476
     2  C   -0.045380   0.364180  -0.029913  -0.023687  -0.007128   0.004429
     3  C    0.143207  -0.098482   0.377137  -0.006648  -0.004579  -0.009936
     4  C    0.015082  -0.009959   0.000709   0.374171   0.000709  -0.009959
     5  C    0.143207  -0.009936  -0.004579  -0.006648   0.377137  -0.098482
     6  C   -0.045380   0.004429  -0.007128  -0.023687  -0.029913   0.364180
     7  H    0.790531  -0.017888  -0.000179   0.000038  -0.000179  -0.017888
     8  H   -0.017888   0.564994  -0.007272  -0.000226   0.000067  -0.000094
     9  H   -0.000179  -0.007272   0.555334  -0.007575  -0.000220   0.000067
    10  H    0.000038  -0.000226  -0.007575   0.553925  -0.007575  -0.000226
    11  H   -0.000179   0.000067  -0.000220  -0.007575   0.555334  -0.007272
    12  H   -0.017888  -0.000094   0.000067  -0.000226  -0.007272   0.564994
    13  C    0.155617  -0.007754   0.000065  -0.000041   0.000065  -0.007754
    14  C   -0.069658   0.002277   0.000011   0.000018   0.000049   0.007206
    15  C   -0.069658   0.002277   0.000011   0.000018   0.000049   0.007206
    16  C    0.155617  -0.007754   0.000065  -0.000041   0.000065  -0.007754
    17  C   -0.069658   0.007206   0.000049   0.000018   0.000011   0.002277
    18  C   -0.069658   0.007206   0.000049   0.000018   0.000011   0.002277
    19  H   -0.000832   0.000016   0.000000   0.000000   0.000000   0.000016
    20  H    0.001553  -0.000004   0.000000   0.000000   0.000000  -0.000241
    21  H    0.001553  -0.000004   0.000000   0.000000   0.000000  -0.000241
    22  H   -0.000832   0.000016   0.000000   0.000000   0.000000   0.000016
    23  H    0.001553  -0.000241   0.000000   0.000000   0.000000  -0.000004
    24  H    0.001553  -0.000241   0.000000   0.000000   0.000000  -0.000004
              13         14         15         16         17         18
     1  C   -0.798821   0.249801   0.249801  -0.798821   0.249801   0.249801
     2  C    0.136595  -0.258255  -0.258255   0.136595   0.240424   0.240424
     3  C    0.166928  -0.036659  -0.036659   0.166928  -0.153400  -0.153400
     4  C    0.007047   0.002612   0.002612   0.007047   0.002612   0.002612
     5  C    0.166928  -0.153400  -0.153400   0.166928  -0.036659  -0.036659
     6  C    0.136595   0.240424   0.240424   0.136595  -0.258255  -0.258255
     7  H    0.155617  -0.069658  -0.069658   0.155617  -0.069658  -0.069658
     8  H   -0.007754   0.002277   0.002277  -0.007754   0.007206   0.007206
     9  H    0.000065   0.000011   0.000011   0.000065   0.000049   0.000049
    10  H   -0.000041   0.000018   0.000018  -0.000041   0.000018   0.000018
    11  H    0.000065   0.000049   0.000049   0.000065   0.000011   0.000011
    12  H   -0.007754   0.007206   0.007206  -0.007754   0.002277   0.002277
    13  C    7.781063  -1.589256   0.785564  -0.349896   0.785564  -1.589256
    14  C   -1.589256   7.858034  -1.282513   0.785564  -1.014165   1.088325
    15  C    0.785564  -1.282513   7.858034  -1.589256   1.088325  -1.014165
    16  C   -0.349896   0.785564  -1.589256   7.781063  -1.589256   0.785564
    17  C    0.785564  -1.014165   1.088325  -1.589256   7.858034  -1.282513
    18  C   -1.589256   1.088325  -1.014165   0.785564  -1.282513   7.858034
    19  H    0.387818  -0.022236  -0.005179   0.006268  -0.005179  -0.022236
    20  H    0.006336   0.357581  -0.030914   0.005823   0.004281  -0.006949
    21  H    0.005823  -0.030914   0.357581   0.006336  -0.006949   0.004281
    22  H    0.006268  -0.005179  -0.022236   0.387818  -0.022236  -0.005179
    23  H    0.005823   0.004281  -0.006949   0.006336   0.357581  -0.030914
    24  H    0.006336  -0.006949   0.004281   0.005823  -0.030914   0.357581
              19         20         21         22         23         24
     1  C    0.000411  -0.011360  -0.011360   0.000411  -0.011360  -0.011360
     2  C   -0.000803   0.000888   0.000888  -0.000803   0.003637   0.003637
     3  C    0.000537   0.000558   0.000558   0.000537   0.005267   0.005267
     4  C   -0.000131  -0.000061  -0.000061  -0.000131  -0.000061  -0.000061
     5  C    0.000537   0.005267   0.005267   0.000537   0.000558   0.000558
     6  C   -0.000803   0.003637   0.003637  -0.000803   0.000888   0.000888
     7  H   -0.000832   0.001553   0.001553  -0.000832   0.001553   0.001553
     8  H    0.000016  -0.000004  -0.000004   0.000016  -0.000241  -0.000241
     9  H    0.000000   0.000000   0.000000   0.000000   0.000000   0.000000
    10  H    0.000000   0.000000   0.000000   0.000000   0.000000   0.000000
    11  H    0.000000   0.000000   0.000000   0.000000   0.000000   0.000000
    12  H    0.000016  -0.000241  -0.000241   0.000016  -0.000004  -0.000004
    13  C    0.387818   0.006336   0.005823   0.006268   0.005823   0.006336
    14  C   -0.022236   0.357581  -0.030914  -0.005179   0.004281  -0.006949
    15  C   -0.005179  -0.030914   0.357581  -0.022236  -0.006949   0.004281
    16  C    0.006268   0.005823   0.006336   0.387818   0.006336   0.005823
    17  C   -0.005179   0.004281  -0.006949  -0.022236   0.357581  -0.030914
    18  C   -0.022236  -0.006949   0.004281  -0.005179  -0.030914   0.357581
    19  H    0.540746  -0.007639  -0.000208   0.000053  -0.000208  -0.007639
    20  H   -0.007639   0.544390  -0.006666  -0.000208   0.000064  -0.000172
    21  H   -0.000208  -0.006666   0.544390  -0.007639  -0.000172   0.000064
    22  H    0.000053  -0.000208  -0.007639   0.540746  -0.007639  -0.000208
    23  H   -0.000208   0.000064  -0.000172  -0.007639   0.544390  -0.006666
    24  H   -0.007639  -0.000172   0.000064  -0.000208  -0.006666   0.544390
 Mulliken charges:
               1
     1  C    0.721237
     2  C   -0.330095
     3  C   -0.283500
     4  C   -0.164709
     5  C   -0.283500
     6  C   -0.330095
     7  H    0.116648
     8  H    0.128711
     9  H    0.130554
    10  H    0.130055
    11  H    0.130554
    12  H    0.128711
    13  C   -0.197656
    14  C   -0.126998
    15  C   -0.126998
    16  C   -0.197656
    17  C   -0.126998
    18  C   -0.126998
    19  H    0.136693
    20  H    0.133837
    21  H    0.133837
    22  H    0.136693
    23  H    0.133837
    24  H    0.133837
 Sum of Mulliken charges =   0.00000
 Mulliken charges with hydrogens summed into heavy atoms:
               1
     1  C    0.837884
     2  C   -0.201384
     3  C   -0.152946
     4  C   -0.034654
     5  C   -0.152946
     6  C   -0.201384
    13  C   -0.060963
    14  C    0.006839
    15  C    0.006839
    16  C   -0.060963
    17  C    0.006839
    18  C    0.006839
 APT charges:
               1
     1  C   -0.026142
     2  C   -0.046884
     3  C   -0.033826
     4  C   -0.041078
     5  C   -0.033826
     6  C   -0.046884
     7  H    0.050525
     8  H    0.037706
     9  H    0.030196
    10  H    0.033227
    11  H    0.030196
    12  H    0.037706
    13  C   -0.042526
    14  C   -0.042986
    15  C   -0.042986
    16  C   -0.042526
    17  C   -0.042986
    18  C   -0.042986
    19  H    0.044169
    20  H    0.044436
    21  H    0.044436
    22  H    0.044169
    23  H    0.044436
    24  H    0.044436
 Sum of APT charges =   0.00000
 APT charges with hydrogens summed into heavy atoms:
               1
     1  C    0.024383
     2  C   -0.009178
     3  C   -0.003630
     4  C   -0.007851
     5  C   -0.003630
     6  C   -0.009178
    13  C    0.001643
    14  C    0.001450
    15  C    0.001450
    16  C    0.001643
    17  C    0.001450
    18  C    0.001450
 Electronic spatial extent (au):  <R**2>=           2648.2413
 Charge=              0.0000 electrons
 Dipole moment (field-independent basis, Debye):
    X=              0.0000    Y=              0.0000    Z=             -0.5018  Tot=              0.5018
 Quadrupole moment (field-independent basis, Debye-Ang):
   XX=            -73.1376   YY=            -65.4766   ZZ=            -74.2401
   XY=              0.0000   XZ=              0.0000   YZ=              0.0000
 Traceless Quadrupole moment (field-independent basis, Debye-Ang):
   XX=             -2.1861   YY=              5.4749   ZZ=             -3.2887
   XY=              0.0000   XZ=              0.0000   YZ=              0.0000
 Octapole moment (field-independent basis, Debye-Ang**2):
  XXX=              0.0000  YYY=              0.0000  ZZZ=             52.7549  XYY=              0.0000
  XXY=              0.0000  XXZ=            -21.1165  XZZ=              0.0000  YZZ=              0.0000
  YYZ=             -1.5370  XYZ=              0.0000
 Hexadecapole moment (field-independent basis, Debye-Ang**3):
 XXXX=           -330.7558 YYYY=           -566.1677 ZZZZ=          -2877.7817 XXXY=              0.0000
 XXXZ=              0.0000 YYYX=              0.0000 YYYZ=              0.0000 ZZZX=              0.0000
 ZZZY=              0.0000 XXYY=           -160.4150 XXZZ=           -554.4936 YYZZ=           -537.1997
 XXYZ=              0.0000 YYXZ=              0.0000 ZZXY=              0.0000
 N-N= 5.950138735997D+02 E-N=-2.265068285633D+03  KE= 4.627851599641D+02
 Symmetry A1   KE= 2.232295721928D+02
 Symmetry A2   KE= 4.020705722733D+01
 Symmetry B1   KE= 7.856847589672D+01
 Symmetry B2   KE= 1.207800546473D+02
  Exact polarizability: 113.994   0.000 146.573   0.000   0.000 135.100
 Approx polarizability: 119.681   0.000 150.319   0.000   0.000 119.438
 Calling FoFJK, ICntrl=  10100127 FMM=F ISym2X=1 I1Cent= 0 IOpClX= 0 NMat=1 NMatS=1 NMatT=0.
 ***** Axes restored to original set *****
 -------------------------------------------------------------------
 Center     Atomic                   Forces (Hartrees/Bohr)
 Number     Number              X              Y              Z
 -------------------------------------------------------------------
      1        6           0.000000000    0.000000000    0.000000391
      2        6           0.000000000    0.000006184    0.000038950
      3        6           0.000000000    0.000005434   -0.000028583
      4        6           0.000000000    0.000000000   -0.000029213
      5        6           0.000000000   -0.000005434   -0.000028583
      6        6           0.000000000   -0.000006184    0.000038950
      7        1           0.000000000    0.000000000    0.000000189
      8        1           0.000000000   -0.000001553   -0.000004559
      9        1           0.000000000    0.000000290    0.000004519
     10        1           0.000000000    0.000000000    0.000000946
     11        1           0.000000000   -0.000000290    0.000004519
     12        1           0.000000000    0.000001553   -0.000004559
     13        6          -0.000030288    0.000000000    0.000037263
     14        6           0.000082694   -0.000006214   -0.000005783
     15        6          -0.000082694   -0.000006214   -0.000005783
     16        6           0.000030288    0.000000000    0.000037263
     17        6          -0.000082694    0.000006214   -0.000005783
     18        6           0.000082694    0.000006214   -0.000005783
     19        1           0.000003554    0.000000000   -0.000011639
     20        1          -0.000003899    0.000002770   -0.000005271
     21        1           0.000003899    0.000002770   -0.000005271
     22        1          -0.000003554    0.000000000   -0.000011639
     23        1           0.000003899   -0.000002770   -0.000005271
     24        1          -0.000003899   -0.000002770   -0.000005271
 -------------------------------------------------------------------
 Cartesian Forces:  Max     0.000082694 RMS     0.000023123
 FormGI is forming the generalized inverse of G from B-inverse, IUseBI=4.
 NDeriv=   3 NFrqRd=  0 NDerD0=   0 MskFDP=       0 MskDFD=       0 MskDF0=       0
 At 1st pt F.D. properties file   721 does not exist.
 At 1st pt F.D. properties file   722 does not exist.
 D2Numr ... symmetry will be used.
 Standard basis: 6-311+G(d,p) (5D, 7F)
 The following finite field(s) will be applied:
 An electric field of              0.0003  0.0000  0.0000
   336 basis functions,   528 primitive gaussians,   348 cartesian basis functions
    42 alpha electrons       42 beta electrons
       nuclear repulsion energy       595.0138735997 Hartrees.
 NAtoms=   24 NActive=   24 NUniq=   24 SFac= 1.00D+00 NAtFMM=   60 NAOKFM=F Big=F
 Integral buffers will be    131072 words long.
 Raffenetti 1 integral format.
 Two-electron integral symmetry is turned off.
 One-electron integrals computed using PRISM.
 NBasis=   336 RedAO= T EigKep=  2.79D-06  NBF=   336
 NBsUse=   336 1.00D-06 EigRej= -1.00D+00 NBFU=   336
 The nuclear repulsion energy is now       595.0138735997 hartrees.
 Initial guess from the checkpoint file:  "benzene-mp2freq.chk"
 B after Tr=     0.000000    0.000000    0.000000
         Rot=    1.000000    0.000000    0.000000    0.000000 Ang=   0.00 deg.
 Requested convergence on RMS density matrix=1.00D-08 within 128 cycles.
 Requested convergence on MAX density matrix=1.00D-06.
 Requested convergence on             energy=1.00D-06.
 No special actions if energy rises.
 SCF Done:  E(RHF) =  -461.507170714     A.U. after    8 cycles
            NFock=  8  Conv=0.58D-08     -V/T= 2.0016
 Range of M.O.s used for correlation:     1   336
 NBasis=   336 NAE=    42 NBE=    42 NFC=     0 NFV=     0
 NROrb=    336 NOA=    42 NOB=    42 NVA=   294 NVB=   294

 **** Warning!!: The largest alpha MO coefficient is  0.13778084D+03

 Disk-based method using ON**2 memory for 42 occupieds at a time.
 Permanent disk used for amplitudes=   189557235 words.
 Estimated scratch disk usage=  3077183040 words.
 Actual    scratch disk usage=  2839942720 words.
 JobTyp=1 Pass  1:  I=   1 to  42 NPSUse=  8 ParTrn=T ParDer=T DoDerP=T.
 Spin components of T(2) and E(2):
     alpha-alpha T2 =       0.8707229743D-01 E2=     -0.2301941857D+00
     alpha-beta  T2 =       0.4556452723D+00 E2=     -0.1435981072D+01
     beta-beta   T2 =       0.8707229743D-01 E2=     -0.2301941857D+00
 ANorm=    0.1276632236D+01
 E2 =    -0.1896369444D+01 EUMP2 =    -0.46340354015776D+03
 G2DrvN: will do    25 centers at a time, making    1 passes.
 Calling FoFCou, ICntrl=  3107 FMM=F I1Cent=   0 AccDes= 0.00D+00.
 End of G2Drv F.D. properties file   721 does not exist.
 End of G2Drv F.D. properties file   722 does not exist.
 End of G2Drv F.D. properties file   788 does not exist.
          IDoAtm=111111111111111111111111
          Differentiating once with respect to electric field.
                with respect to dipole field.
          Differentiating once with respect to nuclear coordinates.
          There are    75 degrees of freedom in the 1st order CPHF.  IDoFFX=6 NUNeed=    75.
     72 vectors produced by pass  0 Test12= 1.65D-14 1.33D-09 XBig12= 6.21D+01 2.95D+00.
 AX will form    72 AO Fock derivatives at one time.
     72 vectors produced by pass  1 Test12= 1.65D-14 1.33D-09 XBig12= 3.71D+00 2.81D-01.
     72 vectors produced by pass  2 Test12= 1.65D-14 1.33D-09 XBig12= 5.67D-02 5.98D-02.
     72 vectors produced by pass  3 Test12= 1.65D-14 1.33D-09 XBig12= 5.89D-04 4.63D-03.
     72 vectors produced by pass  4 Test12= 1.65D-14 1.33D-09 XBig12= 5.32D-06 3.36D-04.
     72 vectors produced by pass  5 Test12= 1.65D-14 1.33D-09 XBig12= 4.64D-08 3.32D-05.
     72 vectors produced by pass  6 Test12= 1.65D-14 1.33D-09 XBig12= 3.35D-10 2.90D-06.
     39 vectors produced by pass  7 Test12= 1.65D-14 1.33D-09 XBig12= 2.51D-12 2.12D-07.
      3 vectors produced by pass  8 Test12= 1.65D-14 1.33D-09 XBig12= 1.41D-14 1.90D-08.
      3 vectors produced by pass  9 Test12= 1.65D-14 1.33D-09 XBig12= 1.46D-15 1.97D-08.
      2 vectors produced by pass 10 Test12= 1.65D-14 1.33D-09 XBig12= 6.90D-16 1.18D-08.
 InvSVY:  IOpt=1 It=  1 EMax= 2.68D-15
 Solved reduced A of dimension   551 with    75 vectors.
 End of Minotr F.D. properties file   721 does not exist.
 End of Minotr F.D. properties file   722 does not exist.
 End of Minotr F.D. properties file   788 does not exist.
 MDV=  1073741824.
 Form MO integral derivatives with frozen-active canonical formalism.
 Discarding MO integrals.
 Reordered first order wavefunction length =    304946208
 In DefCFB: NBatch=  1 ICI= 42 ICA=294 LFMax= 37
            Large arrays: LIAPS=  5775307776 LIARS=   691833744 words.
 Semi-Direct transformation.
 ModeAB=           4 MOrb=            42 LenV=    1071060269
 LASXX=    732400662 LTotXX=   732400662 LenRXX=  1471469034
 LTotAB=   739068372 MaxLAS=   746750592 LenRXY=           0
 NonZer=  2203869696 LenScr=  3306946560 LnRSAI=   746750592
 LnScr1=  1120665600 LExtra=           0 Total=   6645831786
 MaxDsk=          -1 SrtSym=           T ITran=            4
 JobTyp=0 Pass  1:  I=   1 to  42.
 (rs|ai) integrals will be sorted in core.
 Spin components of T(2) and E(2):
     alpha-alpha T2 =       0.8707229743D-01 E2=     -0.2301941857D+00
     alpha-beta  T2 =       0.4556452722D+00 E2=     -0.1435981072D+01
     beta-beta   T2 =       0.8707229743D-01 E2=     -0.2301941857D+00
 ANorm=    0.1805430623D+01
 E2 =    -0.1896369444D+01 EUMP2 =    -0.46340354015772D+03
          IDoAtm=111111111111111111111111
          Differentiating once with respect to electric field.
                with respect to dipole field.
          Differentiating once with respect to nuclear coordinates.
          There are     1 degrees of freedom in the 1st order CPHF.  IDoFFX=0 NUNeed=     1.
 LinEq1:  Iter=  0 NonCon=     1 RMS=2.48D-03 Max=7.15D-02 NDo=     1
 LinEq1:  Iter=  1 NonCon=     1 RMS=5.98D-04 Max=1.48D-02 NDo=     1
 LinEq1:  Iter=  2 NonCon=     1 RMS=1.69D-04 Max=5.28D-03 NDo=     1
 LinEq1:  Iter=  3 NonCon=     1 RMS=3.74D-05 Max=9.78D-04 NDo=     1
 LinEq1:  Iter=  4 NonCon=     1 RMS=9.36D-06 Max=4.60D-04 NDo=     1
 LinEq1:  Iter=  5 NonCon=     1 RMS=4.04D-06 Max=2.60D-04 NDo=     1
 LinEq1:  Iter=  6 NonCon=     1 RMS=1.71D-06 Max=5.30D-05 NDo=     1
 LinEq1:  Iter=  7 NonCon=     1 RMS=2.94D-07 Max=8.45D-06 NDo=     1
 LinEq1:  Iter=  8 NonCon=     1 RMS=1.13D-07 Max=2.21D-06 NDo=     1
 LinEq1:  Iter=  9 NonCon=     1 RMS=1.61D-08 Max=2.64D-07 NDo=     1
 LinEq1:  Iter= 10 NonCon=     1 RMS=4.63D-09 Max=1.33D-07 NDo=     1
 LinEq1:  Iter= 11 NonCon=     1 RMS=1.31D-09 Max=2.38D-08 NDo=     1
 LinEq1:  Iter= 12 NonCon=     1 RMS=3.29D-10 Max=6.55D-09 NDo=     1
 LinEq1:  Iter= 13 NonCon=     1 RMS=8.75D-11 Max=1.11D-09 NDo=     1
 LinEq1:  Iter= 14 NonCon=     0 RMS=1.28D-11 Max=2.69D-10 NDo=     1
 Linear equations converged to 1.000D-10 1.000D-09 after    14 iterations.
 End of Minotr F.D. properties file   721 does not exist.
 End of Minotr F.D. properties file   722 does not exist.
 End of Minotr F.D. properties file   788 does not exist.
 Symmetrizing basis deriv contribution to polar:
 IMax=3 JMax=2 DiffMx= 0.00D+00
 G2DrvN: will do    25 centers at a time, making    1 passes.
 Calling FoFCou, ICntrl=  3107 FMM=F I1Cent=   0 AccDes= 0.00D+00.
 End of G2Drv F.D. properties file   721 does not exist.
 End of G2Drv F.D. properties file   722 does not exist.
 End of G2Drv F.D. properties file   788 does not exist.
 Would need an additional  2635220608 words for in-memory AO integral storage.
 DD1Dir will call FoFJK   2 times, MxPair=       904
 NAB=   903 NAA=     0 NBB=     0 NumPrc=  8.
 FoFJK:  IHMeth= 1 ICntrl=     200 DoSepK=F KAlg= 0 I1Cent=   0 FoldK=F
 IRaf= 990000000 NMat= 904 IRICut=    1130 DoRegI=T DoRafI=T ISym2E= 0.
 FoFCou: FMM=F IPFlag=           0 FMFlag=           0 FMFlg1=           0
         NFxFlg=           0 DoJE=F BraDBF=F KetDBF=F FulRan=T
         wScrn=  0.000000 ICntrl=     200 IOpCl=  0 I1Cent=           0 NGrid=           0
         NMat0=  904 NMatS0=      0 NMatT0=  452 NMatD0=  904 NMtDS0=    0 NMtDT0=    0
 Symmetry not used in FoFCou.
 Discarding MO integrals.

 **********************************************************************

            Population analysis using the MP2 density.

 **********************************************************************

 Alpha  occ. eigenvalues --  -11.24601 -11.24549 -11.24530 -11.24426 -11.24417
 Alpha  occ. eigenvalues --  -11.24353 -11.23273 -11.23224 -11.23093 -11.22954
 Alpha  occ. eigenvalues --  -11.22941 -11.22492  -1.15589  -1.14032  -1.02049
 Alpha  occ. eigenvalues --   -1.02022  -1.00606  -1.00545  -0.82931  -0.82925
 Alpha  occ. eigenvalues --   -0.81545  -0.81523  -0.71426  -0.70056  -0.64948
 Alpha  occ. eigenvalues --   -0.63675  -0.62410  -0.60990  -0.59386  -0.59360
 Alpha  occ. eigenvalues --   -0.58284  -0.58015  -0.50974  -0.50086  -0.50064
 Alpha  occ. eigenvalues --   -0.49151  -0.48684  -0.47730  -0.34556  -0.34355
 Alpha  occ. eigenvalues --   -0.32839  -0.32372
 Alpha virt. eigenvalues --    0.06304   0.07150   0.07551   0.07793   0.08899
 Alpha virt. eigenvalues --    0.08999   0.09307   0.09907   0.09990   0.10248
 Alpha virt. eigenvalues --    0.11376   0.11650   0.12118   0.12455   0.12571
 Alpha virt. eigenvalues --    0.12986   0.14378   0.15203   0.15736   0.15769
 Alpha virt. eigenvalues --    0.16006   0.16585   0.18776   0.19649   0.19675
 Alpha virt. eigenvalues --    0.19834   0.20293   0.20516   0.21480   0.22196
 Alpha virt. eigenvalues --    0.22259   0.22415   0.23591   0.24707   0.24765
 Alpha virt. eigenvalues --    0.24896   0.25208   0.25317   0.26955   0.27198
 Alpha virt. eigenvalues --    0.27912   0.28412   0.28809   0.29060   0.29293
 Alpha virt. eigenvalues --    0.29579   0.30175   0.30948   0.31306   0.32170
 Alpha virt. eigenvalues --    0.32569   0.32752   0.32840   0.33008   0.35187
 Alpha virt. eigenvalues --    0.35969   0.36153   0.36416   0.37045   0.37079
 Alpha virt. eigenvalues --    0.37999   0.38054   0.39059   0.39699   0.40369
 Alpha virt. eigenvalues --    0.40631   0.47656   0.47765   0.48361   0.48488
 Alpha virt. eigenvalues --    0.49224   0.50390   0.52056   0.52711   0.57067
 Alpha virt. eigenvalues --    0.60142   0.60382   0.69069   0.69398   0.69635
 Alpha virt. eigenvalues --    0.71699   0.72266   0.72795   0.73357   0.74218
 Alpha virt. eigenvalues --    0.74332   0.74348   0.75565   0.76082   0.76173
 Alpha virt. eigenvalues --    0.76876   0.77096   0.78267   0.80481   0.82265
 Alpha virt. eigenvalues --    0.82352   0.83982   0.84767   0.84822   0.86357
 Alpha virt. eigenvalues --    0.86358   0.88425   0.90467   0.91131   0.91911
 Alpha virt. eigenvalues --    0.91991   0.92444   0.92933   0.93008   0.93171
 Alpha virt. eigenvalues --    0.94232   0.94968   0.96467   0.97760   0.98810
 Alpha virt. eigenvalues --    1.00042   1.00368   1.00880   1.01218   1.01336
 Alpha virt. eigenvalues --    1.03529   1.03669   1.04651   1.08467   1.09039
 Alpha virt. eigenvalues --    1.09919   1.10795   1.10987   1.11473   1.12036
 Alpha virt. eigenvalues --    1.17849   1.20111   1.20234   1.20368   1.22195
 Alpha virt. eigenvalues --    1.22562   1.23879   1.24998   1.26352   1.31821
 Alpha virt. eigenvalues --    1.33168   1.35001   1.37555   1.38303   1.38669
 Alpha virt. eigenvalues --    1.39915   1.41067   1.41571   1.49595   1.51932
 Alpha virt. eigenvalues --    1.58443   1.68812   1.70575   1.75174   1.76499
 Alpha virt. eigenvalues --    1.77086   1.77129   1.78654   1.79764   1.81183
 Alpha virt. eigenvalues --    1.82684   1.83418   1.83713   1.84305   1.85280
 Alpha virt. eigenvalues --    1.85300   1.90486   1.90788   1.92089   1.92180
 Alpha virt. eigenvalues --    1.92222   1.92296   1.96028   1.96704   2.01078
 Alpha virt. eigenvalues --    2.02579   2.05100   2.06031   2.06338   2.08200
 Alpha virt. eigenvalues --    2.09027   2.09353   2.09663   2.12140   2.12176
 Alpha virt. eigenvalues --    2.13885   2.22780   2.22944   2.23325   2.24163
 Alpha virt. eigenvalues --    2.24250   2.24809   2.24979   2.25772   2.26796
 Alpha virt. eigenvalues --    2.28236   2.28651   2.29641   2.33109   2.33706
 Alpha virt. eigenvalues --    2.36506   2.36819   2.37754   2.38208   2.38507
 Alpha virt. eigenvalues --    2.41561   2.62620   2.64792   2.64937   2.66289
 Alpha virt. eigenvalues --    2.71347   2.71887   2.72948   2.73342   2.74734
 Alpha virt. eigenvalues --    2.76430   2.77124   2.80098   2.81242   2.84315
 Alpha virt. eigenvalues --    2.93591   2.94034   2.95342   2.96459   2.97612
 Alpha virt. eigenvalues --    2.98179   2.99186   3.02452   3.03481   3.04686
 Alpha virt. eigenvalues --    3.05172   3.05782   3.05933   3.06772   3.07015
 Alpha virt. eigenvalues --    3.08247   3.08513   3.10179   3.11057   3.17864
 Alpha virt. eigenvalues --    3.19862   3.20176   3.23801   3.23808   3.24534
 Alpha virt. eigenvalues --    3.27527   3.28307   3.29075   3.29568   3.30127
 Alpha virt. eigenvalues --    3.31208   3.31930   3.32517   3.35156   3.47124
 Alpha virt. eigenvalues --    3.49630   3.53113   3.59333   3.76368   3.76586
 Alpha virt. eigenvalues --    3.77690   3.79591   3.90901   3.91358   3.91442
 Alpha virt. eigenvalues --    3.94315   3.95136   3.99243   4.04719   4.07182
 Alpha virt. eigenvalues --    4.38246   4.38448   4.39882   4.41288   4.47913
 Alpha virt. eigenvalues --    4.49680   4.56110   4.56539   4.57950   4.61267
 Alpha virt. eigenvalues --    5.26233   5.28511  24.74921  24.79171  25.10844
 Alpha virt. eigenvalues --   25.11909  25.12400  25.13408  25.23057  25.23135
 Alpha virt. eigenvalues --   25.24767  25.25010  25.33881  25.35725
          Condensed to atoms (all electrons):
               1          2          3          4          5          6
     1  C   12.640295  -2.348256  -0.370033  -1.323621  -0.370033  -2.348256
     2  C   -2.348256  16.357796  -3.762448   0.496268  -2.513605  -2.407130
     3  C   -0.370033  -3.762448  10.835793  -0.148248   1.874886  -2.513605
     4  C   -1.323621   0.496268  -0.148248   6.397506  -0.148248   0.496268
     5  C   -0.370033  -2.513605   1.874886  -0.148248  10.835793  -3.762448
     6  C   -2.348256  -2.407130  -2.513605   0.496268  -3.762448  16.357796
     7  H   -0.118978  -0.045379   0.143209   0.015083   0.143209  -0.045379
     8  H    0.078474   0.364181  -0.098486  -0.009958  -0.009935   0.004431
     9  H   -0.007177  -0.029919   0.377141   0.000704  -0.004577  -0.007127
    10  H    0.018095  -0.023685  -0.006653   0.374175  -0.006653  -0.023685
    11  H   -0.007177  -0.007127  -0.004577   0.000704   0.377141  -0.029919
    12  H    0.078474   0.004431  -0.009935  -0.009958  -0.098486   0.364181
    13  C   -0.798522   0.136026   0.167403   0.006940   0.167403   0.136026
    14  C    0.250022  -0.259903  -0.036977   0.002608  -0.153840   0.242909
    15  C    0.249584  -0.256609  -0.036338   0.002615  -0.152966   0.237941
    16  C   -0.799123   0.137163   0.166454   0.007154   0.166454   0.137163
    17  C    0.249584   0.237941  -0.152966   0.002615  -0.036338  -0.256609
    18  C    0.250022   0.242909  -0.153840   0.002608  -0.036977  -0.259903
    19  H    0.000378  -0.000794   0.000539  -0.000130   0.000539  -0.000794
    20  H   -0.011371   0.000899   0.000562  -0.000062   0.005289   0.003606
    21  H   -0.011350   0.000878   0.000555  -0.000059   0.005245   0.003668
    22  H    0.000443  -0.000813   0.000535  -0.000132   0.000535  -0.000813
    23  H   -0.011350   0.003668   0.005245  -0.000059   0.000555   0.000878
    24  H   -0.011371   0.003606   0.005289  -0.000062   0.000562   0.000899
               7          8          9         10         11         12
     1  C   -0.118978   0.078474  -0.007177   0.018095  -0.007177   0.078474
     2  C   -0.045379   0.364181  -0.029919  -0.023685  -0.007127   0.004431
     3  C    0.143209  -0.098486   0.377141  -0.006653  -0.004577  -0.009935
     4  C    0.015083  -0.009958   0.000704   0.374175   0.000704  -0.009958
     5  C    0.143209  -0.009935  -0.004577  -0.006653   0.377141  -0.098486
     6  C   -0.045379   0.004431  -0.007127  -0.023685  -0.029919   0.364181
     7  H    0.790539  -0.017888  -0.000179   0.000038  -0.000179  -0.017888
     8  H   -0.017888   0.564993  -0.007272  -0.000226   0.000067  -0.000094
     9  H   -0.000179  -0.007272   0.555333  -0.007575  -0.000220   0.000067
    10  H    0.000038  -0.000226  -0.007575   0.553924  -0.007575  -0.000226
    11  H   -0.000179   0.000067  -0.000220  -0.007575   0.555333  -0.007272
    12  H   -0.017888  -0.000094   0.000067  -0.000226  -0.007272   0.564993
    13  C    0.155462  -0.007873   0.000060  -0.000039   0.000060  -0.007873
    14  C   -0.070196   0.002379   0.000013   0.000016   0.000060   0.007513
    15  C   -0.069122   0.002176   0.000008   0.000020   0.000038   0.006899
    16  C    0.155771  -0.007635   0.000070  -0.000044   0.000070  -0.007635
    17  C   -0.069122   0.006899   0.000038   0.000020   0.000008   0.002176
    18  C   -0.070196   0.007513   0.000060   0.000016   0.000013   0.002379
    19  H   -0.000827   0.000016   0.000000   0.000000   0.000000   0.000016
    20  H    0.001559  -0.000004   0.000000   0.000000   0.000000  -0.000242
    21  H    0.001547  -0.000004   0.000000   0.000000   0.000000  -0.000240
    22  H   -0.000837   0.000016   0.000000   0.000000   0.000000   0.000016
    23  H    0.001547  -0.000240   0.000000   0.000000   0.000000  -0.000004
    24  H    0.001559  -0.000242   0.000000   0.000000   0.000000  -0.000004
              13         14         15         16         17         18
     1  C   -0.798522   0.250022   0.249584  -0.799123   0.249584   0.250022
     2  C    0.136026  -0.259903  -0.256609   0.137163   0.237941   0.242909
     3  C    0.167403  -0.036977  -0.036338   0.166454  -0.152966  -0.153840
     4  C    0.006940   0.002608   0.002615   0.007154   0.002615   0.002608
     5  C    0.167403  -0.153840  -0.152966   0.166454  -0.036338  -0.036977
     6  C    0.136026   0.242909   0.237941   0.137163  -0.256609  -0.259903
     7  H    0.155462  -0.070196  -0.069122   0.155771  -0.069122  -0.070196
     8  H   -0.007873   0.002379   0.002176  -0.007635   0.006899   0.007513
     9  H    0.000060   0.000013   0.000008   0.000070   0.000038   0.000060
    10  H   -0.000039   0.000016   0.000020  -0.000044   0.000020   0.000016
    11  H    0.000060   0.000060   0.000038   0.000070   0.000008   0.000013
    12  H   -0.007873   0.007513   0.006899  -0.007635   0.002176   0.002379
    13  C    7.786990  -1.591693   0.785678  -0.349969   0.785678  -1.591693
    14  C   -1.591693   7.862468  -1.282681   0.785622  -1.014273   1.087671
    15  C    0.785678  -1.282681   7.854013  -1.587050   1.089173  -1.014273
    16  C   -0.349969   0.785622  -1.587050   7.775430  -1.587050   0.785622
    17  C    0.785678  -1.014273   1.089173  -1.587050   7.854013  -1.282681
    18  C   -1.591693   1.087671  -1.014273   0.785622  -1.282681   7.862468
    19  H    0.386684  -0.021301  -0.005865   0.006501  -0.005865  -0.021301
    20  H    0.005849   0.356817  -0.029360   0.005595   0.004385  -0.007353
    21  H    0.006054  -0.032446   0.358330   0.006816  -0.006550   0.004178
    22  H    0.006037  -0.004503  -0.023154   0.388928  -0.023154  -0.004503
    23  H    0.006054   0.004178  -0.006550   0.006816   0.358330  -0.032446
    24  H    0.005849  -0.007353   0.004385   0.005595  -0.029360   0.356817
              19         20         21         22         23         24
     1  C    0.000378  -0.011371  -0.011350   0.000443  -0.011350  -0.011371
     2  C   -0.000794   0.000899   0.000878  -0.000813   0.003668   0.003606
     3  C    0.000539   0.000562   0.000555   0.000535   0.005245   0.005289
     4  C   -0.000130  -0.000062  -0.000059  -0.000132  -0.000059  -0.000062
     5  C    0.000539   0.005289   0.005245   0.000535   0.000555   0.000562
     6  C   -0.000794   0.003606   0.003668  -0.000813   0.000878   0.000899
     7  H   -0.000827   0.001559   0.001547  -0.000837   0.001547   0.001559
     8  H    0.000016  -0.000004  -0.000004   0.000016  -0.000240  -0.000242
     9  H    0.000000   0.000000   0.000000   0.000000   0.000000   0.000000
    10  H    0.000000   0.000000   0.000000   0.000000   0.000000   0.000000
    11  H    0.000000   0.000000   0.000000   0.000000   0.000000   0.000000
    12  H    0.000016  -0.000242  -0.000240   0.000016  -0.000004  -0.000004
    13  C    0.386684   0.005849   0.006054   0.006037   0.006054   0.005849
    14  C   -0.021301   0.356817  -0.032446  -0.004503   0.004178  -0.007353
    15  C   -0.005865  -0.029360   0.358330  -0.023154  -0.006550   0.004385
    16  C    0.006501   0.005595   0.006816   0.388928   0.006816   0.005595
    17  C   -0.005865   0.004385  -0.006550  -0.023154   0.358330  -0.029360
    18  C   -0.021301  -0.007353   0.004178  -0.004503  -0.032446   0.356817
    19  H    0.542861  -0.007690  -0.000208   0.000053  -0.000208  -0.007690
    20  H   -0.007690   0.545490  -0.006666  -0.000207   0.000064  -0.000174
    21  H   -0.000208  -0.006666   0.543292  -0.007589  -0.000171   0.000064
    22  H    0.000053  -0.000207  -0.007589   0.538639  -0.007589  -0.000207
    23  H   -0.000208   0.000064  -0.000171  -0.007589   0.543292  -0.006666
    24  H   -0.007690  -0.000174   0.000064  -0.000207  -0.006666   0.545490
 Mulliken charges:
               1
     1  C    0.721248
     2  C   -0.330097
     3  C   -0.283505
     4  C   -0.164711
     5  C   -0.283505
     6  C   -0.330097
     7  H    0.116647
     8  H    0.128713
     9  H    0.130556
    10  H    0.130056
    11  H    0.130556
    12  H    0.128713
    13  C   -0.196589
    14  C   -0.127110
    15  C   -0.126888
    16  C   -0.198717
    17  C   -0.126888
    18  C   -0.127110
    19  H    0.135086
    20  H    0.133018
    21  H    0.134656
    22  H    0.138298
    23  H    0.134656
    24  H    0.133018
 Sum of Mulliken charges =   0.00000
 Mulliken charges with hydrogens summed into heavy atoms:
               1
     1  C    0.837895
     2  C   -0.201384
     3  C   -0.152950
     4  C   -0.034654
     5  C   -0.152950
     6  C   -0.201384
    13  C   -0.061504
    14  C    0.005908
    15  C    0.007768
    16  C   -0.060420
    17  C    0.007768
    18  C    0.005908
 APT charges:
               1
     1  C   -0.026142
     2  C   -0.046885
     3  C   -0.033827
     4  C   -0.041079
     5  C   -0.033827
     6  C   -0.046885
     7  H    0.050525
     8  H    0.037706
     9  H    0.030196
    10  H    0.033228
    11  H    0.030196
    12  H    0.037706
    13  C   -0.042922
    14  C   -0.043180
    15  C   -0.042794
    16  C   -0.042126
    17  C   -0.042794
    18  C   -0.043180
    19  H    0.042822
    20  H    0.043770
    21  H    0.045103
    22  H    0.045514
    23  H    0.045103
    24  H    0.043770
 Sum of APT charges =   0.00000
 APT charges with hydrogens summed into heavy atoms:
               1
     1  C    0.024383
     2  C   -0.009178
     3  C   -0.003630
     4  C   -0.007851
     5  C   -0.003630
     6  C   -0.009178
    13  C   -0.000100
    14  C    0.000590
    15  C    0.002309
    16  C    0.003387
    17  C    0.002309
    18  C    0.000590
 Electronic spatial extent (au):  <R**2>=           2648.2417
 Charge=              0.0000 electrons
 Dipole moment (field-independent basis, Debye):
    X=             -0.0966    Y=              0.0000    Z=             -0.5018  Tot=              0.5110
 Quadrupole moment (field-independent basis, Debye-Ang):
   XX=            -73.1379   YY=            -65.4766   ZZ=            -74.2402
   XY=              0.0000   XZ=              0.0741   YZ=              0.0000
 Traceless Quadrupole moment (field-independent basis, Debye-Ang):
   XX=             -2.1863   YY=              5.4750   ZZ=             -3.2887
   XY=              0.0000   XZ=              0.0741   YZ=              0.0000
 Octapole moment (field-independent basis, Debye-Ang**2):
  XXX=             -0.4682  YYY=              0.0000  ZZZ=             52.7551  XYY=             -0.1949
  XXY=              0.0000  XXZ=            -21.1164  XZZ=             -0.7001  YZZ=              0.0000
  YYZ=             -1.5370  XYZ=              0.0000
 Hexadecapole moment (field-independent basis, Debye-Ang**3):
 XXXX=           -330.7590 YYYY=           -566.1683 ZZZZ=          -2877.7855 XXXY=              0.0000
 XXXZ=              0.7004 YYYX=              0.0000 YYYZ=              0.0000 ZZZX=              0.3467
 ZZZY=              0.0000 XXYY=           -160.4157 XXZZ=           -554.4962 YYZZ=           -537.2002
 XXYZ=              0.0000 YYXZ=              0.1422 ZZXY=              0.0000
 N-N= 5.950138735997D+02 E-N=-2.265068237150D+03  KE= 4.627851555245D+02
  Exact polarizability: 113.995   0.000 146.574   0.000   0.000 135.101
 Approx polarizability: 119.682   0.000 150.320   0.007   0.000 119.439
 -------------------------------------------------------------------
 Center     Atomic                   Forces (Hartrees/Bohr)
 Number     Number              X              Y              Z
 -------------------------------------------------------------------
      1        6           0.000034478    0.000000000    0.000000298
      2        6           0.000041049   -0.000006071    0.000038858
      3        6           0.000048934   -0.000005289   -0.000028519
      4        6           0.000048930    0.000000000   -0.000029055
      5        6           0.000048934    0.000005289   -0.000028519
      6        6           0.000041049    0.000006071    0.000038858
      7        1          -0.000023660    0.000000000    0.000000171
      8        1          -0.000041329    0.000001581   -0.000004565
      9        1          -0.000046375   -0.000000259    0.000004540
     10        1          -0.000047149    0.000000000    0.000000992
     11        1          -0.000046375    0.000000259    0.000004540
     12        1          -0.000041329   -0.000001581   -0.000004565
     13        6          -0.000001463    0.000000000    0.000031926
     14        6          -0.000074925    0.000028561   -0.000007364
     15        6           0.000090515   -0.000016399   -0.000004217
     16        6          -0.000062149    0.000000000    0.000042543
     17        6           0.000090515    0.000016399   -0.000004217
     18        6          -0.000074925   -0.000028561   -0.000007364
     19        1           0.000022848    0.000000000   -0.000007828
     20        1          -0.000005042   -0.000023614   -0.000003561
     21        1          -0.000013125    0.000017822   -0.000006983
     22        1           0.000028760    0.000000000   -0.000015425
     23        1          -0.000013125   -0.000017822   -0.000006983
     24        1          -0.000005042    0.000023614   -0.000003561
 -------------------------------------------------------------------
 Cartesian Forces:  Max     0.000090515 RMS     0.000030842
 NDeriv=   3 NFrqRd=  0 NDerD0=   0 MskFDP=       0 MskDFD=       0 MskDF0=       0
 Re-enter D2Numr: IAtom=  0 IXYZ=1 IStep= 1.
 Skip step-back as it is equivalent to step-up.
 Standard basis: 6-311+G(d,p) (5D, 7F)
 The following finite field(s) will be applied:
 An electric field of              0.0000  0.0003  0.0000
   336 basis functions,   528 primitive gaussians,   348 cartesian basis functions
    42 alpha electrons       42 beta electrons
       nuclear repulsion energy       595.0138735997 Hartrees.
 NAtoms=   24 NActive=   24 NUniq=   24 SFac= 1.00D+00 NAtFMM=   60 NAOKFM=F Big=F
 Integral buffers will be    131072 words long.
 Raffenetti 1 integral format.
 Two-electron integral symmetry is turned off.
 One-electron integrals computed using PRISM.
 NBasis=   336 RedAO= T EigKep=  2.79D-06  NBF=   336
 NBsUse=   336 1.00D-06 EigRej= -1.00D+00 NBFU=   336
 The nuclear repulsion energy is now       595.0138735997 hartrees.
 Initial guess from the checkpoint file:  "benzene-mp2freq.chk"
 B after Tr=     0.000000    0.000000    0.000000
         Rot=    1.000000    0.000000    0.000000    0.000000 Ang=   0.00 deg.
 Requested convergence on RMS density matrix=1.00D-08 within 128 cycles.
 Requested convergence on MAX density matrix=1.00D-06.
 Requested convergence on             energy=1.00D-06.
 No special actions if energy rises.
 SCF Done:  E(RHF) =  -461.507172427     A.U. after    9 cycles
            NFock=  9  Conv=0.32D-08     -V/T= 2.0016
 Range of M.O.s used for correlation:     1   336
 NBasis=   336 NAE=    42 NBE=    42 NFC=     0 NFV=     0
 NROrb=    336 NOA=    42 NOB=    42 NVA=   294 NVB=   294

 **** Warning!!: The largest alpha MO coefficient is  0.13769715D+03

 Disk-based method using ON**2 memory for 42 occupieds at a time.
 Permanent disk used for amplitudes=   189557235 words.
 Estimated scratch disk usage=  3077183040 words.
 Actual    scratch disk usage=  2839942720 words.
 JobTyp=1 Pass  1:  I=   1 to  42 NPSUse=  8 ParTrn=T ParDer=T DoDerP=T.
 Spin components of T(2) and E(2):
     alpha-alpha T2 =       0.8707230402D-01 E2=     -0.2301942031D+00
     alpha-beta  T2 =       0.4556453013D+00 E2=     -0.1435981135D+01
     beta-beta   T2 =       0.8707230402D-01 E2=     -0.2301942031D+00
 ANorm=    0.1276632253D+01
 E2 =    -0.1896369542D+01 EUMP2 =    -0.46340354196826D+03
 G2DrvN: will do    25 centers at a time, making    1 passes.
 Calling FoFCou, ICntrl=  3107 FMM=F I1Cent=   0 AccDes= 0.00D+00.
 End of G2Drv F.D. properties file   721 does not exist.
 End of G2Drv F.D. properties file   722 does not exist.
 End of G2Drv F.D. properties file   788 does not exist.
          IDoAtm=111111111111111111111111
          Differentiating once with respect to electric field.
                with respect to dipole field.
          Differentiating once with respect to nuclear coordinates.
          There are    75 degrees of freedom in the 1st order CPHF.  IDoFFX=6 NUNeed=    75.
     72 vectors produced by pass  0 Test12= 1.65D-14 1.33D-09 XBig12= 6.21D+01 2.95D+00.
 AX will form    72 AO Fock derivatives at one time.
     72 vectors produced by pass  1 Test12= 1.65D-14 1.33D-09 XBig12= 3.71D+00 2.76D-01.
     72 vectors produced by pass  2 Test12= 1.65D-14 1.33D-09 XBig12= 5.67D-02 5.98D-02.
     72 vectors produced by pass  3 Test12= 1.65D-14 1.33D-09 XBig12= 5.89D-04 4.59D-03.
     72 vectors produced by pass  4 Test12= 1.65D-14 1.33D-09 XBig12= 5.32D-06 3.35D-04.
     72 vectors produced by pass  5 Test12= 1.65D-14 1.33D-09 XBig12= 4.65D-08 3.01D-05.
     72 vectors produced by pass  6 Test12= 1.65D-14 1.33D-09 XBig12= 3.36D-10 2.90D-06.
     39 vectors produced by pass  7 Test12= 1.65D-14 1.33D-09 XBig12= 2.52D-12 2.20D-07.
      3 vectors produced by pass  8 Test12= 1.65D-14 1.33D-09 XBig12= 1.43D-14 1.86D-08.
      3 vectors produced by pass  9 Test12= 1.65D-14 1.33D-09 XBig12= 1.46D-15 1.99D-08.
      1 vectors produced by pass 10 Test12= 1.65D-14 1.33D-09 XBig12= 6.32D-16 1.04D-08.
 InvSVY:  IOpt=1 It=  1 EMax= 3.55D-15
 Solved reduced A of dimension   550 with    75 vectors.
 End of Minotr F.D. properties file   721 does not exist.
 End of Minotr F.D. properties file   722 does not exist.
 End of Minotr F.D. properties file   788 does not exist.
 MDV=  1073741824.
 Form MO integral derivatives with frozen-active canonical formalism.
 Discarding MO integrals.
 Reordered first order wavefunction length =    304946208
 In DefCFB: NBatch=  1 ICI= 42 ICA=294 LFMax= 37
            Large arrays: LIAPS=  5775307776 LIARS=   691833744 words.
