 Entering Gaussian System, Link 0=g09
 Initial command:
 /cluster/software/gaussian/gaussian-09-D.01/g09/l1.exe "/local/scratch/epktb/Gau-26162.inp" -scrdir="/local/scratch/epktb/"
 Entering Link 1 = /cluster/software/gaussian/gaussian-09-D.01/g09/l1.exe PID=     26163.
  
 Copyright (c) 1988,1990,1992,1993,1995,1998,2003,2009,2013,
            Gaussian, Inc.  All Rights Reserved.
  
 This is part of the Gaussian(R) 09 program.  It is based on
 the Gaussian(R) 03 system (copyright 2003, Gaussian, Inc.),
 the Gaussian(R) 98 system (copyright 1998, Gaussian, Inc.),
 the Gaussian(R) 94 system (copyright 1995, Gaussian, Inc.),
 the Gaussian 92(TM) system (copyright 1992, Gaussian, Inc.),
 the Gaussian 90(TM) system (copyright 1990, Gaussian, Inc.),
 the Gaussian 88(TM) system (copyright 1988, Gaussian, Inc.),
 the Gaussian 86(TM) system (copyright 1986, Carnegie Mellon
 University), and the Gaussian 82(TM) system (copyright 1983,
 Carnegie Mellon University). Gaussian is a federally registered
 trademark of Gaussian, Inc.
  
 This software contains proprietary and confidential information,
 including trade secrets, belonging to Gaussian, Inc.
  
 This software is provided under written license and may be
 used, copied, transmitted, or stored only in accord with that
 written license.
  
 The following legend is applicable only to US Government
 contracts under FAR:
  
                    RESTRICTED RIGHTS LEGEND
  
 Use, reproduction and disclosure by the US Government is
 subject to restrictions as set forth in subparagraphs (a)
 and (c) of the Commercial Computer Software - Restricted
 Rights clause in FAR 52.227-19.
  
 Gaussian, Inc.
 340 Quinnipiac St., Bldg. 40, Wallingford CT 06492
  
  
 ---------------------------------------------------------------
 Warning -- This program may not be used in any manner that
 competes with the business of Gaussian, Inc. or will provide
 assistance to any competitor of Gaussian, Inc.  The licensee
 of this program is prohibited from giving any competitor of
 Gaussian, Inc. access to this program.  By using this program,
 the user acknowledges that Gaussian, Inc. is engaged in the
 business of creating and licensing software in the field of
 computational chemistry and represents and warrants to the
 licensee that it is not a competitor of Gaussian, Inc. and that
 it will not use this program in any manner prohibited above.
 ---------------------------------------------------------------
  

 Cite this work as:
 Gaussian 09, Revision D.01,
 M. J. Frisch, G. W. Trucks, H. B. Schlegel, G. E. Scuseria, 
 M. A. Robb, J. R. Cheeseman, G. Scalmani, V. Barone, B. Mennucci, 
 G. A. Petersson, H. Nakatsuji, M. Caricato, X. Li, H. P. Hratchian, 
 A. F. Izmaylov, J. Bloino, G. Zheng, J. L. Sonnenberg, M. Hada, 
 M. Ehara, K. Toyota, R. Fukuda, J. Hasegawa, M. Ishida, T. Nakajima, 
 Y. Honda, O. Kitao, H. Nakai, T. Vreven, J. A. Montgomery, Jr., 
 J. E. Peralta, F. Ogliaro, M. Bearpark, J. J. Heyd, E. Brothers, 
 K. N. Kudin, V. N. Staroverov, T. Keith, R. Kobayashi, J. Normand, 
 K. Raghavachari, A. Rendell, J. C. Burant, S. S. Iyengar, J. Tomasi, 
 M. Cossi, N. Rega, J. M. Millam, M. Klene, J. E. Knox, J. B. Cross, 
 V. Bakken, C. Adamo, J. Jaramillo, R. Gomperts, R. E. Stratmann, 
 O. Yazyev, A. J. Austin, R. Cammi, C. Pomelli, J. W. Ochterski, 
 R. L. Martin, K. Morokuma, V. G. Zakrzewski, G. A. Voth, 
 P. Salvador, J. J. Dannenberg, S. Dapprich, A. D. Daniels, 
 O. Farkas, J. B. Foresman, J. V. Ortiz, J. Cioslowski, 
 and D. J. Fox, Gaussian, Inc., Wallingford CT, 2013.
 
 ******************************************
 Gaussian 09:  ES64L-G09RevD.01 24-Apr-2013
                10-Oct-2016 
 ******************************************
 %nprocshared=4
 Will use up to    4 processors via shared memory.
 %mem=6GB
 %chk=benzene-b3lyp
 --------------------------
 # opt freq b3lyp/6-311+g**
 --------------------------
 1/14=-1,18=20,19=15,26=3,38=1/1,3;
 2/9=110,12=2,17=6,18=5,40=1/2;
 3/5=4,6=6,7=111,11=2,16=1,25=1,30=1,71=1,74=-5/1,2,3;
 4//1;
 5/5=2,38=5/2;
 6/7=2,8=2,9=2,10=2,28=1/1;
 7//1,2,3,16;
 1/14=-1,18=20,19=15,26=3/3(2);
 2/9=110/2;
 99//99;
 2/9=110/2;
 3/5=4,6=6,7=111,11=2,16=1,25=1,30=1,71=1,74=-5/1,2,3;
 4/5=5,16=3,69=1/1;
 5/5=2,38=5/2;
 7//1,2,3,16;
 1/14=-1,18=20,19=15,26=3/3(-5);
 2/9=110/2;
 6/7=2,8=2,9=2,10=2,19=2,28=1/1;
 99/9=1/99;
 -----
 title
 -----
 Symbolic Z-matrix:
 Charge =  0 Multiplicity = 1
 C                     0.        0.        1.05903 
 C                     0.       -1.20601   1.75767 
 C                     0.       -1.20718   3.15159 
 C                     0.        0.        3.84858 
 C                     0.        1.20718   3.15159 
 C                     0.        1.20601   1.75767 
 H                     0.        0.       -0.02158 
 H                     0.       -2.14164   1.21442 
 H                     0.       -2.14357   3.693 
 H                     0.        0.        4.93015 
 H                     0.        2.14357   3.693 
 H                     0.        2.14164   1.21442 
 C                    -1.39406   0.       -2.45415 
 C                    -0.69705   1.20724  -2.45463 
 C                     0.69705   1.20724  -2.45463 
 C                     1.39406   0.       -2.45415 
 C                     0.69705  -1.20724  -2.45463 
 C                    -0.69705  -1.20724  -2.45463 
 H                    -2.4754    0.       -2.45032 
 H                    -1.23823   2.14357  -2.45368 
 H                     1.23823   2.14357  -2.45368 
 H                     2.4754    0.       -2.45032 
 H                     1.23823  -2.14357  -2.45368 
 H                    -1.23823  -2.14357  -2.45368 
 
 Add virtual bond connecting atoms C13        and H7         Dist= 5.30D+00.
 Add virtual bond connecting atoms C14        and H7         Dist= 5.30D+00.
 Add virtual bond connecting atoms C15        and H7         Dist= 5.30D+00.
 Add virtual bond connecting atoms C16        and H7         Dist= 5.30D+00.
 Add virtual bond connecting atoms C17        and H7         Dist= 5.30D+00.

 GradGradGradGradGradGradGradGradGradGradGradGradGradGradGradGradGradGrad
 Berny optimization.
 Initialization pass.
                           ----------------------------
                           !    Initial Parameters    !
                           ! (Angstroms and Degrees)  !
 --------------------------                            --------------------------
 ! Name  Definition              Value          Derivative Info.                !
 --------------------------------------------------------------------------------
 ! R1    R(1,2)                  1.3938         estimate D2E/DX2                !
 ! R2    R(1,6)                  1.3938         estimate D2E/DX2                !
 ! R3    R(1,7)                  1.0806         estimate D2E/DX2                !
 ! R4    R(2,3)                  1.3939         estimate D2E/DX2                !
 ! R5    R(2,8)                  1.0819         estimate D2E/DX2                !
 ! R6    R(3,4)                  1.3939         estimate D2E/DX2                !
 ! R7    R(3,9)                  1.0816         estimate D2E/DX2                !
 ! R8    R(4,5)                  1.3939         estimate D2E/DX2                !
 ! R9    R(4,10)                 1.0816         estimate D2E/DX2                !
 ! R10   R(5,6)                  1.3939         estimate D2E/DX2                !
 ! R11   R(5,11)                 1.0816         estimate D2E/DX2                !
 ! R12   R(6,12)                 1.0819         estimate D2E/DX2                !
 ! R13   R(7,13)                 2.8037         estimate D2E/DX2                !
 ! R14   R(7,14)                 2.8041         estimate D2E/DX2                !
 ! R15   R(7,15)                 2.8041         estimate D2E/DX2                !
 ! R16   R(7,16)                 2.8037         estimate D2E/DX2                !
 ! R17   R(7,17)                 2.8041         estimate D2E/DX2                !
 ! R18   R(13,14)                1.394          estimate D2E/DX2                !
 ! R19   R(13,18)                1.394          estimate D2E/DX2                !
 ! R20   R(13,19)                1.0813         estimate D2E/DX2                !
 ! R21   R(14,15)                1.3941         estimate D2E/DX2                !
 ! R22   R(14,20)                1.0815         estimate D2E/DX2                !
 ! R23   R(15,16)                1.394          estimate D2E/DX2                !
 ! R24   R(15,21)                1.0815         estimate D2E/DX2                !
 ! R25   R(16,17)                1.394          estimate D2E/DX2                !
 ! R26   R(16,22)                1.0813         estimate D2E/DX2                !
 ! R27   R(17,18)                1.3941         estimate D2E/DX2                !
 ! R28   R(17,23)                1.0815         estimate D2E/DX2                !
 ! R29   R(18,24)                1.0815         estimate D2E/DX2                !
 ! A1    A(2,1,6)              119.8327         estimate D2E/DX2                !
 ! A2    A(2,1,7)              120.0837         estimate D2E/DX2                !
 ! A3    A(6,1,7)              120.0837         estimate D2E/DX2                !
 ! A4    A(1,2,3)              120.1317         estimate D2E/DX2                !
 ! A5    A(1,2,8)              119.7758         estimate D2E/DX2                !
 ! A6    A(3,2,8)              120.0925         estimate D2E/DX2                !
 ! A7    A(2,3,4)              119.9527         estimate D2E/DX2                !
 ! A8    A(2,3,9)              120.0838         estimate D2E/DX2                !
 ! A9    A(4,3,9)              119.9635         estimate D2E/DX2                !
 ! A10   A(3,4,5)              119.9986         estimate D2E/DX2                !
 ! A11   A(3,4,10)             120.0007         estimate D2E/DX2                !
 ! A12   A(5,4,10)             120.0007         estimate D2E/DX2                !
 ! A13   A(4,5,6)              119.9527         estimate D2E/DX2                !
 ! A14   A(4,5,11)             119.9635         estimate D2E/DX2                !
 ! A15   A(6,5,11)             120.0838         estimate D2E/DX2                !
 ! A16   A(1,6,5)              120.1317         estimate D2E/DX2                !
 ! A17   A(1,6,12)             119.7758         estimate D2E/DX2                !
 ! A18   A(5,6,12)             120.0925         estimate D2E/DX2                !
 ! A19   A(1,7,13)             150.1838         estimate D2E/DX2                !
 ! A20   A(1,7,14)             150.1893         estimate D2E/DX2                !
 ! A21   A(1,7,15)             150.1893         estimate D2E/DX2                !
 ! A22   A(1,7,16)             150.1838         estimate D2E/DX2                !
 ! A23   A(1,7,17)             150.1893         estimate D2E/DX2                !
 ! A24   A(13,7,15)             51.0078         estimate D2E/DX2                !
 ! A25   A(13,7,16)             59.6325         estimate D2E/DX2                !
 ! A26   A(13,7,17)             51.0078         estimate D2E/DX2                !
 ! A27   A(14,7,16)             51.0078         estimate D2E/DX2                !
 ! A28   A(14,7,17)             59.6214         estimate D2E/DX2                !
 ! A29   A(15,7,17)             51.0017         estimate D2E/DX2                !
 ! A30   A(7,13,18)             75.622          estimate D2E/DX2                !
 ! A31   A(7,13,19)            119.6133         estimate D2E/DX2                !
 ! A32   A(14,13,18)           119.9988         estimate D2E/DX2                !
 ! A33   A(14,13,19)           120.0005         estimate D2E/DX2                !
 ! A34   A(18,13,19)           120.0005         estimate D2E/DX2                !
 ! A35   A(7,14,20)            119.7602         estimate D2E/DX2                !
 ! A36   A(13,14,15)           120.0006         estimate D2E/DX2                !
 ! A37   A(13,14,20)           119.972          estimate D2E/DX2                !
 ! A38   A(15,14,20)           120.0273         estimate D2E/DX2                !
 ! A39   A(7,15,21)            119.7602         estimate D2E/DX2                !
 ! A40   A(14,15,16)           120.0006         estimate D2E/DX2                !
 ! A41   A(14,15,21)           120.0273         estimate D2E/DX2                !
 ! A42   A(16,15,21)           119.972          estimate D2E/DX2                !
 ! A43   A(7,16,22)            119.6133         estimate D2E/DX2                !
 ! A44   A(15,16,17)           119.9988         estimate D2E/DX2                !
 ! A45   A(15,16,22)           120.0005         estimate D2E/DX2                !
 ! A46   A(17,16,22)           120.0005         estimate D2E/DX2                !
 ! A47   A(7,17,18)             75.6065         estimate D2E/DX2                !
 ! A48   A(7,17,23)            119.7602         estimate D2E/DX2                !
 ! A49   A(16,17,18)           120.0006         estimate D2E/DX2                !
 ! A50   A(16,17,23)           119.972          estimate D2E/DX2                !
 ! A51   A(18,17,23)           120.0273         estimate D2E/DX2                !
 ! A52   A(13,18,17)           120.0006         estimate D2E/DX2                !
 ! A53   A(13,18,24)           119.972          estimate D2E/DX2                !
 ! A54   A(17,18,24)           120.0273         estimate D2E/DX2                !
 ! D1    D(6,1,2,3)              0.0            estimate D2E/DX2                !
 ! D2    D(6,1,2,8)            180.0            estimate D2E/DX2                !
 ! D3    D(7,1,2,3)            180.0            estimate D2E/DX2                !
 ! D4    D(7,1,2,8)              0.0            estimate D2E/DX2                !
 ! D5    D(2,1,6,5)              0.0            estimate D2E/DX2                !
 ! D6    D(2,1,6,12)           180.0            estimate D2E/DX2                !
 ! D7    D(7,1,6,5)            180.0            estimate D2E/DX2                !
 ! D8    D(7,1,6,12)             0.0            estimate D2E/DX2                !
 ! D9    D(2,1,7,13)            90.0            estimate D2E/DX2                !
 ! D10   D(2,1,7,14)           149.9983         estimate D2E/DX2                !
 ! D11   D(2,1,7,15)          -149.9983         estimate D2E/DX2                !
 ! D12   D(2,1,7,16)           -90.0            estimate D2E/DX2                !
 ! D13   D(2,1,7,17)           -30.0017         estimate D2E/DX2                !
 ! D14   D(6,1,7,13)           -90.0            estimate D2E/DX2                !
 ! D15   D(6,1,7,14)           -30.0017         estimate D2E/DX2                !
 ! D16   D(6,1,7,15)            30.0017         estimate D2E/DX2                !
 ! D17   D(6,1,7,16)            90.0            estimate D2E/DX2                !
 ! D18   D(6,1,7,17)           149.9983         estimate D2E/DX2                !
 ! D19   D(1,2,3,4)              0.0            estimate D2E/DX2                !
 ! D20   D(1,2,3,9)            180.0            estimate D2E/DX2                !
 ! D21   D(8,2,3,4)            180.0            estimate D2E/DX2                !
 ! D22   D(8,2,3,9)              0.0            estimate D2E/DX2                !
 ! D23   D(2,3,4,5)              0.0            estimate D2E/DX2                !
 ! D24   D(2,3,4,10)           180.0            estimate D2E/DX2                !
 ! D25   D(9,3,4,5)            180.0            estimate D2E/DX2                !
 ! D26   D(9,3,4,10)             0.0            estimate D2E/DX2                !
 ! D27   D(3,4,5,6)              0.0            estimate D2E/DX2                !
 ! D28   D(3,4,5,11)           180.0            estimate D2E/DX2                !
 ! D29   D(10,4,5,6)           180.0            estimate D2E/DX2                !
 ! D30   D(10,4,5,11)            0.0            estimate D2E/DX2                !
 ! D31   D(4,5,6,1)              0.0            estimate D2E/DX2                !
 ! D32   D(4,5,6,12)           180.0            estimate D2E/DX2                !
 ! D33   D(11,5,6,1)           180.0            estimate D2E/DX2                !
 ! D34   D(11,5,6,12)            0.0            estimate D2E/DX2                !
 ! D35   D(1,7,13,18)         -116.6169         estimate D2E/DX2                !
 ! D36   D(1,7,13,19)            0.0            estimate D2E/DX2                !
 ! D37   D(15,7,13,18)          97.0195         estimate D2E/DX2                !
 ! D38   D(15,7,13,19)        -146.3636         estimate D2E/DX2                !
 ! D39   D(16,7,13,18)          63.3831         estimate D2E/DX2                !
 ! D40   D(16,7,13,19)         180.0            estimate D2E/DX2                !
 ! D41   D(17,7,13,18)          29.7467         estimate D2E/DX2                !
 ! D42   D(17,7,13,19)         146.3636         estimate D2E/DX2                !
 ! D43   D(1,7,14,20)           -0.0296         estimate D2E/DX2                !
 ! D44   D(16,7,14,20)        -146.3867         estimate D2E/DX2                !
 ! D45   D(17,7,14,20)         179.9704         estimate D2E/DX2                !
 ! D46   D(1,7,15,21)            0.0296         estimate D2E/DX2                !
 ! D47   D(13,7,15,21)         146.3867         estimate D2E/DX2                !
 ! D48   D(17,7,15,21)        -146.3288         estimate D2E/DX2                !
 ! D49   D(1,7,16,22)            0.0            estimate D2E/DX2                !
 ! D50   D(13,7,16,22)         180.0            estimate D2E/DX2                !
 ! D51   D(14,7,16,22)         146.3636         estimate D2E/DX2                !
 ! D52   D(1,7,17,18)          116.6102         estimate D2E/DX2                !
 ! D53   D(1,7,17,23)           -0.0296         estimate D2E/DX2                !
 ! D54   D(13,7,17,18)         -29.7469         estimate D2E/DX2                !
 ! D55   D(13,7,17,23)        -146.3867         estimate D2E/DX2                !
 ! D56   D(14,7,17,18)         -63.3898         estimate D2E/DX2                !
 ! D57   D(14,7,17,23)         179.9704         estimate D2E/DX2                !
 ! D58   D(15,7,17,18)         -97.0314         estimate D2E/DX2                !
 ! D59   D(15,7,17,23)         146.3288         estimate D2E/DX2                !
 ! D60   D(18,13,14,15)         -0.0452         estimate D2E/DX2                !
 ! D61   D(18,13,14,20)       -179.9644         estimate D2E/DX2                !
 ! D62   D(19,13,14,15)        179.7657         estimate D2E/DX2                !
 ! D63   D(19,13,14,20)         -0.1535         estimate D2E/DX2                !
 ! D64   D(7,13,18,17)         -63.5957         estimate D2E/DX2                !
 ! D65   D(7,13,18,24)         116.3235         estimate D2E/DX2                !
 ! D66   D(14,13,18,17)          0.0452         estimate D2E/DX2                !
 ! D67   D(14,13,18,24)        179.9644         estimate D2E/DX2                !
 ! D68   D(19,13,18,17)       -179.7657         estimate D2E/DX2                !
 ! D69   D(19,13,18,24)          0.1535         estimate D2E/DX2                !
 ! D70   D(13,14,15,16)          0.0            estimate D2E/DX2                !
 ! D71   D(13,14,15,21)       -179.9192         estimate D2E/DX2                !
 ! D72   D(20,14,15,16)        179.9192         estimate D2E/DX2                !
 ! D73   D(20,14,15,21)          0.0            estimate D2E/DX2                !
 ! D74   D(14,15,16,17)          0.0452         estimate D2E/DX2                !
 ! D75   D(14,15,16,22)       -179.7657         estimate D2E/DX2                !
 ! D76   D(21,15,16,17)        179.9644         estimate D2E/DX2                !
 ! D77   D(21,15,16,22)          0.1535         estimate D2E/DX2                !
 ! D78   D(15,16,17,18)         -0.0452         estimate D2E/DX2                !
 ! D79   D(15,16,17,23)       -179.9644         estimate D2E/DX2                !
 ! D80   D(22,16,17,18)        179.7657         estimate D2E/DX2                !
 ! D81   D(22,16,17,23)         -0.1535         estimate D2E/DX2                !
 ! D82   D(7,17,18,13)          63.5876         estimate D2E/DX2                !
 ! D83   D(7,17,18,24)        -116.3316         estimate D2E/DX2                !
 ! D84   D(16,17,18,13)          0.0            estimate D2E/DX2                !
 ! D85   D(16,17,18,24)       -179.9192         estimate D2E/DX2                !
 ! D86   D(23,17,18,13)        179.9192         estimate D2E/DX2                !
 ! D87   D(23,17,18,24)          0.0            estimate D2E/DX2                !
 --------------------------------------------------------------------------------
 Trust Radius=3.00D-01 FncErr=1.00D-07 GrdErr=1.00D-06
 Number of steps in this run=    144 maximum allowed number of steps=    144.
 GradGradGradGradGradGradGradGradGradGradGradGradGradGradGradGradGradGrad

                          Input orientation:                          
 ---------------------------------------------------------------------
 Center     Atomic      Atomic             Coordinates (Angstroms)
 Number     Number       Type             X           Y           Z
 ---------------------------------------------------------------------
      1          6           0        0.000000    0.000000    1.059035
      2          6           0        0.000000   -1.206008    1.757674
      3          6           0        0.000000   -1.207177    3.151591
      4          6           0        0.000000    0.000000    3.848575
      5          6           0        0.000000    1.207177    3.151591
      6          6           0        0.000000    1.206008    1.757674
      7          1           0        0.000000    0.000000   -0.021580
      8          1           0        0.000000   -2.141639    1.214422
      9          1           0        0.000000   -2.143566    3.692995
     10          1           0        0.000000    0.000000    4.930150
     11          1           0        0.000000    2.143566    3.692995
     12          1           0        0.000000    2.141639    1.214422
     13          6           0       -1.394063    0.000000   -2.454152
     14          6           0       -0.697047    1.207238   -2.454628
     15          6           0        0.697047    1.207238   -2.454628
     16          6           0        1.394063    0.000000   -2.454152
     17          6           0        0.697047   -1.207238   -2.454628
     18          6           0       -0.697047   -1.207238   -2.454628
     19          1           0       -2.475399    0.000000   -2.450322
     20          1           0       -1.238232    2.143565   -2.453676
     21          1           0        1.238232    2.143565   -2.453676
     22          1           0        2.475399    0.000000   -2.450322
     23          1           0        1.238232   -2.143565   -2.453676
     24          1           0       -1.238232   -2.143565   -2.453676
 ---------------------------------------------------------------------
                    Distance matrix (angstroms):
                    1          2          3          4          5
     1  C    0.000000
     2  C    1.393755   0.000000
     3  C    2.415795   1.393917   0.000000
     4  C    2.789540   2.413778   1.393938   0.000000
     5  C    2.415795   2.786838   2.414354   1.393938   0.000000
     6  C    1.393755   2.412016   2.786838   2.413778   1.393917
     7  H    1.080615   2.149465   3.395039   3.870155   3.395039
     8  H    2.147269   1.081909   2.150777   3.394905   3.868746
     9  H    3.395971   2.150461   1.081639   2.149205   3.394200
    10  H    3.871115   3.393974   2.149546   1.081575   2.149546
    11  H    3.395971   3.868477   3.394200   2.149205   1.081639
    12  H    2.147269   3.391440   3.868746   3.394905   2.150777
    13  C    3.779669   4.597537   5.901275   6.455058   5.901275
    14  C    3.780096   4.904398   6.143693   6.455514   5.649386
    15  C    3.780096   4.904398   6.143693   6.455514   5.649386
    16  C    3.779669   4.597537   5.901275   6.455058   5.901275
    17  C    3.780096   4.269586   5.649386   6.455514   6.143693
    18  C    3.780096   4.269586   5.649386   6.455514   6.143693
    19  H    4.294553   5.028845   6.242300   6.767843   6.242300
    20  H    4.297351   5.521624   6.646782   6.771001   5.816275
    21  H    4.297351   5.521624   6.646782   6.771001   5.816275
    22  H    4.294553   5.028845   6.242300   6.767843   6.242300
    23  H    4.297351   4.488619   5.816275   6.771001   6.646782
    24  H    4.297351   4.488619   5.816275   6.771001   6.646782
                    6          7          8          9         10
     6  C    0.000000
     7  H    2.149465   0.000000
     8  H    3.391440   2.472715   0.000000
     9  H    3.868477   4.288699   2.478574   0.000000
    10  H    3.393974   4.951730   4.288735   2.474960   0.000000
    11  H    2.150461   4.288699   4.950384   4.287132   2.474960
    12  H    1.081909   2.472715   4.283278   4.950384   4.288735
    13  C    4.597537   2.803715   4.470846   6.657755   7.514741
    14  C    4.269586   2.804108   5.016252   7.036123   7.515201
    15  C    4.269586   2.804108   5.016252   7.036123   7.515201
    16  C    4.597537   2.803715   4.470846   6.657755   7.514741
    17  C    4.904398   2.804108   3.849793   6.257464   7.515201
    18  C    4.904398   2.804108   3.849793   6.257464   7.515201
    19  H    5.028845   3.467908   4.913712   6.961524   7.784534
    20  H    4.488619   3.470329   5.775044   7.595675   7.787745
    21  H    4.488619   3.470329   5.775044   7.595675   7.787745
    22  H    5.028845   3.467908   4.913712   6.961524   7.784534
    23  H    5.521624   3.470329   3.871455   6.270150   7.787745
    24  H    5.521624   3.470329   3.871455   6.270150   7.787745
                   11         12         13         14         15
    11  H    0.000000
    12  H    2.478574   0.000000
    13  C    6.657755   4.470846   0.000000
    14  C    6.257464   3.849793   1.394007   0.000000
    15  C    6.257464   3.849793   2.414573   1.394094   0.000000
    16  C    6.657755   4.470846   2.788126   2.414573   1.394007
    17  C    7.036123   5.016252   2.414573   2.788045   2.414476
    18  C    7.036123   5.016252   1.394007   2.414476   2.788045
    19  H    6.961524   4.913712   1.081343   2.149413   3.394386
    20  H    6.270150   3.871455   2.149222   1.081476   2.149887
    21  H    6.270150   3.871455   3.394679   2.149887   1.081476
    22  H    6.961524   4.913712   3.869464   3.394386   2.149413
    23  H    7.595675   5.775044   3.394679   3.869520   3.394225
    24  H    7.595675   5.775044   2.149222   3.394225   3.869520
                   16         17         18         19         20
    16  C    0.000000
    17  C    1.394007   0.000000
    18  C    2.414573   1.394094   0.000000
    19  H    3.869464   3.394386   2.149413   0.000000
    20  H    3.394679   3.869520   3.394225   2.474968   0.000000
    21  H    2.149222   3.394225   3.869520   4.287883   2.476464
    22  H    1.081343   2.149413   3.394386   4.950798   4.287883
    23  H    2.149222   1.081476   2.149887   4.287883   4.950996
    24  H    3.394679   2.149887   1.081476   2.474968   4.287130
                   21         22         23         24
    21  H    0.000000
    22  H    2.474968   0.000000
    23  H    4.287130   2.474968   0.000000
    24  H    4.950996   4.287883   2.476464   0.000000
 Stoichiometry    C12H12
 Framework group  C2V[C2(HCCH),SGV(C4H4),SGV'(C2H2),X(C4H4)]
 Deg. of freedom    21
 Full point group                 C2V     NOp   4
 Largest Abelian subgroup         C2V     NOp   4
 Largest concise Abelian subgroup C2V     NOp   4
                         Standard orientation:                         
 ---------------------------------------------------------------------
 Center     Atomic      Atomic             Coordinates (Angstroms)
 Number     Number       Type             X           Y           Z
 ---------------------------------------------------------------------
      1          6           0        0.000000    0.000000    1.058987
      2          6           0        0.000000    1.206008    1.757626
      3          6           0        0.000000    1.207177    3.151543
      4          6           0        0.000000    0.000000    3.848527
      5          6           0        0.000000   -1.207177    3.151543
      6          6           0        0.000000   -1.206008    1.757626
      7          1           0        0.000000    0.000000   -0.021628
      8          1           0        0.000000    2.141639    1.214374
      9          1           0        0.000000    2.143566    3.692947
     10          1           0        0.000000    0.000000    4.930102
     11          1           0        0.000000   -2.143566    3.692947
     12          1           0        0.000000   -2.141639    1.214374
     13          6           0        1.394063    0.000000   -2.454200
     14          6           0        0.697047   -1.207238   -2.454676
     15          6           0       -0.697047   -1.207238   -2.454676
     16          6           0       -1.394063    0.000000   -2.454200
     17          6           0       -0.697047    1.207238   -2.454676
     18          6           0        0.697047    1.207238   -2.454676
     19          1           0        2.475399    0.000000   -2.450370
     20          1           0        1.238232   -2.143565   -2.453724
     21          1           0       -1.238232   -2.143565   -2.453724
     22          1           0       -2.475399    0.000000   -2.450370
     23          1           0       -1.238232    2.143565   -2.453724
     24          1           0        1.238232    2.143565   -2.453724
 ---------------------------------------------------------------------
 Rotational constants (GHZ):      1.9044769      0.4523176      0.4191644
 Standard basis: 6-311+G(d,p) (5D, 7F)
 There are   127 symmetry adapted cartesian basis functions of A1  symmetry.
 There are    52 symmetry adapted cartesian basis functions of A2  symmetry.
 There are    77 symmetry adapted cartesian basis functions of B1  symmetry.
 There are    92 symmetry adapted cartesian basis functions of B2  symmetry.
 There are   121 symmetry adapted basis functions of A1  symmetry.
 There are    51 symmetry adapted basis functions of A2  symmetry.
 There are    75 symmetry adapted basis functions of B1  symmetry.
 There are    89 symmetry adapted basis functions of B2  symmetry.
   336 basis functions,   528 primitive gaussians,   348 cartesian basis functions
    42 alpha electrons       42 beta electrons
       nuclear repulsion energy       592.4166392068 Hartrees.
 NAtoms=   24 NActive=   24 NUniq=   12 SFac= 4.00D+00 NAtFMM=   60 NAOKFM=F Big=F
 Integral buffers will be    131072 words long.
 Raffenetti 2 integral format.
 Two-electron integral symmetry is turned on.
 One-electron integrals computed using PRISM.
 NBasis=   336 RedAO= T EigKep=  2.04D-06  NBF=   121    51    75    89
 NBsUse=   336 1.00D-06 EigRej= -1.00D+00 NBFU=   121    51    75    89
 ExpMin= 4.38D-02 ExpMax= 4.56D+03 ExpMxC= 6.82D+02 IAcc=2 IRadAn=         4 AccDes= 0.00D+00
 Harris functional with IExCor=  402 and IRadAn=       4 diagonalized for initial guess.
 HarFok:  IExCor=  402 AccDes= 0.00D+00 IRadAn=         4 IDoV= 1 UseB2=F ITyADJ=14
 ICtDFT=  3500011 ScaDFX=  1.000000  1.000000  1.000000  1.000000
 FoFCou: FMM=F IPFlag=           0 FMFlag=      100000 FMFlg1=           0
         NFxFlg=           0 DoJE=T BraDBF=F KetDBF=T FulRan=T
         wScrn=  0.000000 ICntrl=     500 IOpCl=  0 I1Cent=   200000004 NGrid=           0
         NMat0=    1 NMatS0=      1 NMatT0=    0 NMatD0=    1 NMtDS0=    0 NMtDT0=    0
 Petite list used in FoFCou.
 Initial guess orbital symmetries:
       Occupied  (A1) (A1) (B1) (B2) (A1) (B2) (A1) (A2) (A1) (B2)
                 (B1) (A1) (A1) (A1) (B2) (B1) (A1) (B2) (A2) (A1)
                 (B2) (A1) (A1) (A1) (B2) (B2) (A1) (B1) (A1) (B2)
                 (B1) (B2) (A1) (B1) (A1) (A2) (B2) (A1) (B1) (B2)
                 (A2) (B1)
       Virtual   (A2) (A1) (B1) (A2) (A1) (A1) (B2) (B1) (B1) (B1)
                 (B2) (A1) (A1) (A2) (A1) (B2) (A1) (A1) (B1) (B1)
                 (B1) (A1) (A2) (B2) (B2) (B2) (B1) (A1) (B2) (A1)
                 (A2) (A1) (B2) (A2) (A1) (A1) (B1) (B1) (B2) (B2)
                 (A1) (A1) (A2) (A1) (B1) (A1) (B2) (A2) (B1) (B1)
                 (A1) (B2) (A1) (B1) (B2) (A2) (B2) (B1) (A1) (A1)
                 (B2) (A1) (B2) (B1) (A2) (A1) (B2) (A1) (B2) (A1)
                 (A2) (B1) (A1) (B2) (A1) (A1) (B2) (A1) (B1) (A2)
                 (B2) (B2) (B2) (A1) (B1) (A1) (B1) (A2) (B2) (A1)
                 (A2) (B1) (B2) (B1) (A1) (A2) (A1) (B1) (A1) (A2)
                 (B2) (A1) (A2) (A1) (B1) (A1) (B1) (B2) (B1) (A1)
                 (B1) (B2) (B2) (A1) (A1) (B2) (A1) (B1) (B2) (A1)
                 (A2) (A2) (A1) (B2) (B1) (B2) (A1) (B1) (A1) (B2)
                 (B1) (A1) (B2) (A2) (B2) (A2) (B2) (A1) (B1) (A2)
                 (A1) (B1) (B2) (A2) (A2) (A1) (B1) (A1) (A1) (B1)
                 (A1) (A1) (B2) (A1) (B2) (B1) (B2) (B2) (A1) (A1)
                 (A2) (B1) (A1) (A2) (B1) (B1) (A2) (B2) (A1) (A1)
                 (B1) (B2) (B2) (A1) (B1) (A1) (B1) (A2) (B2) (A1)
                 (B1) (B2) (A2) (A1) (B2) (B2) (A2) (B1) (B1) (B2)
                 (B2) (B1) (A1) (B2) (A2) (A1) (B1) (A2) (B2) (A1)
                 (A1) (B2) (A2) (A2) (A1) (B1) (B1) (A2) (A2) (B1)
                 (A1) (B2) (B1) (A1) (A2) (A1) (B2) (B2) (A1) (A1)
                 (B1) (B2) (B1) (A1) (B2) (A1) (B1) (A1) (A1) (B1)
                 (B2) (A2) (A1) (A1) (B2) (B1) (B2) (B1) (A1) (A2)
                 (B1) (A1) (A1) (A2) (A2) (B2) (B1) (A1) (A2) (B2)
                 (A2) (A1) (B2) (A1) (B2) (B1) (B1) (B2) (B2) (A2)
                 (A1) (A1) (B2) (A1) (B1) (B2) (A1) (A1) (B1) (A1)
                 (A2) (A1) (B2) (A1) (B1) (A1) (B1) (B2) (B2) (A1)
                 (A2) (B2) (A1) (A1) (B2) (B1) (A1) (B2) (A2) (A1)
                 (A1) (B2) (B1) (A1)
 The electronic state of the initial guess is 1-A1.
 Requested convergence on RMS density matrix=1.00D-08 within 128 cycles.
 Requested convergence on MAX density matrix=1.00D-06.
 Requested convergence on             energy=1.00D-06.
 No special actions if energy rises.
 SCF Done:  E(RB3LYP) =  -464.621479278     A.U. after   12 cycles
            NFock= 12  Conv=0.35D-08     -V/T= 2.0045

 **********************************************************************

            Population analysis using the SCF density.

 **********************************************************************

 Orbital symmetries:
       Occupied  (A1) (B2) (B1) (A2) (A1) (B1) (A1) (B2) (A1) (A1)
                 (B2) (A1) (A1) (A1) (B2) (B1) (B2) (A1) (A2) (A1)
                 (B2) (A1) (A1) (A1) (B1) (A1) (B2) (B2) (B2) (B1)
                 (A1) (B2) (A1) (B1) (A2) (A1) (B2) (A1) (B1) (B2)
                 (A2) (B1)
       Virtual   (A2) (A1) (B1) (A2) (A1) (A1) (B2) (B1) (B2) (A1)
                 (A2) (A1) (A1) (B2) (B1) (A1) (B1) (A1) (B1) (B2)
                 (A2) (B2) (A1) (B1) (B1) (B2) (B1) (A1) (A2) (A1)
                 (A2) (B2) (B2) (B1) (A1) (A1) (A1) (A2) (B1) (B2)
                 (A1) (B1) (A1) (B2) (B1) (A2) (A1) (B2) (B1) (B1)
                 (A1) (A1) (B2) (B1) (B2) (A1) (B2) (A1) (A2) (A2)
                 (A1) (B2) (A1) (A1) (B2) (B1) (A2) (A1) (B1) (B2)
                 (B2) (A1) (A1) (B2) (A1) (A1) (B2) (B1) (A1) (B2)
                 (B2) (B1) (A1) (A2) (A1) (B2) (B1) (A2) (B2) (A1)
                 (A2) (B1) (B2) (B1) (A1) (A2) (A2) (B1) (A1) (A1)
                 (B2) (B1) (A1) (A2) (B1) (B2) (A1) (A1) (B1) (B1)
                 (B2) (A1) (B2) (A1) (A1) (B2) (A1) (A2) (B1) (A1)
                 (A1) (B2) (B2) (B1) (B1) (B2) (A2) (A1) (B2) (A1)
                 (A1) (B2) (B1) (A2) (B2) (A1) (B2) (A2) (A1) (B1)
                 (A2) (B1) (B2) (A2) (A1) (A2) (B1) (A1) (B1) (A1)
                 (A1) (A1) (B2) (A1) (B2) (B1) (B2) (B2) (A1) (A1)
                 (B1) (A2) (A1) (B1) (A2) (B1) (A2) (A1) (B1) (B2)
                 (A1) (B2) (B2) (A1) (B1) (A1) (B1) (A2) (B2) (B1)
                 (A1) (A2) (B2) (A1) (B2) (B2) (B1) (B2) (A2) (B1)
                 (B2) (B1) (A2) (B2) (A1) (B1) (A1) (B2) (A2) (A1)
                 (A1) (B2) (A2) (A1) (A2) (B1) (B1) (B1) (A2) (A2)
                 (A1) (B2) (A2) (A1) (B1) (A1) (B2) (B2) (A1) (A1)
                 (B2) (B1) (A1) (B2) (B1) (A1) (B1) (A1) (B2) (A1)
                 (A1) (B1) (B2) (A2) (A1) (B1) (A1) (A1) (B2) (A2)
                 (B1) (A1) (B1) (B2) (A2) (A1) (A2) (A2) (B1) (B2)
                 (A2) (A1) (B2) (A1) (B1) (B1) (B2) (B2) (A2) (A1)
                 (B2) (A1) (B2) (B1) (A1) (B2) (A1) (A1) (B1) (A1)
                 (A2) (A1) (B2) (A1) (B1) (A1) (B1) (B2) (B2) (A1)
                 (A2) (B2) (A1) (A1) (B1) (B2) (B2) (A1) (A2) (A1)
                 (B2) (A1) (B1) (A1)
 The electronic state is 1-A1.
 Alpha  occ. eigenvalues --  -10.18312 -10.18292 -10.18279 -10.18236 -10.18221
 Alpha  occ. eigenvalues --  -10.18201 -10.17190 -10.17160 -10.17113 -10.17006
 Alpha  occ. eigenvalues --  -10.17002 -10.16672  -0.86552  -0.85267  -0.75667
 Alpha  occ. eigenvalues --   -0.75645  -0.74465  -0.74397  -0.61306  -0.61294
 Alpha  occ. eigenvalues --   -0.60143  -0.60089  -0.53483  -0.52316  -0.47101
 Alpha  occ. eigenvalues --   -0.46006  -0.45781  -0.44576  -0.43277  -0.43247
 Alpha  occ. eigenvalues --   -0.42279  -0.42134  -0.37730  -0.36604  -0.35529
 Alpha  occ. eigenvalues --   -0.35515  -0.34365  -0.34010  -0.26675  -0.26586
 Alpha  occ. eigenvalues --   -0.25333  -0.25095
 Alpha virt. eigenvalues --   -0.02389  -0.02239  -0.00956  -0.00906  -0.00156
 Alpha virt. eigenvalues --    0.01343   0.01523   0.02162   0.03321   0.03534
 Alpha virt. eigenvalues --    0.04317   0.04391   0.05702   0.06131   0.06220
 Alpha virt. eigenvalues --    0.06753   0.07662   0.08044   0.09091   0.09333
 Alpha virt. eigenvalues --    0.09553   0.09727   0.10557   0.11885   0.12259
 Alpha virt. eigenvalues --    0.12650   0.13669   0.13865   0.14100   0.14163
 Alpha virt. eigenvalues --    0.14268   0.15087   0.15528   0.15804   0.16248
 Alpha virt. eigenvalues --    0.16961   0.17462   0.17889   0.19005   0.19413
 Alpha virt. eigenvalues --    0.19498   0.19515   0.20145   0.20366   0.20489
 Alpha virt. eigenvalues --    0.20497   0.20601   0.20815   0.22078   0.22259
 Alpha virt. eigenvalues --    0.22455   0.22944   0.22956   0.23558   0.23891
 Alpha virt. eigenvalues --    0.24155   0.24916   0.26484   0.26534   0.26760
 Alpha virt. eigenvalues --    0.26885   0.27159   0.28894   0.29383   0.29719
 Alpha virt. eigenvalues --    0.30472   0.31971   0.32160   0.32304   0.32810
 Alpha virt. eigenvalues --    0.33156   0.34326   0.35787   0.36542   0.43212
 Alpha virt. eigenvalues --    0.44802   0.45127   0.50689   0.50937   0.52551
 Alpha virt. eigenvalues --    0.53234   0.53686   0.54536   0.54554   0.54622
 Alpha virt. eigenvalues --    0.55279   0.55696   0.56624   0.57419   0.57957
 Alpha virt. eigenvalues --    0.58247   0.59455   0.60279   0.61295   0.62550
 Alpha virt. eigenvalues --    0.62818   0.64064   0.64170   0.64554   0.65299
 Alpha virt. eigenvalues --    0.66864   0.67729   0.69086   0.69219   0.69384
 Alpha virt. eigenvalues --    0.70750   0.70752   0.71308   0.71999   0.72889
 Alpha virt. eigenvalues --    0.73107   0.74355   0.75040   0.77006   0.78191
 Alpha virt. eigenvalues --    0.81418   0.81618   0.82131   0.82665   0.82877
 Alpha virt. eigenvalues --    0.83731   0.84240   0.85743   0.85885   0.86219
 Alpha virt. eigenvalues --    0.86392   0.86729   0.86980   0.88203   0.88603
 Alpha virt. eigenvalues --    0.95915   0.96562   0.96658   1.00791   1.01260
 Alpha virt. eigenvalues --    1.02038   1.02242   1.02589   1.03907   1.07576
 Alpha virt. eigenvalues --    1.08639   1.10014   1.12208   1.13457   1.13691
 Alpha virt. eigenvalues --    1.14772   1.15567   1.15916   1.29231   1.31146
 Alpha virt. eigenvalues --    1.33119   1.39090   1.45338   1.49262   1.50206
 Alpha virt. eigenvalues --    1.50409   1.51222   1.51763   1.53225   1.54818
 Alpha virt. eigenvalues --    1.55751   1.56414   1.57096   1.57587   1.58073
 Alpha virt. eigenvalues --    1.58564   1.64319   1.64711   1.65436   1.65572
 Alpha virt. eigenvalues --    1.65794   1.66257   1.68596   1.69409   1.73479
 Alpha virt. eigenvalues --    1.75804   1.77223   1.78097   1.78711   1.79866
 Alpha virt. eigenvalues --    1.80890   1.81248   1.81365   1.83449   1.84886
 Alpha virt. eigenvalues --    1.86142   1.92494   1.92872   1.93564   1.93728
 Alpha virt. eigenvalues --    1.94297   1.94708   1.95364   1.95976   1.96372
 Alpha virt. eigenvalues --    1.98009   1.98832   1.99913   2.01305   2.01831
 Alpha virt. eigenvalues --    2.05071   2.06001   2.07857   2.08124   2.08959
 Alpha virt. eigenvalues --    2.11233   2.32172   2.33833   2.33912   2.35132
 Alpha virt. eigenvalues --    2.38203   2.39854   2.40040   2.40541   2.40628
 Alpha virt. eigenvalues --    2.41352   2.41925   2.43471   2.44118   2.49805
 Alpha virt. eigenvalues --    2.61741   2.62022   2.63237   2.63678   2.66301
 Alpha virt. eigenvalues --    2.66435   2.67094   2.67402   2.71697   2.71803
 Alpha virt. eigenvalues --    2.73588   2.73858   2.74946   2.75397   2.76163
 Alpha virt. eigenvalues --    2.76309   2.76787   2.77009   2.77919   2.80180
 Alpha virt. eigenvalues --    2.80211   2.81410   2.83427   2.86291   2.88736
 Alpha virt. eigenvalues --    2.89574   2.90408   2.91012   2.91132   2.92526
 Alpha virt. eigenvalues --    2.93192   2.93458   2.95195   2.97321   3.07231
 Alpha virt. eigenvalues --    3.09268   3.10167   3.16156   3.34069   3.34341
 Alpha virt. eigenvalues --    3.35105   3.36857   3.49294   3.49540   3.49833
 Alpha virt. eigenvalues --    3.52413   3.53756   3.57776   3.68208   3.69766
 Alpha virt. eigenvalues --    3.98069   3.98214   3.99426   4.00520   4.07730
 Alpha virt. eigenvalues --    4.09071   4.14635   4.14961   4.16221   4.18829
 Alpha virt. eigenvalues --    4.83842   4.85745  23.59254  23.62977  23.96125
 Alpha virt. eigenvalues --   23.97020  23.97375  23.98246  24.08899  24.08943
 Alpha virt. eigenvalues --   24.10257  24.10358  24.19876  24.21317
          Condensed to atoms (all electrons):
               1          2          3          4          5          6
     1  C    7.275518  -0.544600  -0.179980  -0.379231  -0.179980  -0.544600
     2  C   -0.544600   9.997200  -0.297725   0.070076  -0.364396  -2.915625
     3  C   -0.179980  -0.297725   5.938383   0.486410   0.241034  -0.364396
     4  C   -0.379231   0.070076   0.486410   5.022986   0.486410   0.070076
     5  C   -0.179980  -0.364396   0.241034   0.486410   5.938383  -0.297725
     6  C   -0.544600  -2.915625  -0.364396   0.070076  -0.297725   9.997200
     7  H    0.336798  -0.043556   0.017689   0.007086   0.017689  -0.043556
     8  H    0.043198   0.366828  -0.043498  -0.005952  -0.004461  -0.011554
     9  H   -0.010789  -0.026440   0.380993   0.018086  -0.004351  -0.009953
    10  H    0.020608  -0.038820   0.019718   0.367251   0.019718  -0.038820
    11  H   -0.010789  -0.009953  -0.004351   0.018086   0.380993  -0.026440
    12  H    0.043198  -0.011554  -0.004461  -0.005952  -0.043498   0.366828
    13  C   -0.142850   0.013389   0.029759   0.003031   0.029759   0.013389
    14  C   -0.080636  -0.302270  -0.011821   0.002111   0.010993   0.378198
    15  C   -0.080636  -0.302270  -0.011821   0.002111   0.010993   0.378198
    16  C   -0.142850   0.013389   0.029759   0.003031   0.029759   0.013389
    17  C   -0.080636   0.378198   0.010993   0.002111  -0.011821  -0.302270
    18  C   -0.080636   0.378198   0.010993   0.002111  -0.011821  -0.302270
    19  H   -0.004901   0.001126   0.000198   0.000034   0.000198   0.001126
    20  H   -0.000876   0.001861  -0.000062   0.000009   0.000075  -0.002681
    21  H   -0.000876   0.001861  -0.000062   0.000009   0.000075  -0.002681
    22  H   -0.004901   0.001126   0.000198   0.000034   0.000198   0.001126
    23  H   -0.000876  -0.002681   0.000075   0.000009  -0.000062   0.001861
    24  H   -0.000876  -0.002681   0.000075   0.000009  -0.000062   0.001861
               7          8          9         10         11         12
     1  C    0.336798   0.043198  -0.010789   0.020608  -0.010789   0.043198
     2  C   -0.043556   0.366828  -0.026440  -0.038820  -0.009953  -0.011554
     3  C    0.017689  -0.043498   0.380993   0.019718  -0.004351  -0.004461
     4  C    0.007086  -0.005952   0.018086   0.367251   0.018086  -0.005952
     5  C    0.017689  -0.004461  -0.004351   0.019718   0.380993  -0.043498
     6  C   -0.043556  -0.011554  -0.009953  -0.038820  -0.026440   0.366828
     7  H    0.575840  -0.011496  -0.000285   0.000102  -0.000285  -0.011496
     8  H   -0.011496   0.551115  -0.007774  -0.000290   0.000085  -0.000187
     9  H   -0.000285  -0.007774   0.545348  -0.008261  -0.000280   0.000085
    10  H    0.000102  -0.000290  -0.008261   0.544457  -0.008261  -0.000290
    11  H   -0.000285   0.000085  -0.000280  -0.008261   0.545348  -0.007774
    12  H   -0.011496  -0.000187   0.000085  -0.000290  -0.007774   0.551115
    13  C    0.019150  -0.002116   0.000032  -0.000018   0.000032  -0.002116
    14  C   -0.002560   0.000967   0.000013   0.000006   0.000050   0.002529
    15  C   -0.002560   0.000967   0.000013   0.000006   0.000050   0.002529
    16  C    0.019150  -0.002116   0.000032  -0.000018   0.000032  -0.002116
    17  C   -0.002560   0.002529   0.000050   0.000006   0.000013   0.000967
    18  C   -0.002560   0.002529   0.000050   0.000006   0.000013   0.000967
    19  H    0.000275  -0.000001   0.000000   0.000000   0.000000  -0.000001
    20  H    0.000252  -0.000002   0.000000   0.000000   0.000000  -0.000071
    21  H    0.000252  -0.000002   0.000000   0.000000   0.000000  -0.000071
    22  H    0.000275  -0.000001   0.000000   0.000000   0.000000  -0.000001
    23  H    0.000252  -0.000071   0.000000   0.000000   0.000000  -0.000002
    24  H    0.000252  -0.000071   0.000000   0.000000   0.000000  -0.000002
              13         14         15         16         17         18
     1  C   -0.142850  -0.080636  -0.080636  -0.142850  -0.080636  -0.080636
     2  C    0.013389  -0.302270  -0.302270   0.013389   0.378198   0.378198
     3  C    0.029759  -0.011821  -0.011821   0.029759   0.010993   0.010993
     4  C    0.003031   0.002111   0.002111   0.003031   0.002111   0.002111
     5  C    0.029759   0.010993   0.010993   0.029759  -0.011821  -0.011821
     6  C    0.013389   0.378198   0.378198   0.013389  -0.302270  -0.302270
     7  H    0.019150  -0.002560  -0.002560   0.019150  -0.002560  -0.002560
     8  H   -0.002116   0.000967   0.000967  -0.002116   0.002529   0.002529
     9  H    0.000032   0.000013   0.000013   0.000032   0.000050   0.000050
    10  H   -0.000018   0.000006   0.000006  -0.000018   0.000006   0.000006
    11  H    0.000032   0.000050   0.000050   0.000032   0.000013   0.000013
    12  H   -0.002116   0.002529   0.002529  -0.002116   0.000967   0.000967
    13  C    5.110424   0.394133  -0.028778   0.006395  -0.028778   0.394133
    14  C    0.394133   5.080692   0.500698  -0.028778  -0.160513  -0.013204
    15  C   -0.028778   0.500698   5.080692   0.394133  -0.013204  -0.160513
    16  C    0.006395  -0.028778   0.394133   5.110424   0.394133  -0.028778
    17  C   -0.028778  -0.160513  -0.013204   0.394133   5.080692   0.500698
    18  C    0.394133  -0.013204  -0.160513  -0.028778   0.500698   5.080692
    19  H    0.387029  -0.008488  -0.009519   0.008054  -0.009519  -0.008488
    20  H   -0.002343   0.381027  -0.014427  -0.003494   0.003782  -0.004711
    21  H   -0.003494  -0.014427   0.381027  -0.002343  -0.004711   0.003782
    22  H    0.008054  -0.009519  -0.008488   0.387029  -0.008488  -0.009519
    23  H   -0.003494   0.003782  -0.004711  -0.002343   0.381027  -0.014427
    24  H   -0.002343  -0.004711   0.003782  -0.003494  -0.014427   0.381027
              19         20         21         22         23         24
     1  C   -0.004901  -0.000876  -0.000876  -0.004901  -0.000876  -0.000876
     2  C    0.001126   0.001861   0.001861   0.001126  -0.002681  -0.002681
     3  C    0.000198  -0.000062  -0.000062   0.000198   0.000075   0.000075
     4  C    0.000034   0.000009   0.000009   0.000034   0.000009   0.000009
     5  C    0.000198   0.000075   0.000075   0.000198  -0.000062  -0.000062
     6  C    0.001126  -0.002681  -0.002681   0.001126   0.001861   0.001861
     7  H    0.000275   0.000252   0.000252   0.000275   0.000252   0.000252
     8  H   -0.000001  -0.000002  -0.000002  -0.000001  -0.000071  -0.000071
     9  H    0.000000   0.000000   0.000000   0.000000   0.000000   0.000000
    10  H    0.000000   0.000000   0.000000   0.000000   0.000000   0.000000
    11  H    0.000000   0.000000   0.000000   0.000000   0.000000   0.000000
    12  H   -0.000001  -0.000071  -0.000071  -0.000001  -0.000002  -0.000002
    13  C    0.387029  -0.002343  -0.003494   0.008054  -0.003494  -0.002343
    14  C   -0.008488   0.381027  -0.014427  -0.009519   0.003782  -0.004711
    15  C   -0.009519  -0.014427   0.381027  -0.008488  -0.004711   0.003782
    16  C    0.008054  -0.003494  -0.002343   0.387029  -0.002343  -0.003494
    17  C   -0.009519   0.003782  -0.004711  -0.008488   0.381027  -0.014427
    18  C   -0.008488  -0.004711   0.003782  -0.009519  -0.014427   0.381027
    19  H    0.532519  -0.008480  -0.000274   0.000054  -0.000274  -0.008480
    20  H   -0.008480   0.534155  -0.008291  -0.000274   0.000057  -0.000295
    21  H   -0.000274  -0.008291   0.534155  -0.008480  -0.000295   0.000057
    22  H    0.000054  -0.000274  -0.008480   0.532519  -0.008480  -0.000274
    23  H   -0.000274   0.000057  -0.000295  -0.008480   0.534155  -0.008291
    24  H   -0.008480  -0.000295   0.000057  -0.000274  -0.008291   0.534155
 Mulliken charges:
               1
     1  C    0.752198
     2  C   -0.360679
     3  C   -0.248100
     4  C   -0.169940
     5  C   -0.248100
     6  C   -0.360679
     7  H    0.125851
     8  H    0.121372
     9  H    0.123433
    10  H    0.122902
    11  H    0.123433
    12  H    0.121372
    13  C   -0.192380
    14  C   -0.118271
    15  C   -0.118271
    16  C   -0.192380
    17  C   -0.118271
    18  C   -0.118271
    19  H    0.127813
    20  H    0.124788
    21  H    0.124788
    22  H    0.127813
    23  H    0.124788
    24  H    0.124788
 Sum of Mulliken charges =   0.00000
 Mulliken charges with hydrogens summed into heavy atoms:
               1
     1  C    0.878048
     2  C   -0.239307
     3  C   -0.124666
     4  C   -0.047038
     5  C   -0.124666
     6  C   -0.239307
    13  C   -0.064567
    14  C    0.006517
    15  C    0.006517
    16  C   -0.064567
    17  C    0.006517
    18  C    0.006517
 Electronic spatial extent (au):  <R**2>=           2725.1228
 Charge=              0.0000 electrons
 Dipole moment (field-independent basis, Debye):
    X=              0.0000    Y=              0.0000    Z=             -0.4942  Tot=              0.4942
 Quadrupole moment (field-independent basis, Debye-Ang):
   XX=            -72.1251   YY=            -64.6324   ZZ=            -73.2220
   XY=              0.0000   XZ=              0.0000   YZ=              0.0000
 Traceless Quadrupole moment (field-independent basis, Debye-Ang):
   XX=             -2.1319   YY=              5.3608   ZZ=             -3.2288
   XY=              0.0000   XZ=              0.0000   YZ=              0.0000
 Octapole moment (field-independent basis, Debye-Ang**2):
  XXX=              0.0000  YYY=              0.0000  ZZZ=             51.9572  XYY=              0.0000
  XXY=              0.0000  XXZ=            -21.0040  XZZ=              0.0000  YZZ=              0.0000
  YYZ=             -1.4246  XYZ=              0.0000
 Hexadecapole moment (field-independent basis, Debye-Ang**3):
 XXXX=           -323.4106 YYYY=           -554.4990 ZZZZ=          -2958.1249 XXXY=              0.0000
 XXXZ=              0.0000 YYYX=              0.0000 YYYZ=              0.0000 ZZZX=              0.0000
 ZZZY=              0.0000 XXYY=           -156.9092 XXZZ=           -566.1147 YYZZ=           -547.3160
 XXYZ=              0.0000 YYXZ=              0.0000 ZZXY=              0.0000
 N-N= 5.924166392068D+02 E-N=-2.261959149384D+03  KE= 4.625190976491D+02
 Symmetry A1   KE= 2.230587971088D+02
 Symmetry A2   KE= 3.993627637043D+01
 Symmetry B1   KE= 7.845871691285D+01
 Symmetry B2   KE= 1.210653072569D+02
 Calling FoFJK, ICntrl=      2127 FMM=F ISym2X=1 I1Cent= 0 IOpClX= 0 NMat=1 NMatS=1 NMatT=0.
 ***** Axes restored to original set *****
 -------------------------------------------------------------------
 Center     Atomic                   Forces (Hartrees/Bohr)
 Number     Number              X              Y              Z
 -------------------------------------------------------------------
      1        6           0.000000000    0.000000000    0.001123254
      2        6           0.000000000    0.000885267    0.000725505
      3        6           0.000000000    0.001059061   -0.000604801
      4        6           0.000000000    0.000000000   -0.000843235
      5        6           0.000000000   -0.001059061   -0.000604801
      6        6           0.000000000   -0.000885267    0.000725505
      7        1           0.000000000    0.000000000    0.000669991
      8        1           0.000000000   -0.001612095   -0.000767026
      9        1           0.000000000   -0.001771648    0.001013308
     10        1           0.000000000    0.000000000    0.002052473
     11        1           0.000000000    0.001771648    0.001013308
     12        1           0.000000000    0.001612095   -0.000767026
     13        6           0.001017747    0.000000000   -0.000680102
     14        6           0.000489026   -0.000995106   -0.000618724
     15        6          -0.000489026   -0.000995106   -0.000618724
     16        6          -0.001017747    0.000000000   -0.000680102
     17        6          -0.000489026    0.000995106   -0.000618724
     18        6           0.000489026    0.000995106   -0.000618724
     19        1          -0.001963993    0.000000000    0.000038678
     20        1          -0.000981896    0.001708629    0.000005322
     21        1           0.000981896    0.001708629    0.000005322
     22        1           0.001963993    0.000000000    0.000038678
     23        1           0.000981896   -0.001708629    0.000005322
     24        1          -0.000981896   -0.001708629    0.000005322
 -------------------------------------------------------------------
 Cartesian Forces:  Max     0.002052473 RMS     0.000910066

 GradGradGradGradGradGradGradGradGradGradGradGradGradGradGradGradGradGrad
 Berny optimization.
 FormGI is forming the generalized inverse of G from B-inverse, IUseBI=4.
 Internal  Forces:  Max     0.003066464 RMS     0.000616813
 Search for a local minimum.
 Step number   1 out of a maximum of  144
 All quantities printed in internal units (Hartrees-Bohrs-Radians)
 Mixed Optimization -- En-DIIS/RFO-DIIS
 Second derivative matrix not updated -- first step.
 ITU=  0
     Eigenvalues ---    0.00359   0.01215   0.01277   0.01857   0.02153
     Eigenvalues ---    0.02167   0.02169   0.02169   0.02169   0.02169
     Eigenvalues ---    0.02170   0.02170   0.02170   0.02171   0.02207
     Eigenvalues ---    0.02410   0.02555   0.02863   0.03297   0.03787
     Eigenvalues ---    0.03992   0.04325   0.04572   0.04900   0.05180
     Eigenvalues ---    0.05536   0.05754   0.06155   0.06200   0.13891
     Eigenvalues ---    0.16000   0.16000   0.16000   0.16000   0.16000
     Eigenvalues ---    0.16000   0.16000   0.16908   0.19800   0.22000
     Eigenvalues ---    0.22000   0.22000   0.32946   0.35765   0.35765
     Eigenvalues ---    0.35779   0.35797   0.35797   0.35805   0.35817
     Eigenvalues ---    0.35817   0.35817   0.35817   0.35833   0.35833
     Eigenvalues ---    0.35920   0.37299   0.38759   0.41597   0.42260
     Eigenvalues ---    0.42279   0.42488   0.46641   0.46644   0.46656
     Eigenvalues ---    0.46667
 RFO step:  Lambda=-3.13443780D-04 EMin= 3.58975618D-03
 Linear search not attempted -- first point.
 Iteration  1 RMS(Cart)=  0.01040642 RMS(Int)=  0.00001015
 Iteration  2 RMS(Cart)=  0.00000884 RMS(Int)=  0.00000803
 Iteration  3 RMS(Cart)=  0.00000000 RMS(Int)=  0.00000803
 ClnCor:  largest displacement from symmetrization is 2.14D-02 for atom    24.
 Variable       Old X    -DE/DX   Delta X   Delta X   Delta X     New X
                                 (Linear)    (Quad)   (Total)
    R1        2.63381   0.00121   0.00000   0.00263   0.00297   2.63678
    R2        2.63381   0.00121   0.00000   0.00263   0.00297   2.63678
    R3        2.04207   0.00307   0.00000   0.00853   0.00853   2.05060
    R4        2.63412   0.00101   0.00000   0.00217   0.00217   2.63629
    R5        2.04451   0.00178   0.00000   0.00497   0.00497   2.04948
    R6        2.63416   0.00083   0.00000   0.00173  -0.00037   2.63379
    R7        2.04400   0.00204   0.00000   0.00570   0.00570   2.04970
    R8        2.63416   0.00083   0.00000   0.00173  -0.00037   2.63379
    R9        2.04388   0.00205   0.00000   0.00573   0.00573   2.04961
   R10        2.63412   0.00101   0.00000   0.00217   0.00217   2.63629
   R11        2.04400   0.00204   0.00000   0.00570   0.00570   2.04970
   R12        2.04451   0.00178   0.00000   0.00497   0.00497   2.04948
   R13        5.29825   0.00111   0.00000   0.03671   0.03714   5.33540
   R14        5.29900   0.00074   0.00000   0.02928   0.02887   5.32786
   R15        5.29900   0.00064   0.00000   0.02671   0.02887   5.32786
   R16        5.29825   0.00078   0.00000   0.02978   0.03714   5.33540
   R17        5.29900   0.00108   0.00000   0.03636   0.02887   5.32786
   R18        2.63429   0.00050   0.00000   0.00221   0.00173   2.63602
   R19        2.63429   0.00051   0.00000   0.00257   0.00173   2.63602
   R20        2.04344   0.00196   0.00000   0.00548   0.00548   2.04892
   R21        2.63446   0.00054   0.00000   0.00293   0.00546   2.63992
   R22        2.04369   0.00197   0.00000   0.00550   0.00550   2.04919
   R23        2.63429   0.00047   0.00000   0.00270   0.00173   2.63602
   R24        2.04369   0.00197   0.00000   0.00550   0.00550   2.04919
   R25        2.63429   0.00050   0.00000   0.00222   0.00173   2.63602
   R26        2.04344   0.00196   0.00000   0.00548   0.00548   2.04892
   R27        2.63446   0.00060   0.00000   0.00280   0.00546   2.63992
   R28        2.04369   0.00197   0.00000   0.00550   0.00550   2.04919
   R29        2.04369   0.00197   0.00000   0.00550   0.00550   2.04919
    A1        2.09147  -0.00059   0.00000  -0.00248  -0.00339   2.08808
    A2        2.09586   0.00029   0.00000   0.00124   0.00170   2.09755
    A3        2.09586   0.00029   0.00000   0.00124   0.00170   2.09755
    A4        2.09669   0.00025   0.00000   0.00125   0.00117   2.09787
    A5        2.09048   0.00002   0.00000   0.00031   0.00038   2.09086
    A6        2.09601  -0.00028   0.00000  -0.00155  -0.00155   2.09446
    A7        2.09357   0.00016   0.00000   0.00062   0.00108   2.09465
    A8        2.09586  -0.00009   0.00000  -0.00037  -0.00037   2.09548
    A9        2.09376  -0.00007   0.00000  -0.00025  -0.00071   2.09305
   A10        2.09437  -0.00024   0.00000  -0.00126  -0.00112   2.09325
   A11        2.09441   0.00012   0.00000   0.00063   0.00056   2.09497
   A12        2.09441   0.00012   0.00000   0.00063   0.00056   2.09497
   A13        2.09357   0.00016   0.00000   0.00062   0.00108   2.09465
   A14        2.09376  -0.00007   0.00000  -0.00025  -0.00071   2.09305
   A15        2.09586  -0.00009   0.00000  -0.00037  -0.00037   2.09548
   A16        2.09669   0.00025   0.00000   0.00125   0.00117   2.09787
   A17        2.09048   0.00002   0.00000   0.00031   0.00038   2.09086
   A18        2.09601  -0.00028   0.00000  -0.00155  -0.00155   2.09446
   A19        2.62120   0.00001   0.00000   0.00352   0.00302   2.62422
   A20        2.62130  -0.00002   0.00000   0.00221   0.00263   2.62392
   A21        2.62130  -0.00004   0.00000   0.00182   0.00263   2.62392
   A22        2.62120  -0.00003   0.00000   0.00215   0.00302   2.62422
   A23        2.62130   0.00003   0.00000   0.00359   0.00263   2.62392
   A24        0.89025   0.00004   0.00000  -0.00478  -0.00450   0.88575
   A25        1.04078   0.00002   0.00000  -0.00567  -0.00603   1.03475
   A26        0.89025  -0.00003   0.00000  -0.00519  -0.00450   0.88575
   A27        0.89025   0.00004   0.00000  -0.00411  -0.00450   0.88575
   A28        1.04059   0.00000   0.00000  -0.00580  -0.00525   1.03534
   A29        0.89015   0.00001   0.00000  -0.00489  -0.00476   0.88538
   A30        1.31985   0.00014   0.00000   0.00325  -0.00162   1.31823
   A31        2.08765   0.00004   0.00000  -0.00059  -0.00043   2.08721
   A32        2.09437   0.00005   0.00000  -0.00111  -0.00080   2.09357
   A33        2.09440   0.00001   0.00000   0.00053   0.00039   2.09479
   A34        2.09440  -0.00006   0.00000   0.00058   0.00039   2.09479
   A35        2.09021  -0.00006   0.00000  -0.00135  -0.00148   2.08873
   A36        2.09441   0.00002   0.00000   0.00001   0.00039   2.09480
   A37        2.09391  -0.00001   0.00000   0.00003  -0.00007   2.09383
   A38        2.09487  -0.00001   0.00000  -0.00003  -0.00032   2.09455
   A39        2.09021  -0.00009   0.00000  -0.00168  -0.00148   2.08873
   A40        2.09441  -0.00002   0.00000   0.00070   0.00039   2.09480
   A41        2.09487   0.00002   0.00000  -0.00038  -0.00032   2.09455
   A42        2.09391   0.00000   0.00000  -0.00032  -0.00007   2.09383
   A43        2.08765  -0.00006   0.00000  -0.00148  -0.00043   2.08721
   A44        2.09437  -0.00003   0.00000  -0.00039  -0.00080   2.09357
   A45        2.09440   0.00000   0.00000   0.00019   0.00039   2.09479
   A46        2.09440   0.00003   0.00000   0.00021   0.00039   2.09479
   A47        1.31958   0.00014   0.00000   0.00335   0.00086   1.32044
   A48        2.09021   0.00003   0.00000  -0.00044  -0.00148   2.08873
   A49        2.09441   0.00010   0.00000  -0.00072   0.00039   2.09480
   A50        2.09391  -0.00003   0.00000   0.00036  -0.00007   2.09383
   A51        2.09487  -0.00007   0.00000   0.00036  -0.00032   2.09455
   A52        2.09441  -0.00012   0.00000   0.00150   0.00039   2.09480
   A53        2.09391   0.00006   0.00000  -0.00072  -0.00007   2.09383
   A54        2.09487   0.00005   0.00000  -0.00078  -0.00032   2.09455
    D1        0.00000   0.00000   0.00000   0.00000   0.00000   0.00000
    D2        3.14159   0.00000   0.00000   0.00000   0.00000   3.14159
    D3        3.14159   0.00000   0.00000   0.00000   0.00000   3.14159
    D4        0.00000   0.00000   0.00000   0.00000   0.00000   0.00000
    D5        0.00000   0.00000   0.00000   0.00000   0.00000   0.00000
    D6        3.14159   0.00000   0.00000   0.00000   0.00000   3.14159
    D7        3.14159   0.00000   0.00000   0.00000   0.00000   3.14159
    D8        0.00000   0.00000   0.00000   0.00000   0.00000   0.00000
    D9        1.57080  -0.00001   0.00000   0.00129   0.00000   1.57080
   D10        2.61796  -0.00001   0.00000   0.00084  -0.00071   2.61725
   D11       -2.61796   0.00001   0.00000   0.00009   0.00071  -2.61725
   D12       -1.57080  -0.00001   0.00000  -0.00088   0.00000  -1.57080
   D13       -0.52363   0.00001   0.00000  -0.00134  -0.00071  -0.52434
   D14       -1.57080  -0.00001   0.00000   0.00129   0.00000  -1.57080
   D15       -0.52363  -0.00001   0.00000   0.00084  -0.00071  -0.52434
   D16        0.52363   0.00001   0.00000   0.00009   0.00071   0.52434
   D17        1.57080  -0.00001   0.00000  -0.00088   0.00000   1.57080
   D18        2.61796   0.00001   0.00000  -0.00134  -0.00071   2.61725
   D19        0.00000   0.00000   0.00000   0.00000   0.00000   0.00000
   D20        3.14159   0.00000   0.00000   0.00000   0.00000   3.14159
   D21        3.14159   0.00000   0.00000   0.00000   0.00000   3.14159
   D22        0.00000   0.00000   0.00000   0.00000   0.00000   0.00000
   D23        0.00000   0.00000   0.00000   0.00000   0.00000   0.00000
   D24        3.14159   0.00000   0.00000   0.00000   0.00000   3.14159
   D25        3.14159   0.00000   0.00000   0.00000   0.00000   3.14159
   D26        0.00000   0.00000   0.00000   0.00000   0.00000   0.00000
   D27        0.00000   0.00000   0.00000   0.00000   0.00000   0.00000
   D28        3.14159   0.00000   0.00000   0.00000   0.00000   3.14159
   D29        3.14159   0.00000   0.00000   0.00000   0.00000   3.14159
   D30        0.00000   0.00000   0.00000   0.00000   0.00000   0.00000
   D31        0.00000   0.00000   0.00000   0.00000   0.00000   0.00000
   D32        3.14159   0.00000   0.00000   0.00000   0.00000   3.14159
   D33        3.14159   0.00000   0.00000   0.00000   0.00000   3.14159
   D34        0.00000   0.00000   0.00000   0.00000   0.00000   0.00000
   D35       -2.03535   0.00000   0.00000  -0.00408   0.00037  -2.03498
   D36        0.00000   0.00001   0.00000  -0.00176   0.00000   0.00000
   D37        1.69331   0.00003   0.00000  -0.00316  -0.00052   1.69279
   D38       -2.55453   0.00003   0.00000  -0.00084  -0.00089  -2.55542
   D39        1.10624   0.00000   0.00000  -0.00282   0.00037   1.10661
   D40        3.14159   0.00001   0.00000  -0.00051   0.00000   3.14159
   D41        0.51918   0.00001   0.00000  -0.00170   0.00126   0.52044
   D42        2.55453   0.00002   0.00000   0.00062   0.00089   2.55542
   D43       -0.00052   0.00001   0.00000  -0.00059   0.00119   0.00068
   D44       -2.55493   0.00001   0.00000  -0.00021  -0.00016  -2.55509
   D45        3.14108   0.00000   0.00000   0.00067   0.00119  -3.14092
   D46        0.00052  -0.00001   0.00000  -0.00019  -0.00119  -0.00068
   D47        2.55493   0.00003   0.00000   0.00086   0.00016   2.55509
   D48       -2.55392  -0.00004   0.00000  -0.00117  -0.00112  -2.55504
   D49        0.00000   0.00001   0.00000   0.00078   0.00000   0.00000
   D50        3.14159   0.00001   0.00000  -0.00048   0.00000   3.14159
   D51        2.55453   0.00001   0.00000   0.00047   0.00089   2.55542
   D52        2.03523  -0.00001   0.00000   0.00407   0.00126   2.03649
   D53       -0.00052   0.00000   0.00000   0.00194   0.00119   0.00068
   D54       -0.51918   0.00001   0.00000   0.00177  -0.00009  -0.51927
   D55       -2.55493   0.00001   0.00000  -0.00036  -0.00016  -2.55509
   D56       -1.10636   0.00000   0.00000   0.00281   0.00126  -1.10510
   D57        3.14108   0.00001   0.00000   0.00069   0.00119  -3.14092
   D58       -1.69352  -0.00005   0.00000   0.00300   0.00119  -1.69232
   D59        2.55392  -0.00005   0.00000   0.00087   0.00112   2.55504
   D60       -0.00079  -0.00003   0.00000  -0.00044   0.00720   0.00641
   D61       -3.14097  -0.00005   0.00000  -0.00434   0.00228  -3.13869
   D62        3.13750  -0.00001   0.00000   0.00196   0.00298   3.14048
   D63       -0.00268  -0.00003   0.00000  -0.00194  -0.00194  -0.00462
   D64       -1.10995   0.00020   0.00000   0.00103  -0.00432  -1.11428
   D65        2.03023   0.00007   0.00000  -0.00014   0.00060   2.03083
   D66        0.00079   0.00010   0.00000   0.00243  -0.00720  -0.00641
   D67        3.14097  -0.00003   0.00000   0.00125  -0.00228   3.13869
   D68       -3.13750   0.00008   0.00000   0.00003  -0.00298  -3.14048
   D69        0.00268  -0.00004   0.00000  -0.00115   0.00194   0.00462
   D70        0.00000  -0.00004   0.00000  -0.00136   0.00000   0.00000
   D71       -3.14018  -0.00002   0.00000  -0.00450  -0.00493   3.13808
   D72        3.14018  -0.00003   0.00000   0.00254   0.00493  -3.13808
   D73        0.00000  -0.00001   0.00000  -0.00059   0.00000   0.00000
   D74        0.00079   0.00005   0.00000   0.00118  -0.00720  -0.00641
   D75       -3.13750   0.00004   0.00000  -0.00220  -0.00298  -3.14048
   D76        3.14097   0.00003   0.00000   0.00432  -0.00228   3.13869
   D77        0.00268   0.00002   0.00000   0.00093   0.00194   0.00462
   D78       -0.00079   0.00002   0.00000   0.00080   0.00720   0.00641
   D79       -3.14097   0.00000   0.00000  -0.00208   0.00228  -3.13869
   D80        3.13750   0.00003   0.00000   0.00419   0.00298   3.14048
   D81       -0.00268   0.00001   0.00000   0.00131  -0.00194  -0.00462
   D82        1.10981  -0.00018   0.00000  -0.00094   0.00619   1.11600
   D83       -2.03037  -0.00006   0.00000   0.00023   0.00126  -2.02911
   D84        0.00000  -0.00010   0.00000  -0.00261   0.00000   0.00000
   D85       -3.14018   0.00003   0.00000  -0.00143  -0.00493   3.13808
   D86        3.14018  -0.00007   0.00000   0.00028   0.00493  -3.13808
   D87        0.00000   0.00005   0.00000   0.00145   0.00000   0.00000
         Item               Value     Threshold  Converged?
 Maximum Force            0.003066     0.000450     NO 
 RMS     Force            0.000617     0.000300     NO 
 Maximum Displacement     0.035599     0.001800     NO 
 RMS     Displacement     0.010021     0.001200     NO 
 Predicted change in Energy=-1.415378D-04
 GradGradGradGradGradGradGradGradGradGradGradGradGradGradGradGradGradGrad

                          Input orientation:                          
 ---------------------------------------------------------------------
 Center     Atomic      Atomic             Coordinates (Angstroms)
 Number     Number       Type             X           Y           Z
 ---------------------------------------------------------------------
      1          6           0        0.000000    0.000000    1.070282
      2          6           0        0.000000   -1.206178    1.771754
      3          6           0        0.000000   -1.206617    3.166820
      4          6           0        0.000000    0.000000    3.864383
      5          6           0        0.000000    1.206617    3.166820
      6          6           0        0.000000    1.206178    1.771754
      7          1           0        0.000000    0.000000   -0.014847
      8          1           0        0.000000   -2.145214    1.229132
      9          1           0        0.000000   -2.145534    3.709875
     10          1           0        0.000000    0.000000    4.948988
     11          1           0        0.000000    2.145534    3.709875
     12          1           0        0.000000    2.145214    1.229132
     13          6           0       -1.396439    0.000000   -2.468697
     14          6           0       -0.698493    1.207751   -2.464821
     15          6           0        0.698493    1.207751   -2.464821
     16          6           0        1.396439    0.000000   -2.468697
     17          6           0        0.698493   -1.207751   -2.464821
     18          6           0       -0.698493   -1.207751   -2.464821
     19          1           0       -2.480680    0.000000   -2.467656
     20          1           0       -1.240832    2.146771   -2.465109
     21          1           0        1.240832    2.146771   -2.465109
     22          1           0        2.480680    0.000000   -2.467656
     23          1           0        1.240832   -2.146771   -2.465109
     24          1           0       -1.240832   -2.146771   -2.465109
 ---------------------------------------------------------------------
                    Distance matrix (angstroms):
                    1          2          3          4          5
     1  C    0.000000
     2  C    1.395324   0.000000
     3  C    2.418967   1.395066   0.000000
     4  C    2.794101   2.415359   1.393742   0.000000
     5  C    2.418967   2.787075   2.413234   1.393742   0.000000
     6  C    1.395324   2.412356   2.787075   2.415359   1.395066
     7  H    1.085128   2.155646   3.402783   3.879229   3.402783
     8  H    2.151087   1.084540   2.153044   3.398012   3.871615
     9  H    3.401583   2.153764   1.084653   2.151090   3.395854
    10  H    3.878707   3.398482   2.152219   1.084606   2.152219
    11  H    3.401583   3.871729   3.395854   2.151090   1.084653
    12  H    2.151087   3.395035   3.871615   3.398012   2.153044
    13  C    3.804525   4.624536   5.930010   6.485209   5.930010
    14  C    3.800461   4.925801   6.167045   6.481155   5.674793
    15  C    3.800461   4.925801   6.167045   6.481155   5.674793
    16  C    3.804525   4.624536   5.930010   6.485209   5.930010
    17  C    3.800461   4.293770   5.674793   6.481155   6.167045
    18  C    3.800461   4.293770   5.674793   6.481155   6.167045
    19  H    4.320969   5.057790   6.273517   6.800624   6.273517
    20  H    4.318250   5.543730   6.671095   6.797850   5.843132
    21  H    4.318250   5.543730   6.671095   6.797850   5.843132
    22  H    4.320969   5.057790   6.273517   6.800624   6.273517
    23  H    4.318250   4.513911   5.843132   6.797850   6.671095
    24  H    4.318250   4.513911   5.843132   6.797850   6.671095
                    6          7          8          9         10
     6  C    0.000000
     7  H    2.155646   0.000000
     8  H    3.395035   2.479803   0.000000
     9  H    3.871729   4.298472   2.480742   0.000000
    10  H    3.398482   4.963835   4.294097   2.477644   0.000000
    11  H    2.153764   4.298472   4.956268   4.291068   2.477644
    12  H    1.084540   2.479803   4.290427   4.956268   4.294097
    13  C    4.624536   2.823371   4.497324   6.687907   7.547986
    14  C    4.293770   2.819384   5.037415   7.061110   7.543946
    15  C    4.293770   2.819384   5.037415   7.061110   7.543946
    16  C    4.624536   2.823371   4.497324   6.687907   7.547986
    17  C    4.925801   2.819384   3.874535   6.284441   7.543946
    18  C    4.925801   2.819384   3.874535   6.284441   7.543946
    19  H    5.057790   3.488559   4.941858   6.994210   7.820511
    20  H    4.513911   3.485983   5.797260   7.621940   7.817745
    21  H    4.513911   3.485983   5.797260   7.621940   7.817745
    22  H    5.057790   3.488559   4.941858   6.994210   7.820511
    23  H    5.543730   3.485983   3.897061   6.298420   7.817745
    24  H    5.543730   3.485983   3.897061   6.298420   7.817745
                   11         12         13         14         15
    11  H    0.000000
    12  H    2.480742   0.000000
    13  C    6.687907   4.497324   0.000000
    14  C    6.284441   3.874535   1.394922   0.000000
    15  C    6.284441   3.874535   2.418144   1.396986   0.000000
    16  C    6.687907   4.497324   2.792879   2.418144   1.394922
    17  C    7.061110   5.037415   2.418144   2.790379   2.415502
    18  C    7.061110   5.037415   1.394922   2.415502   2.790379
    19  H    6.994210   4.941858   1.084241   2.152872   3.400854
    20  H    6.298420   3.897061   2.152406   1.084385   2.154702
    21  H    6.298420   3.897061   3.400565   2.154702   1.084385
    22  H    6.994210   4.941858   3.877119   3.400854   2.152872
    23  H    7.621940   5.797260   3.400565   3.874764   3.398080
    24  H    7.621940   5.797260   2.152406   3.398080   3.874764
                   16         17         18         19         20
    16  C    0.000000
    17  C    1.394922   0.000000
    18  C    2.418144   1.396986   0.000000
    19  H    3.877119   3.400854   2.152872   0.000000
    20  H    3.400565   3.874764   3.398080   2.479084   0.000000
    21  H    2.152406   3.398080   3.874764   4.296310   2.481664
    22  H    1.084241   2.152872   3.400854   4.961359   4.296310
    23  H    2.152406   1.084385   2.154702   4.296310   4.959149
    24  H    3.400565   2.154702   1.084385   2.479084   4.293542
                   21         22         23         24
    21  H    0.000000
    22  H    2.479084   0.000000
    23  H    4.293542   2.479084   0.000000
    24  H    4.959149   4.296310   2.481664   0.000000
 Stoichiometry    C12H12
 Framework group  C2V[C2(HCCH),SGV(C4H4),SGV'(C2H2),X(C4H4)]
 Deg. of freedom    21
 Full point group                 C2V     NOp   4
 Largest Abelian subgroup         C2V     NOp   4
 Largest concise Abelian subgroup C2V     NOp   4
                         Standard orientation:                         
 ---------------------------------------------------------------------
 Center     Atomic      Atomic             Coordinates (Angstroms)
 Number     Number       Type             X           Y           Z
 ---------------------------------------------------------------------
      1          6           0        0.000000    0.000000    1.069005
      2          6           0        0.000000    1.206178    1.770478
      3          6           0        0.000000    1.206617    3.165544
      4          6           0        0.000000    0.000000    3.863106
      5          6           0        0.000000   -1.206617    3.165544
      6          6           0        0.000000   -1.206178    1.770478
      7          1           0        0.000000    0.000000   -0.016123
      8          1           0        0.000000    2.145214    1.227856
      9          1           0        0.000000    2.145534    3.708598
     10          1           0        0.000000    0.000000    4.947712
     11          1           0        0.000000   -2.145534    3.708598
     12          1           0        0.000000   -2.145214    1.227856
     13          6           0        1.396439    0.000000   -2.469973
     14          6           0        0.698493   -1.207751   -2.466097
     15          6           0       -0.698493   -1.207751   -2.466097
     16          6           0       -1.396439    0.000000   -2.469973
     17          6           0       -0.698493    1.207751   -2.466097
     18          6           0        0.698493    1.207751   -2.466097
     19          1           0        2.480680    0.000000   -2.468933
     20          1           0        1.240832   -2.146771   -2.466386
     21          1           0       -1.240832   -2.146771   -2.466386
     22          1           0       -2.480680    0.000000   -2.468933
     23          1           0       -1.240832    2.146771   -2.466386
     24          1           0        1.240832    2.146771   -2.466386
 ---------------------------------------------------------------------
 Rotational constants (GHZ):      1.9010743      0.4480578      0.4155701
 Standard basis: 6-311+G(d,p) (5D, 7F)
 There are   127 symmetry adapted cartesian basis functions of A1  symmetry.
 There are    52 symmetry adapted cartesian basis functions of A2  symmetry.
 There are    77 symmetry adapted cartesian basis functions of B1  symmetry.
 There are    92 symmetry adapted cartesian basis functions of B2  symmetry.
 There are   121 symmetry adapted basis functions of A1  symmetry.
 There are    51 symmetry adapted basis functions of A2  symmetry.
 There are    75 symmetry adapted basis functions of B1  symmetry.
 There are    89 symmetry adapted basis functions of B2  symmetry.
   336 basis functions,   528 primitive gaussians,   348 cartesian basis functions
    42 alpha electrons       42 beta electrons
       nuclear repulsion energy       591.0215958805 Hartrees.
 NAtoms=   24 NActive=   24 NUniq=   12 SFac= 4.00D+00 NAtFMM=   60 NAOKFM=F Big=F
 Integral buffers will be    131072 words long.
 Raffenetti 2 integral format.
 Two-electron integral symmetry is turned on.
 One-electron integrals computed using PRISM.
 NBasis=   336 RedAO= T EigKep=  2.09D-06  NBF=   121    51    75    89
 NBsUse=   336 1.00D-06 EigRej= -1.00D+00 NBFU=   121    51    75    89
 Initial guess from the checkpoint file:  "benzene-b3lyp.chk"
 B after Tr=     0.000000    0.000000    0.000000
         Rot=    1.000000    0.000000    0.000000    0.000000 Ang=   0.00 deg.
 Initial guess orbital symmetries:
       Occupied  (A1) (B2) (B1) (A2) (A1) (B1) (A1) (B2) (A1) (A1)
                 (B2) (A1) (A1) (A1) (B2) (B1) (B2) (A1) (A2) (A1)
[...]
 9,0.00000039,0.00000234,-0.00000932,0.00000362,-0.00000880,-0.00002593
 ,0.00003519,0.00002246,0.00004061,-0.02973125,0.03398735,0.00004131,-0
 .03194046,-0.12910267,0.00006786,0.03527688,0.71512678,0.00016403,0.00
 016154,0.00010210,-0.00001387,-0.00007671,-0.00008874,0.00000237,0.000
 03477,-0.00003228,-0.00001196,0.00002132,-0.00001998,0.00004696,0.0000
 3783,0.00003115,-0.00004781,-0.00004998,0.00001556,-0.00012949,-0.0001
 9550,-0.00014870,-0.00000582,0.00001919,-0.00000781,-0.00000261,0.0000
 0928,-0.00001939,-0.00000138,0.00000754,-0.00001379,-0.00000440,-0.000
 00910,-0.00000505,-0.00004017,0.00007100,0.00005710,-0.00003142,0.0000
 1349,0.00715258,0.00004590,0.00006786,-0.06310718,0.00010837,-0.000308
 49,0.13517539,0.00011055,0.,0.00022167,0.00002557,-0.00000076,-0.00007
 945,-0.00001047,0.00000986,-0.00001312,-0.00000106,0.,-0.00004948,-0.0
 0001047,-0.00000986,-0.00001312,0.00002557,0.00000076,-0.00007945,-0.0
 0017453,0.,0.00006703,-0.00001976,-0.00002115,0.00004302,0.00000205,0.
 00001328,-0.00002234,0.00000304,0.,-0.00001828,0.00000206,-0.00001328,
 -0.00002234,-0.00001976,0.00002115,0.00004302,-0.00077736,0.,-0.000013
 83,-0.02735076,0.02973125,0.00003142,-0.17912112,0.11895094,-0.0000693
 5,0.73597332,0.,-0.00016702,0.,-0.00000139,0.00005783,0.00005920,0.000
 01331,-0.00003875,0.00001170,0.,-0.00000520,0.,-0.00001331,-0.00003875
 ,-0.00001170,0.00000140,0.00005783,-0.00005920,0.,0.00024669,0.,-0.000
 01855,-0.00003592,0.00004638,-0.00000013,0.00000157,0.00000236,0.,-0.0
 0000562,0.,0.00000013,0.00000157,-0.00000236,0.00001855,-0.00003592,-0
 .00004637,0.,-0.06896956,0.,0.07634732,0.03398735,0.00001349,0.0550586
 0,-0.27933765,0.00018511,0.,0.65342331,0.00021979,0.,0.00007166,0.0000
 5422,-0.00005177,-0.00002657,-0.00001984,-0.00000477,-0.00000150,0.000
 00129,0.,-0.00002698,-0.00001984,0.00000477,-0.00000150,0.00005422,0.0
 0005177,-0.00002657,-0.00027367,0.,-0.00010077,-0.00002111,-0.00001124
 ,0.00001471,-0.00000502,0.00000765,-0.00001161,-0.00000136,0.,-0.00001
 050,-0.00000502,-0.00000765,-0.00001161,-0.00002111,0.00001124,0.00001
 471,0.00001383,0.,-0.00650190,-0.00001198,0.00004131,0.00715258,-0.000
 01374,0.00002265,-0.06303358,0.00061632,0.,0.13516533,-0.00008927,-0.0
 0013484,0.00017664,-0.00002298,-0.00002412,-0.00003804,-0.00000554,0.0
 0000948,0.00003268,-0.00000346,-0.00002697,-0.00001464,0.00002528,-0.0
 0001876,-0.00004040,-0.00001734,0.00004801,-0.00009190,0.00012490,0.00
 018634,0.00001830,0.00004046,-0.00003834,0.00003878,0.00000256,0.00000
 549,-0.00001459,-0.00000098,-0.00000188,-0.00000666,-0.00000152,-0.000
 00362,-0.00001596,-0.00001262,-0.00000255,0.00000836,-0.02735076,0.076
 34732,0.00001198,-0.05175485,-0.02949475,-0.00001273,0.06454891,-0.023
 27454,-0.00009936,-0.17912112,-0.05505859,-0.00001374,0.67389605,-0.00
 015432,0.00004729,-0.00023590,0.00002089,0.00009228,0.00008717,0.00001
 611,-0.00001427,-0.00000265,0.00000564,0.00000230,0.00002984,-0.000004
 38,0.00004357,0.00000665,-0.00000799,-0.00014025,0.00011120,0.00019165
 ,-0.00008897,-0.00004352,-0.00003519,0.00002246,-0.00004061,-0.0000036
 2,-0.00000880,0.00002593,-0.00000039,0.00000234,0.00000932,0.00000312,
 0.00000676,0.00002409,0.00001949,0.00001432,0.00000735,0.02973125,0.03
 398735,-0.00004131,-0.02949475,-0.01800676,-0.00002379,0.02327454,-0.0
 5785554,-0.00007375,-0.11895094,-0.27933765,-0.00002265,-0.03527688,0.
 71512678,0.00016403,-0.00016154,0.00010210,-0.00004781,0.00004998,0.00
 001556,0.00004695,-0.00003783,0.00003115,-0.00001196,-0.00002132,-0.00
 001998,0.00000237,-0.00003477,-0.00003228,-0.00001387,0.00007671,-0.00
 008874,-0.00012949,0.00019550,-0.00014870,-0.00004017,-0.00007100,0.00
 005710,-0.00000440,0.00000910,-0.00000505,-0.00000138,-0.00000754,-0.0
 0001379,-0.00000261,-0.00000928,-0.00001939,-0.00000582,-0.00001919,-0
 .00000781,-0.00003142,-0.00001349,0.00715258,0.00001273,0.00002379,-0.
 00644949,-0.00009936,0.00007375,0.00707025,-0.00006935,-0.00018512,-0.
 06303358,0.00010837,0.00030849,0.13517539,-0.00008927,0.00013484,-0.00
 017664,-0.00002298,0.00002412,0.00003804,-0.00000554,-0.00000948,-0.00
 003268,-0.00000346,0.00002697,0.00001464,0.00002528,0.00001876,0.00004
 040,-0.00001734,-0.00004801,0.00009190,0.00012490,-0.00018634,-0.00001
 830,0.00004046,0.00003834,-0.00003878,0.00000256,-0.00000549,0.0000145
 9,-0.00000098,0.00000188,0.00000666,-0.00000152,0.00000362,0.00001596,
 -0.00001262,0.00000255,-0.00000836,-0.17912112,0.05505860,0.00001374,0
 .06454891,0.02327454,0.00009936,-0.05175485,0.02949475,0.00001273,-0.0
 2735076,-0.07634732,-0.00001198,-0.32950263,0.03194046,0.00004590,0.67
 389605,0.00015432,0.00004729,-0.00023590,-0.00002089,0.00009228,0.0000
 8717,-0.00001611,-0.00001427,-0.00000265,-0.00000564,0.00000230,0.0000
 2984,0.00000438,0.00004357,0.00000665,0.00000799,-0.00014025,0.0001112
 0,-0.00019165,-0.00008897,-0.00004352,0.00003519,0.00002246,-0.0000406
 1,0.00000362,-0.00000880,0.00002593,0.00000039,0.00000234,0.00000932,-
 0.00000312,0.00000676,0.00002409,-0.00001949,0.00001432,0.00000735,0.1
 1895094,-0.27933765,-0.00002265,-0.02327454,-0.05785554,-0.00007375,0.
 02949475,-0.01800676,-0.00002379,-0.02973125,0.03398735,-0.00004131,-0
 .03194046,-0.12910267,-0.00006786,0.03527688,0.71512678,-0.00016403,-0
 .00016154,0.00010210,0.00004781,0.00004998,0.00001556,-0.00004696,-0.0
 0003783,0.00003115,0.00001196,-0.00002132,-0.00001998,-0.00000237,-0.0
 0003477,-0.00003228,0.00001387,0.00007671,-0.00008874,0.00012949,0.000
 19550,-0.00014870,0.00004017,-0.00007100,0.00005710,0.00000440,0.00000
 910,-0.00000505,0.00000138,-0.00000754,-0.00001379,0.00000261,-0.00000
 928,-0.00001939,0.00000582,-0.00001919,-0.00000781,0.00006935,-0.00018
 511,-0.06303358,0.00009936,0.00007375,0.00707025,-0.00001273,0.0000237
 9,-0.00644949,0.00003142,-0.00001349,0.00715258,-0.00004590,-0.0000678
 6,-0.06310718,-0.00010837,0.00030849,0.13517539,0.00005707,0.,0.000021
 09,0.00001942,0.00001843,-0.00001031,0.00000499,0.00000109,-0.00000455
 ,0.00000035,0.,-0.00000442,0.00000499,-0.00000109,-0.00000455,0.000019
 42,-0.00001843,-0.00001031,-0.00007597,0.,0.00005071,-0.00001846,-0.00
 000248,0.00000673,-0.00000485,0.00000059,-0.00000106,-0.00000271,0.,-0
 .00000095,-0.00000485,-0.00000059,-0.00000106,-0.00001846,0.00000248,0
 .00000673,-0.33492246,0.,0.00046832,-0.01145661,0.00280022,0.00000110,
 0.00076426,-0.00320421,0.00002052,0.00071203,0.,-0.00001651,0.00076426
 ,0.00320421,0.00002052,-0.01145661,-0.00280022,0.00000110,0.35540234,0
 .,0.00000714,0.,-0.00000958,0.00000675,-0.00000241,-0.00000551,-0.0000
 0239,0.00000546,0.,-0.00000295,0.,0.00000551,-0.00000239,-0.00000546,0
 .00000958,0.00000675,0.00000241,0.,-0.00000927,0.,0.00001428,-0.000004
 75,-0.00000264,0.00000205,-0.00000099,0.00000184,0.,-0.00000052,0.,-0.
 00000205,-0.00000099,-0.00000184,-0.00001428,-0.00000475,0.00000264,0.
 ,-0.05908126,0.,-0.02844537,0.00455916,0.00002803,-0.00238160,-0.00452
 648,0.00000013,0.,-0.00124460,0.,0.00238160,-0.00452648,-0.00000013,0.
 02844537,0.00455916,-0.00002803,0.,0.05821975,0.00010940,0.,-0.0000271
 3,0.00001377,0.00003026,0.00000626,0.00000282,0.00000674,-0.00000683,-
 0.00000191,0.,0.00000743,0.00000282,-0.00000674,-0.00000683,0.00001377
 ,-0.00003026,0.00000626,-0.00014054,0.,0.00007244,-0.00001907,0.000008
 07,-0.00000377,-0.00000500,-0.00000486,0.00000564,-0.00000180,0.,0.000
 00708,-0.00000500,0.00000486,0.00000564,-0.00001907,-0.00000807,-0.000
 00377,0.00056294,0.,-0.03698893,0.00000289,-0.00003622,0.00323556,0.00
 000749,0.00000150,0.00732732,-0.00000561,0.,-0.00097403,0.00000749,-0.
 00000150,0.00732732,0.00000289,0.00003622,0.00323556,-0.00051396,0.,0.
 02560820,0.00000185,-0.00001588,0.00002447,0.00001050,-0.00000454,-0.0
 0000606,-0.00000376,-0.00000552,0.00001046,0.00000109,-0.00000442,0.00
 000504,-0.00000279,-0.00002716,-0.00000505,0.00000632,0.00007130,-0.00
 002474,-0.00001986,0.00002097,0.00001837,-0.00000209,-0.00001014,0.000
 00188,-0.00000020,-0.00000176,0.00000091,0.00000033,-0.00000338,0.0000
 0214,0.00000106,0.00000069,-0.00000597,-0.00000008,-0.00002099,-0.0000
 1870,0.01164631,-0.01506941,0.00001711,-0.12798258,0.11928190,-0.00006
 380,-0.01055426,0.02898578,-0.00001397,-0.00563359,-0.00129926,-0.0000
 1112,-0.00076022,-0.00085415,0.00000578,-0.00076567,-0.00327891,-0.000
 00225,0.00081005,0.00051812,-0.00000230,0.13245001,-0.00002829,0.00002
 653,-0.00002303,-0.00000477,-0.00002998,0.00000372,-0.00000122,0.00001
 097,-0.00001505,0.00000314,0.00001002,0.00000202,-0.00001572,0.0000223
 7,0.00001996,-0.00001287,-0.00004478,0.00002358,0.00002756,-0.00004734
 ,-0.00003866,0.00000050,0.00001771,-0.00000918,0.00000192,0.00000053,-
 0.00000197,0.00000207,0.00000360,-0.00000023,0.00000389,0.00000084,0.0
 0000479,0.00003010,0.00002827,0.00001079,0.01619061,-0.01860424,0.0000
 3280,0.11924414,-0.26567832,0.00008697,-0.00226357,0.00361691,0.000001
 95,-0.00047128,0.00187143,0.00001252,-0.00085063,0.00022748,0.00000636
 ,-0.00410638,-0.00298930,0.00000230,-0.00030117,0.00093515,-0.00000048
 ,-0.12855739,0.28089783,0.00005927,-0.00004366,-0.00002609,-0.00000541
 ,0.00003757,0.00001414,-0.00000004,-0.00001525,0.00002466,-0.00000159,
 -0.00001449,0.00001117,0.00000909,-0.00004000,-0.00002311,0.00001711,0
 .00007383,-0.00001717,-0.00003791,0.00007981,0.00005472,-0.00000193,-0
 .00001412,0.00000093,-0.00000105,-0.00000742,0.00000866,-0.00000150,-0
 .00000584,0.00001009,-0.00000366,0.00000583,-0.00000151,-0.00004256,-0
 .00005382,-0.00003372,0.00002027,-0.00001621,0.00327236,-0.00002130,0.
 00011426,-0.03692790,-0.00004429,0.00000197,0.00332456,0.00000265,-0.0
 0002051,0.00731668,0.00001304,0.00001313,-0.00096909,-0.00000417,0.000
 01039,0.00733142,-0.00001602,0.00000450,-0.00401697,0.00006588,-0.0001
 1394,0.02549357,0.00000185,0.00001588,-0.00002447,0.00001050,0.0000045
 4,0.00000606,-0.00000376,0.00000552,-0.00001046,0.00000109,0.00000442,
 -0.00000504,-0.00000279,0.00002716,0.00000505,0.00000632,-0.00007130,0
 .00002474,-0.00001986,-0.00002097,-0.00001837,-0.00000209,0.00001014,-
 0.00000188,-0.00000020,0.00000176,-0.00000091,0.00000033,0.00000338,-0
 .00000214,0.00000106,-0.00000069,0.00000597,-0.00000008,0.00002099,0.0
 0001870,-0.00563359,0.00129926,0.00001112,-0.01055426,-0.02898578,0.00
 001397,-0.12798258,-0.11928190,0.00006380,0.01164631,0.01506941,-0.000
 01711,-0.00076567,0.00327891,0.00000225,-0.00076022,0.00085415,-0.0000
 0578,-0.00066338,-0.00139879,-0.00000367,0.00101395,0.00041818,-0.0000
 0144,0.13245001,0.00002829,0.00002653,-0.00002303,0.00000477,-0.000029
 98,0.00000372,0.00000122,0.00001097,-0.00001505,-0.00000314,0.00001002
 ,0.00000202,0.00001572,0.00002237,0.00001996,0.00001287,-0.00004478,0.
 00002358,-0.00002756,-0.00004734,-0.00003866,-0.00000050,0.00001771,-0
 .00000918,-0.00000192,0.00000053,-0.00000197,-0.00000207,0.00000360,-0
 .00000023,-0.00000389,0.00000084,0.00000479,-0.00003010,0.00002827,0.0
 0001079,0.00047128,0.00187143,0.00001252,0.00226357,0.00361691,0.00000
 195,-0.11924414,-0.26567832,0.00008697,-0.01619062,-0.01860424,0.00003
 280,0.00410638,-0.00298930,0.00000230,0.00085063,0.00022748,0.00000636
 ,0.00019802,0.00002650,-0.00000011,-0.00041818,0.00074505,-0.00000049,
 0.12855739,0.28089783,-0.00005927,-0.00004366,-0.00002609,0.00000541,0
 .00003757,0.00001414,0.00000004,-0.00001525,0.00002466,0.00000159,-0.0
 0001449,0.00001117,-0.00000909,-0.00004000,-0.00002311,-0.00001711,0.0
 0007383,-0.00001717,0.00003791,0.00007981,0.00005472,0.00000193,-0.000
 01412,0.00000093,0.00000105,-0.00000742,0.00000866,0.00000150,-0.00000
 584,0.00001009,0.00000366,0.00000583,-0.00000151,0.00004256,-0.0000538
 2,-0.00003372,-0.00000265,-0.00002051,0.00731668,0.00004429,0.00000197
 ,0.00332456,0.00002130,0.00011426,-0.03692790,-0.00002027,-0.00001621,
 0.00327236,0.00000417,0.00001039,0.00733142,-0.00001304,0.00001313,-0.
 00096909,0.00000025,-0.00000015,0.00018442,0.00000144,-0.00000049,-0.0
 0404286,-0.00006588,-0.00011394,0.02549357,0.00005707,0.,-0.00002109,0
 .00001942,-0.00001843,0.00001031,0.00000499,-0.00000109,0.00000455,0.0
 0000035,0.,0.00000442,0.00000499,0.00000109,0.00000455,0.00001942,0.00
 001843,0.00001031,-0.00007597,0.,-0.00005071,-0.00001846,0.00000248,-0
 .00000673,-0.00000485,-0.00000059,0.00000106,-0.00000271,0.,0.00000095
 ,-0.00000485,0.00000059,0.00000106,-0.00001846,-0.00000248,-0.00000673
 ,0.00071203,0.,0.00001651,0.00076426,0.00320421,-0.00002052,-0.0114566
 1,-0.00280022,-0.00000110,-0.33492246,0.,-0.00046832,-0.01145661,0.002
 80022,-0.00000110,0.00076426,-0.00320421,-0.00002052,-0.00008150,0.,-0
 .00000240,-0.00066338,-0.00019802,-0.00000025,0.00081005,0.00030117,0.
 00001602,0.35540234,0.,0.00000714,0.,0.00000958,0.00000675,-0.00000241
 ,0.00000551,-0.00000239,0.00000546,0.,-0.00000295,0.,-0.00000551,-0.00
 000239,-0.00000546,-0.00000958,0.00000675,0.00000241,0.,-0.00000927,0.
 ,-0.00001428,-0.00000475,-0.00000264,-0.00000205,-0.00000099,0.0000018
 4,0.,-0.00000052,0.,0.00000205,-0.00000099,-0.00000184,0.00001428,-0.0
 0000475,0.00000264,0.,-0.00124460,0.,0.00238160,-0.00452648,0.00000013
 ,0.02844537,0.00455916,0.00002803,0.,-0.05908126,0.,-0.02844537,0.0045
 5916,-0.00002803,-0.00238160,-0.00452648,-0.00000013,0.,0.00012583,0.,
 0.00139879,0.00002650,-0.00000015,-0.00051812,0.00093515,0.00000450,0.
 ,0.05821975,-0.00010940,0.,-0.00002713,-0.00001377,0.00003026,0.000006
 26,-0.00000282,0.00000674,-0.00000683,0.00000191,0.,0.00000743,-0.0000
 0282,-0.00000674,-0.00000683,-0.00001377,-0.00003026,0.00000626,0.0001
 4054,0.,0.00007244,0.00001907,0.00000807,-0.00000377,0.00000500,-0.000
 00486,0.00000564,0.00000180,0.,0.00000708,0.00000500,0.00000486,0.0000
 0564,0.00001907,-0.00000807,-0.00000377,0.00000561,0.,-0.00097403,-0.0
 0000749,0.00000150,0.00732732,-0.00000289,-0.00003622,0.00323556,-0.00
 056294,0.,-0.03698893,-0.00000289,0.00003622,0.00323556,-0.00000749,-0
 .00000150,0.00732732,0.00000240,0.,-0.00116832,0.00000367,-0.00000011,
 0.00018442,0.00000230,-0.00000048,-0.00401697,0.00051396,0.,0.02560820
 ,0.00000185,-0.00001588,-0.00002447,0.00000632,0.00007130,0.00002474,-
 0.00000279,-0.00002716,0.00000505,0.00000109,-0.00000442,-0.00000504,-
 0.00000376,-0.00000552,-0.00001046,0.00001050,-0.00000454,0.00000606,-
 0.00001986,0.00002097,-0.00001837,-0.00000008,-0.00002099,0.00001870,0
 .00000106,0.00000069,0.00000597,0.00000033,-0.00000338,-0.00000214,-0.
 00000020,-0.00000176,-0.00000091,-0.00000209,-0.00001014,-0.00000188,-
 0.00563359,-0.00129926,0.00001112,-0.00076022,-0.00085415,-0.00000578,
 -0.00076567,-0.00327891,0.00000225,0.01164631,-0.01506941,-0.00001711,
 -0.12798258,0.11928190,0.00006380,-0.01055426,0.02898578,0.00001397,-0
 .00066338,0.00139879,-0.00000367,0.00007371,0.00009136,-0.00000050,0.0
 0037332,-0.00079782,0.00000369,0.00081005,0.00051812,0.00000230,0.1324
 5001,-0.00002829,0.00002653,0.00002303,-0.00001287,-0.00004478,-0.0000
 2358,-0.00001572,0.00002237,-0.00001996,0.00000314,0.00001002,-0.00000
 202,-0.00000122,0.00001097,0.00001505,-0.00000477,-0.00002998,-0.00000
 372,0.00002756,-0.00004734,0.00003866,0.00003010,0.00002827,-0.0000107
 9,0.00000389,0.00000084,-0.00000479,0.00000207,0.00000360,0.00000023,0
 .00000192,0.00000053,0.00000197,0.00000050,0.00001771,0.00000918,-0.00
 047128,0.00187143,-0.00001252,-0.00085063,0.00022748,-0.00000636,-0.00
 410638,-0.00298930,-0.00000230,0.01619061,-0.01860424,-0.00003280,0.11
 924414,-0.26567832,-0.00008697,-0.00226357,0.00361691,-0.00000195,-0.0
 0019802,0.00002650,0.00000011,0.00009136,-0.00003023,0.00000400,0.0007
 9782,-0.00101700,0.00000063,-0.00030117,0.00093515,0.00000048,-0.12855
 739,0.28089783,-0.00005927,0.00004366,-0.00002609,-0.00001711,-0.00007
 383,-0.00001717,-0.00000909,0.00004000,-0.00002311,0.00000159,0.000014
 49,0.00001117,0.00000004,0.00001525,0.00002466,0.00000541,-0.00003757,
 0.00001414,0.00003791,-0.00007981,0.00005472,0.00004256,0.00005382,-0.
 00003372,0.00000366,-0.00000583,-0.00000151,0.00000150,0.00000584,0.00
 001009,0.00000105,0.00000742,0.00000866,0.00000193,0.00001412,0.000000
 93,-0.00000265,0.00002051,0.00731668,-0.00001304,-0.00001313,-0.000969
 09,0.00000417,-0.00001039,0.00733142,-0.00002027,0.00001621,0.00327236
 ,0.00002130,-0.00011426,-0.03692790,0.00004429,-0.00000197,0.00332456,
 0.00000025,0.00000015,0.00018442,0.00000050,-0.00000400,-0.00116922,0.
 00000369,-0.00000063,0.00018026,0.00001602,-0.00000450,-0.00401697,-0.
 00006588,0.00011394,0.02549357,0.00000185,0.00001588,0.00002447,0.0000
 0632,-0.00007130,-0.00002474,-0.00000279,0.00002716,-0.00000505,0.0000
 0109,0.00000442,0.00000504,-0.00000376,0.00000552,0.00001046,0.0000105
 0,0.00000454,-0.00000606,-0.00001986,-0.00002097,0.00001837,-0.0000000
 8,0.00002099,-0.00001870,0.00000106,-0.00000069,-0.00000597,0.00000033
 ,0.00000338,0.00000214,-0.00000020,0.00000176,0.00000091,-0.00000209,0
 .00001014,0.00000188,0.01164631,0.01506941,0.00001711,-0.00076567,0.00
 327891,-0.00000225,-0.00076022,0.00085415,0.00000578,-0.00563359,0.001
 29926,-0.00001112,-0.01055426,-0.02898578,-0.00001397,-0.12798258,-0.1
 1928190,-0.00006380,0.00081005,-0.00051812,-0.00000230,0.00037332,0.00
 079782,-0.00000369,0.00007371,-0.00009136,0.00000050,-0.00066338,-0.00
 139879,0.00000367,0.00101395,0.00041818,0.00000144,0.13245001,0.000028
 29,0.00002653,0.00002303,0.00001287,-0.00004478,-0.00002358,0.00001572
 ,0.00002237,-0.00001996,-0.00000314,0.00001002,-0.00000202,0.00000122,
 0.00001097,0.00001505,0.00000477,-0.00002998,-0.00000372,-0.00002756,-
 0.00004734,0.00003866,-0.00003010,0.00002827,-0.00001079,-0.00000389,0
 .00000084,-0.00000479,-0.00000207,0.00000360,0.00000023,-0.00000192,0.
 00000053,0.00000197,-0.00000050,0.00001771,0.00000918,-0.01619062,-0.0
 1860424,-0.00003280,0.00410638,-0.00298930,-0.00000230,0.00085063,0.00
 022748,-0.00000636,0.00047128,0.00187143,-0.00001252,0.00226357,0.0036
 1691,-0.00000195,-0.11924414,-0.26567832,-0.00008697,0.00030117,0.0009
 3515,0.00000048,-0.00079782,-0.00101700,0.00000063,-0.00009136,-0.0000
 3023,0.00000400,0.00019802,0.00002650,0.00000011,-0.00041818,0.0007450
 5,0.00000049,0.12855739,0.28089783,0.00005927,0.00004366,-0.00002609,0
 .00001711,-0.00007383,-0.00001717,0.00000909,0.00004000,-0.00002311,-0
 .00000159,0.00001449,0.00001117,-0.00000004,0.00001525,0.00002466,-0.0
 0000541,-0.00003757,0.00001414,-0.00003791,-0.00007981,0.00005472,-0.0
 0004256,0.00005382,-0.00003372,-0.00000366,-0.00000583,-0.00000151,-0.
 00000150,0.00000584,0.00001009,-0.00000105,0.00000742,0.00000866,-0.00
 000193,0.00001412,0.00000093,0.00002027,0.00001621,0.00327236,-0.00000
 417,-0.00001039,0.00733142,0.00001304,-0.00001313,-0.00096909,0.000002
 65,0.00002051,0.00731668,-0.00004429,-0.00000197,0.00332456,-0.0000213
 0,-0.00011426,-0.03692790,-0.00001602,-0.00000450,-0.00401697,-0.00000
 369,-0.00000063,0.00018026,-0.00000050,-0.00000400,-0.00116922,-0.0000
 0025,0.00000015,0.00018442,-0.00000144,0.00000049,-0.00404286,0.000065
 88,0.00011394,0.02549357\\0.,0.,-0.00000059,0.,-0.00000200,-0.00000084
 ,0.,-0.00000365,0.00000012,0.,0.,0.00000131,0.,0.00000365,0.00000012,0
 .,0.00000200,-0.00000084,0.,0.,0.00000523,0.,0.00000308,0.00000102,0.,
 0.00000346,-0.00000150,0.,0.,-0.00000402,0.,-0.00000346,-0.00000150,0.
 ,-0.00000308,0.00000102,-0.00000478,0.,0.00000155,0.00000131,0.0000022
 1,-0.00000343,-0.00000131,0.00000221,-0.00000343,0.00000478,0.,0.00000
 155,-0.00000131,-0.00000221,-0.00000343,0.00000131,-0.00000221,-0.0000
 0343,0.00000392,0.,-0.00000149,0.00000100,-0.00000362,0.00000352,-0.00
 000100,-0.00000362,0.00000352,-0.00000392,0.,-0.00000149,-0.00000100,0
 .00000362,0.00000352,0.00000100,0.00000362,0.00000352\\\@


 IF YOU PERCEIVE THAT THERE ARE FOUR POSSIBLE WAYS IN
 WHICH A PROCEDURE CAN GO WRONG AND CIRCUMVENT THESE, 
 THEN A FIFTH WAY WILL DEVELOP.

                              -- MURPHY'S TWELFTH LAW
 Job cpu time:       0 days  0 hours 58 minutes 32.4 seconds.
 File lengths (MBytes):  RWF=    248 Int=      0 D2E=      0 Chk=     10 Scr=      1
 Normal termination of Gaussian 09 at Mon Oct 10 14:46:54 2016.
