 Entering Gaussian System, Link 0=g09
 Initial command:
 /cluster/software/gaussian/gaussian-09-D.01/g09/l1.exe "/local/scratch/maxb2/Gau-19150.inp" -scrdir="/local/scratch/maxb2/"
 Entering Link 1 = /cluster/software/gaussian/gaussian-09-D.01/g09/l1.exe PID=     19151.
  
 Copyright (c) 1988,1990,1992,1993,1995,1998,2003,2009,2013,
            Gaussian, Inc.  All Rights Reserved.
  
 This is part of the Gaussian(R) 09 program.  It is based on
 the Gaussian(R) 03 system (copyright 2003, Gaussian, Inc.),
 the Gaussian(R) 98 system (copyright 1998, Gaussian, Inc.),
 the Gaussian(R) 94 system (copyright 1995, Gaussian, Inc.),
 the Gaussian 92(TM) system (copyright 1992, Gaussian, Inc.),
 the Gaussian 90(TM) system (copyright 1990, Gaussian, Inc.),
 the Gaussian 88(TM) system (copyright 1988, Gaussian, Inc.),
 the Gaussian 86(TM) system (copyright 1986, Carnegie Mellon
 University), and the Gaussian 82(TM) system (copyright 1983,
 Carnegie Mellon University). Gaussian is a federally registered
 trademark of Gaussian, Inc.
  
 This software contains proprietary and confidential information,
 including trade secrets, belonging to Gaussian, Inc.
  
 This software is provided under written license and may be
 used, copied, transmitted, or stored only in accord with that
 written license.
  
 The following legend is applicable only to US Government
 contracts under FAR:
  
                    RESTRICTED RIGHTS LEGEND
  
 Use, reproduction and disclosure by the US Government is
 subject to restrictions as set forth in subparagraphs (a)
 and (c) of the Commercial Computer Software - Restricted
 Rights clause in FAR 52.227-19.
  
 Gaussian, Inc.
 340 Quinnipiac St., Bldg. 40, Wallingford CT 06492
  
  
 ---------------------------------------------------------------
 Warning -- This program may not be used in any manner that
 competes with the business of Gaussian, Inc. or will provide
 assistance to any competitor of Gaussian, Inc.  The licensee
 of this program is prohibited from giving any competitor of
 Gaussian, Inc. access to this program.  By using this program,
 the user acknowledges that Gaussian, Inc. is engaged in the
 business of creating and licensing software in the field of
 computational chemistry and represents and warrants to the
 licensee that it is not a competitor of Gaussian, Inc. and that
 it will not use this program in any manner prohibited above.
 ---------------------------------------------------------------
  

 Cite this work as:
 Gaussian 09, Revision D.01,
 M. J. Frisch, G. W. Trucks, H. B. Schlegel, G. E. Scuseria, 
 M. A. Robb, J. R. Cheeseman, G. Scalmani, V. Barone, B. Mennucci, 
 G. A. Petersson, H. Nakatsuji, M. Caricato, X. Li, H. P. Hratchian, 
 A. F. Izmaylov, J. Bloino, G. Zheng, J. L. Sonnenberg, M. Hada, 
 M. Ehara, K. Toyota, R. Fukuda, J. Hasegawa, M. Ishida, T. Nakajima, 
 Y. Honda, O. Kitao, H. Nakai, T. Vreven, J. A. Montgomery, Jr., 
 J. E. Peralta, F. Ogliaro, M. Bearpark, J. J. Heyd, E. Brothers, 
 K. N. Kudin, V. N. Staroverov, T. Keith, R. Kobayashi, J. Normand, 
 K. Raghavachari, A. Rendell, J. C. Burant, S. S. Iyengar, J. Tomasi, 
 M. Cossi, N. Rega, J. M. Millam, M. Klene, J. E. Knox, J. B. Cross, 
 V. Bakken, C. Adamo, J. Jaramillo, R. Gomperts, R. E. Stratmann, 
 O. Yazyev, A. J. Austin, R. Cammi, C. Pomelli, J. W. Ochterski, 
 R. L. Martin, K. Morokuma, V. G. Zakrzewski, G. A. Voth, 
 P. Salvador, J. J. Dannenberg, S. Dapprich, A. D. Daniels, 
 O. Farkas, J. B. Foresman, J. V. Ortiz, J. Cioslowski, 
 and D. J. Fox, Gaussian, Inc., Wallingford CT, 2013.
 
 ******************************************
 Gaussian 09:  ES64L-G09RevD.01 24-Apr-2013
                 9-Oct-2016 
 ******************************************
 %mem=6GB
 %nprocshared=2
 Will use up to    2 processors via shared memory.
 %chk=H20Aggrhf
 ------------------------------------------
 # opt freq rhf/6-311+g** geom=connectivity
 ------------------------------------------
 1/18=20,19=15,38=1,57=2/1,3;
 2/9=110,12=2,17=6,18=5,40=1/2;
 3/5=4,6=6,7=111,11=1,16=1,25=1,30=1,71=1,116=1/1,2,3;
 4//1;
 5/5=2,38=5/2;
 6/7=2,8=2,9=2,10=2,28=1/1;
 7//1,2,3,16;
 1/18=20,19=15/3(2);
 2/9=110/2;
 99//99;
 2/9=110/2;
 3/5=4,6=6,7=111,11=1,16=1,25=1,30=1,71=1,116=1/1,2,3;
 4/5=5,16=3,69=1/1;
 5/5=2,38=5/2;
 7//1,2,3,16;
 1/18=20,19=15/3(-5);
 2/9=110/2;
 6/7=2,8=2,9=2,10=2,19=2,28=1/1;
 99/9=1/99;
 -------------------
 Title Card Required
 -------------------
 Symbolic Z-matrix:
 Charge =  0 Multiplicity = 1
 O
 H                    1    B1
 H                    1    B2       2    A1
 O                    1    B3       2    A2       3    D1       0
 H                    4    B4       1    A3       2    D2       0
 H                    4    B5       1    A4       2    D3       0
       Variables:
  B1                    0.96                     
  B2                    0.96                     
  B3                    2.36964                  
  B4                    0.96                     
  B5                    0.96                     
  A1                  109.5                      
  A2                    1.21094                  
  A3                  169.42556                  
  A4                   81.07444                  
  D1                    0.                       
  D2                  180.                       
  D3                    0.                       
 

 GradGradGradGradGradGradGradGradGradGradGradGradGradGradGradGradGradGrad
 Berny optimization.
 Initialization pass.
                           ----------------------------
                           !    Initial Parameters    !
                           ! (Angstroms and Degrees)  !
 --------------------------                            --------------------------
 ! Name  Definition              Value          Derivative Info.                !
 --------------------------------------------------------------------------------
 ! R1    R(1,2)                  0.96           estimate D2E/DX2                !
 ! R2    R(1,3)                  0.96           estimate D2E/DX2                !
 ! R3    R(2,4)                  1.41           estimate D2E/DX2                !
 ! R4    R(4,5)                  0.96           estimate D2E/DX2                !
 ! R5    R(4,6)                  0.96           estimate D2E/DX2                !
 ! A1    A(2,1,3)              109.5            estimate D2E/DX2                !
 ! A2    A(2,4,6)               80.25           estimate D2E/DX2                !
 ! A3    A(5,4,6)              109.5            estimate D2E/DX2                !
 ! A4    L(1,2,4,3,-1)         177.9646         estimate D2E/DX2                !
 ! A5    L(2,4,5,6,-1)         189.75           estimate D2E/DX2                !
 ! A6    L(1,2,4,3,-2)         180.0            estimate D2E/DX2                !
 ! A7    L(2,4,5,6,-2)         180.0            estimate D2E/DX2                !
 ! D1    D(3,1,4,6)            180.0            estimate D2E/DX2                !
 ! D2    D(2,4,5,6)            180.0            estimate D2E/DX2                !
 --------------------------------------------------------------------------------
 Trust Radius=3.00D-01 FncErr=1.00D-07 GrdErr=1.00D-07
 Number of steps in this run=     24 maximum allowed number of steps=    100.
 GradGradGradGradGradGradGradGradGradGradGradGradGradGradGradGradGradGrad

                          Input orientation:                          
 ---------------------------------------------------------------------
 Center     Atomic      Atomic             Coordinates (Angstroms)
 Number     Number       Type             X           Y           Z
 ---------------------------------------------------------------------
      1          8           0        0.000000    0.000000    0.000000
      2          1           0        0.000000    0.000000    0.960000
      3          1           0        0.904936    0.000000   -0.320455
      4          8           0        0.050078    0.000000    2.369110
      5          1           0        0.246155    0.000000    3.308873
      6          1           0       -0.901233    0.000000    2.240241
 ---------------------------------------------------------------------
                    Distance matrix (angstroms):
                    1          2          3          4          5
     1  O    0.000000
     2  H    0.960000   0.000000
     3  H    0.960000   1.567952   0.000000
     4  O    2.369640   1.410000   2.822152   0.000000
     5  H    3.318017   2.361736   3.688633   0.960000   0.000000
     6  H    2.414726   1.565643   3.133593   0.960000   1.567952
                    6
     6  H    0.000000
 Stoichiometry    H4O2
 Framework group  CS[SG(H4O2)]
 Deg. of freedom     9
 Full point group                 CS      NOp   2
 Largest Abelian subgroup         CS      NOp   2
 Largest concise Abelian subgroup C1      NOp   1
                         Standard orientation:                         
 ---------------------------------------------------------------------
 Center     Atomic      Atomic             Coordinates (Angstroms)
 Number     Number       Type             X           Y           Z
 ---------------------------------------------------------------------
      1          8           0       -0.005951   -1.257484    0.000000
      2          1           0       -0.026239   -0.297698    0.000000
      3          1           0        0.905555   -1.558742    0.000000
      4          8           0       -0.005951    1.112156    0.000000
      5          1           0        0.170221    2.055853    0.000000
      6          1           0       -0.954326    0.963211    0.000000
 ---------------------------------------------------------------------
 Rotational constants (GHZ):    297.5411786      9.5627892      9.2650172
 Standard basis: 6-311+G(d,p) (5D, 7F)
 There are    54 symmetry adapted cartesian basis functions of A'  symmetry.
 There are    16 symmetry adapted cartesian basis functions of A"  symmetry.
 There are    52 symmetry adapted basis functions of A'  symmetry.
 There are    16 symmetry adapted basis functions of A"  symmetry.
    68 basis functions,   104 primitive gaussians,    70 cartesian basis functions
    10 alpha electrons       10 beta electrons
       nuclear repulsion energy        41.0123592975 Hartrees.
 NAtoms=    6 NActive=    6 NUniq=    6 SFac= 1.00D+00 NAtFMM=   60 NAOKFM=F Big=F
 Integral buffers will be    131072 words long.
 Raffenetti 1 integral format.
 Two-electron integral symmetry is turned on.
 One-electron integrals computed using PRISM.
 NBasis=    68 RedAO= T EigKep=  1.54D-03  NBF=    52    16
 NBsUse=    68 1.00D-06 EigRej= -1.00D+00 NBFU=    52    16
 ExpMin= 8.45D-02 ExpMax= 8.59D+03 ExpMxC= 1.30D+03 IAcc=2 IRadAn=         4 AccDes= 0.00D+00
 Harris functional with IExCor=  205 and IRadAn=       4 diagonalized for initial guess.
 HarFok:  IExCor=  205 AccDes= 0.00D+00 IRadAn=         4 IDoV= 1 UseB2=F ITyADJ=14
 ICtDFT=  3500011 ScaDFX=  1.000000  1.000000  1.000000  1.000000
 FoFCou: FMM=F IPFlag=           0 FMFlag=      100000 FMFlg1=           0
         NFxFlg=           0 DoJE=T BraDBF=F KetDBF=T FulRan=T
         wScrn=  0.000000 ICntrl=     500 IOpCl=  0 I1Cent=   200000004 NGrid=           0
         NMat0=    1 NMatS0=      1 NMatT0=    0 NMatD0=    1 NMtDS0=    0 NMtDT0=    0
 Petite list used in FoFCou.
 Initial guess orbital symmetries:
       Occupied  (A') (A') (A') (A') (A') (A') (A') (A') (A") (A")
       Virtual   (A') (A') (A') (A") (A') (A') (A') (A") (A') (A')
                 (A') (A') (A') (A') (A') (A') (A') (A") (A') (A')
                 (A") (A') (A") (A') (A") (A') (A') (A") (A') (A")
                 (A') (A') (A') (A') (A') (A') (A') (A') (A') (A")
                 (A') (A") (A") (A") (A') (A') (A') (A') (A') (A')
                 (A") (A") (A') (A') (A') (A') (A') (A')
 The electronic state of the initial guess is 1-A'.
 Keep R1 ints in memory in symmetry-blocked form, NReq=4286288.
 Requested convergence on RMS density matrix=1.00D-08 within 128 cycles.
 Requested convergence on MAX density matrix=1.00D-06.
 Requested convergence on             energy=1.00D-06.
 No special actions if energy rises.
 SCF Done:  E(RHF) =  -152.085143677     A.U. after   11 cycles
            NFock= 11  Conv=0.52D-08     -V/T= 1.9997

 **********************************************************************

            Population analysis using the SCF density.

 **********************************************************************

 Orbital symmetries:
       Occupied  (A') (A') (A') (A') (A') (A') (A') (A") (A') (A")
       Virtual   (A') (A') (A') (A') (A") (A') (A') (A") (A') (A')
                 (A') (A') (A') (A') (A') (A') (A') (A") (A') (A')
                 (A") (A') (A") (A') (A") (A') (A") (A') (A') (A")
                 (A') (A') (A') (A') (A') (A') (A') (A') (A') (A')
                 (A") (A") (A") (A') (A") (A') (A') (A') (A') (A')
                 (A") (A") (A') (A') (A') (A') (A') (A')
 The electronic state is 1-A'.
 Alpha  occ. eigenvalues --  -20.60426 -20.50713  -1.41008  -1.30262  -0.80425
 Alpha  occ. eigenvalues --   -0.69896  -0.61605  -0.55953  -0.51212  -0.45914
 Alpha virt. eigenvalues --    0.11593   0.16530   0.19727   0.22838   0.23009
 Alpha virt. eigenvalues --    0.25158   0.27204   0.29594   0.30038   0.35252
 Alpha virt. eigenvalues --    0.44260   0.54656   0.60926   0.68421   0.72916
 Alpha virt. eigenvalues --    0.86174   1.12352   1.18189   1.19840   1.26696
 Alpha virt. eigenvalues --    1.30970   1.32210   1.42552   1.50705   1.55159
 Alpha virt. eigenvalues --    1.63965   1.69274   1.69878   1.79495   1.85623
 Alpha virt. eigenvalues --    1.86471   2.09411   2.23626   2.37016   2.43383
 Alpha virt. eigenvalues --    2.56404   2.80413   2.87837   2.94874   3.25500
 Alpha virt. eigenvalues --    3.38100   3.47007   3.53734   3.64965   3.66106
 Alpha virt. eigenvalues --    3.79089   4.04563   4.14161   4.29008   4.68685
 Alpha virt. eigenvalues --    5.44821   5.55756   5.80977   5.98726   6.16623
 Alpha virt. eigenvalues --    6.60172  51.57127  51.70927
          Condensed to atoms (all electrons):
               1          2          3          4          5          6
     1  O    8.189996   0.215895   0.332860   0.035828   0.005873   0.002486
     2  H    0.215895   0.385817  -0.026236  -0.168441   0.005613   0.002707
     3  H    0.332860  -0.026236   0.426220   0.004873  -0.000917  -0.000187
     4  O    0.035828  -0.168441   0.004873   8.139742   0.336342   0.334971
     5  H    0.005873   0.005613  -0.000917   0.336342   0.332493  -0.019072
     6  H    0.002486   0.002707  -0.000187   0.334971  -0.019072   0.400546
 Mulliken charges:
               1
     1  O   -0.782938
     2  H    0.584646
     3  H    0.263388
     4  O   -0.683314
     5  H    0.339669
     6  H    0.278549
 Sum of Mulliken charges =   0.00000
 Mulliken charges with hydrogens summed into heavy atoms:
               1
     1  O    0.065096
     4  O   -0.065096
 Electronic spatial extent (au):  <R**2>=            140.3131
 Charge=              0.0000 electrons
 Dipole moment (field-independent basis, Debye):
    X=              0.2824    Y=              3.7895    Z=              0.0000  Tot=              3.8000
 Quadrupole moment (field-independent basis, Debye-Ang):
   XX=            -10.1056   YY=             -9.9573   ZZ=            -15.0621
   XY=             -3.8869   XZ=              0.0000   YZ=              0.0000
 Traceless Quadrupole moment (field-independent basis, Debye-Ang):
   XX=              1.6027   YY=              1.7510   ZZ=             -3.3538
   XY=             -3.8869   XZ=              0.0000   YZ=              0.0000
 Octapole moment (field-independent basis, Debye-Ang**2):
  XXX=             -0.2189  YYY=             19.0623  ZZZ=              0.0000  XYY=              5.8209
  XXY=              0.4455  XXZ=              0.0000  XZZ=              0.0774  YZZ=              1.1103
  YYZ=              0.0000  XYZ=              0.0000
 Hexadecapole moment (field-independent basis, Debye-Ang**3):
 XXXX=            -11.1483 YYYY=            -97.2327 ZZZZ=            -13.2107 XXXY=             -2.0371
 XXXZ=              0.0000 YYYX=             -3.3373 YYYZ=              0.0000 ZZZX=              0.0000
 ZZZY=              0.0000 XXYY=            -18.7049 XXZZ=             -4.7202 YYZZ=            -26.4253
 XXYZ=              0.0000 YYXZ=              0.0000 ZZXY=              0.7058
 N-N= 4.101235929753D+01 E-N=-4.433800021429D+02  KE= 1.521332715936D+02
 Symmetry A'   KE= 1.432324616446D+02
 Symmetry A"   KE= 8.900809949001D+00
 Calling FoFJK, ICntrl=      2127 FMM=F ISym2X=1 I1Cent= 0 IOpClX= 0 NMat=1 NMatS=1 NMatT=0.
 ***** Axes restored to original set *****
 -------------------------------------------------------------------
 Center     Atomic                   Forces (Hartrees/Bohr)
 Number     Number              X              Y              Z
 -------------------------------------------------------------------
      1        8           0.008197374    0.000000000   -0.022645081
      2        1           0.026266243    0.000000000   -0.047009594
      3        1          -0.021495314    0.000000000    0.012833784
      4        8          -0.019486038    0.000000000    0.058933150
      5        1          -0.006581116    0.000000000   -0.020011440
      6        1           0.013098852    0.000000000    0.017899181
 -------------------------------------------------------------------
 Cartesian Forces:  Max     0.058933150 RMS     0.022230010

 GradGradGradGradGradGradGradGradGradGradGradGradGradGradGradGradGradGrad
 Berny optimization.
 FormGI is forming the generalized inverse of G from B-inverse, IUseBI=4.
 Internal  Forces:  Max     0.056324452 RMS     0.019542077
 Search for a local minimum.
 Step number   1 out of a maximum of   24
 All quantities printed in internal units (Hartrees-Bohrs-Radians)
 Mixed Optimization -- RFO/linear search
 Second derivative matrix not updated -- first step.
 The second derivative matrix:
                          R1        R2        R3        R4        R5
           R1           0.55473
           R2           0.00000   0.55473
           R3           0.00000   0.00000   0.14022
           R4           0.00000   0.00000   0.00000   0.55473
           R5           0.00000   0.00000   0.00000   0.00000   0.55473
           A1           0.00000   0.00000   0.00000   0.00000   0.00000
           A2           0.00000   0.00000   0.00000   0.00000   0.00000
           A3           0.00000   0.00000   0.00000   0.00000   0.00000
           A4           0.00000   0.00000   0.00000   0.00000   0.00000
           A5           0.00000   0.00000   0.00000   0.00000   0.00000
           A6           0.00000   0.00000   0.00000   0.00000   0.00000
           A7           0.00000   0.00000   0.00000   0.00000   0.00000
           D1           0.00000   0.00000   0.00000   0.00000   0.00000
           D2           0.00000   0.00000   0.00000   0.00000   0.00000
                          A1        A2        A3        A4        A5
           A1           0.16000
           A2           0.00000   0.16000
           A3           0.00000   0.00000   0.16000
           A4           0.00000   0.00000   0.00000   0.00230
           A5           0.00000   0.00000   0.00000   0.00000   0.01558
           A6           0.00000   0.00000   0.00000   0.00000   0.00000
           A7           0.00000   0.00000   0.00000   0.00000   0.00000
           D1           0.00000   0.00000   0.00000   0.00000   0.00000
           D2           0.00000   0.00000   0.00000   0.00000   0.00000
                          A6        A7        D1        D2
           A6           0.00230
           A7           0.00000   0.01558
           D1           0.00000   0.00000   0.00230
           D2           0.00000   0.00000   0.00000   0.01558
 ITU=  0
     Eigenvalues ---    0.00230   0.00230   0.00230   0.01558   0.06372
     Eigenvalues ---    0.14022   0.16000   0.16000   0.55473   0.55473
     Eigenvalues ---    0.55473   0.55473
 RFO step:  Lambda=-3.11191053D-02 EMin= 2.30000000D-03
 Linear search not attempted -- first point.
 Maximum step size (   0.300) exceeded in Quadratic search.
    -- Step size scaled by   0.514
 Iteration  1 RMS(Cart)=  0.10218429 RMS(Int)=  0.01188091
 Iteration  2 RMS(Cart)=  0.01689437 RMS(Int)=  0.00023582
 Iteration  3 RMS(Cart)=  0.00032774 RMS(Int)=  0.00000002
 Iteration  4 RMS(Cart)=  0.00000002 RMS(Int)=  0.00000000
 ClnCor:  largest displacement from symmetrization is 1.01D-12 for atom     3.
 Variable       Old X    -DE/DX   Delta X   Delta X   Delta X     New X
                                 (Linear)    (Quad)   (Total)
    R1        1.81414   0.00981   0.00000   0.00861   0.00861   1.82275
    R2        1.81414  -0.02455   0.00000  -0.02155  -0.02155   1.79259
    R3        2.66451   0.05632   0.00000   0.16908   0.16908   2.83359
    R4        1.81414  -0.02093   0.00000  -0.01838  -0.01838   1.79576
    R5        1.81414  -0.01538   0.00000  -0.01351  -0.01351   1.80063
    A1        1.91114  -0.00893   0.00000  -0.02403  -0.02403   1.88710
    A2        1.40063   0.01790   0.00000   0.05748   0.05748   1.45811
    A3        1.91114  -0.01109   0.00000  -0.02053  -0.02053   1.89061
    A4        3.10607   0.01519   0.00000   0.23385   0.23385   3.33992
    A5        3.31176   0.00681   0.00000   0.03696   0.03696   3.34872
    A6        3.14159   0.00000   0.00000   0.00000   0.00000   3.14159
    A7        3.14159   0.00000   0.00000   0.00000   0.00000   3.14159
    D1        3.14159   0.00000   0.00000   0.00000   0.00000   3.14159
    D2        3.14159   0.00000   0.00000   0.00000   0.00000   3.14159
         Item               Value     Threshold  Converged?
 Maximum Force            0.056324     0.000450     NO 
 RMS     Force            0.019542     0.000300     NO 
 Maximum Displacement     0.247968     0.001800     NO 
 RMS     Displacement     0.110406     0.001200     NO 
 Predicted change in Energy=-1.328979D-02
 GradGradGradGradGradGradGradGradGradGradGradGradGradGradGradGradGradGrad

                          Input orientation:                          
 ---------------------------------------------------------------------
 Center     Atomic      Atomic             Coordinates (Angstroms)
 Number     Number       Type             X           Y           Z
 ---------------------------------------------------------------------
      1          8           0       -0.000309    0.000000   -0.019022
      2          1           0        0.131219    0.000000    0.936526
      3          1           0        0.852571    0.000000   -0.434271
      4          8           0        0.039007    0.000000    2.433162
      5          1           0        0.176870    0.000000    3.373383
      6          1           0       -0.899422    0.000000    2.267993
 ---------------------------------------------------------------------
                    Distance matrix (angstroms):
                    1          2          3          4          5
     1  O    0.000000
     2  H    0.964558   0.000000
     3  H    0.948596   1.549010   0.000000
     4  O    2.452499   1.499474   2.980613   0.000000
     5  H    3.397029   2.437284   3.867143   0.950275   0.000000
     6  H    2.457405   1.683753   3.220513   0.952853   1.542819
                    6
     6  H    0.000000
 Stoichiometry    H4O2
 Framework group  CS[SG(H4O2)]
 Deg. of freedom     9
 Full point group                 CS      NOp   2
 Largest Abelian subgroup         CS      NOp   2
 Largest concise Abelian subgroup C1      NOp   1
                         Standard orientation:                         
 ---------------------------------------------------------------------
 Center     Atomic      Atomic             Coordinates (Angstroms)
 Number     Number       Type             X           Y           Z
 ---------------------------------------------------------------------
      1          8           0       -0.008137   -1.292156    0.000000
      2          1           0        0.108056   -0.334622    0.000000
      3          1           0        0.851290   -1.693678    0.000000
      4          8           0       -0.008137    1.160343    0.000000
      5          1           0        0.114636    2.102653    0.000000
      6          1           0       -0.943797    0.980151    0.000000
 ---------------------------------------------------------------------
 Rotational constants (GHZ):    321.9790802      8.9093957      8.6695042
 Standard basis: 6-311+G(d,p) (5D, 7F)
 There are    54 symmetry adapted cartesian basis functions of A'  symmetry.
 There are    16 symmetry adapted cartesian basis functions of A"  symmetry.
 There are    52 symmetry adapted basis functions of A'  symmetry.
 There are    16 symmetry adapted basis functions of A"  symmetry.
    68 basis functions,   104 primitive gaussians,    70 cartesian basis functions
    10 alpha electrons       10 beta electrons
       nuclear repulsion energy        40.2886288166 Hartrees.
 NAtoms=    6 NActive=    6 NUniq=    6 SFac= 1.00D+00 NAtFMM=   60 NAOKFM=F Big=F
 Integral buffers will be    131072 words long.
 Raffenetti 1 integral format.
 Two-electron integral symmetry is turned on.
 One-electron integrals computed using PRISM.
 NBasis=    68 RedAO= T EigKep=  1.82D-03  NBF=    52    16
 NBsUse=    68 1.00D-06 EigRej= -1.00D+00 NBFU=    52    16
 Initial guess from the checkpoint file:  "H20Aggrhf.chk"
 B after Tr=     0.000000    0.000000    0.000000
         Rot=    0.999999    0.000000    0.000000    0.001107 Ang=   0.13 deg.
 Initial guess orbital symmetries:
       Occupied  (A') (A') (A') (A') (A') (A') (A') (A") (A') (A")
       Virtual   (A') (A') (A') (A') (A') (A') (A') (A') (A') (A')
                 (A') (A') (A') (A') (A') (A') (A') (A') (A') (A')
                 (A') (A') (A') (A') (A') (A') (A') (A') (A') (A')
                 (A') (A') (A') (A') (A') (A') (A') (A') (A') (A')
                 (A') (A') (A') (A') (A") (A") (A") (A") (A") (A")
                 (A") (A") (A") (A") (A") (A") (A") (A")
 ExpMin= 8.45D-02 ExpMax= 8.59D+03 ExpMxC= 1.30D+03 IAcc=2 IRadAn=         4 AccDes= 0.00D+00
 Harris functional with IExCor=  205 and IRadAn=       4 diagonalized for initial guess.
 HarFok:  IExCor=  205 AccDes= 0.00D+00 IRadAn=         4 IDoV= 1 UseB2=F ITyADJ=14
 ICtDFT=  3500011 ScaDFX=  1.000000  1.000000  1.000000  1.000000
 FoFCou: FMM=F IPFlag=           0 FMFlag=      100000 FMFlg1=           0
         NFxFlg=           0 DoJE=T BraDBF=F KetDBF=T FulRan=T
         wScrn=  0.000000 ICntrl=     500 IOpCl=  0 I1Cent=   200000004 NGrid=           0
         NMat0=    1 NMatS0=      1 NMatT0=    0 NMatD0=    1 NMtDS0=    0 NMtDT0=    0
 Petite list used in FoFCou.
 Keep R1 ints in memory in symmetry-blocked form, NReq=4286288.
 Requested convergence on RMS density matrix=1.00D-08 within 128 cycles.
 Requested convergence on MAX density matrix=1.00D-06.
 Requested convergence on             energy=1.00D-06.
 No special actions if energy rises.
 SCF Done:  E(RHF) =  -152.097360465     A.U. after   10 cycles
            NFock= 10  Conv=0.80D-08     -V/T= 1.9998
 Calling FoFJK, ICntrl=      2127 FMM=F ISym2X=1 I1Cent= 0 IOpClX= 0 NMat=1 NMatS=1 NMatT=0.
 ***** Axes restored to original set *****
 -------------------------------------------------------------------
 Center     Atomic                   Forces (Hartrees/Bohr)
 Number     Number              X              Y              Z
 -------------------------------------------------------------------
      1        8           0.005048182    0.000000000   -0.002920901
      2        1           0.014193635    0.000000000   -0.039566314
      3        1          -0.009172704    0.000000000    0.006542319
      4        8          -0.015616363    0.000000000    0.035634391
      5        1          -0.001415312    0.000000000   -0.010497075
      6        1           0.006962563    0.000000000    0.010807579
 -------------------------------------------------------------------
 Cartesian Forces:  Max     0.039566314 RMS     0.014374093

 GradGradGradGradGradGradGradGradGradGradGradGradGradGradGradGradGradGrad
 Berny optimization.
 Using GEDIIS/GDIIS optimizer.
 FormGI is forming the generalized inverse of G from B-inverse, IUseBI=4.
 Internal  Forces:  Max     0.036496076 RMS     0.011601137
 Search for a local minimum.
 Step number   2 out of a maximum of   24
 All quantities printed in internal units (Hartrees-Bohrs-Radians)
 Mixed Optimization -- RFO/linear search
 Update second derivatives using D2CorX and points    1    2
 DE= -1.22D-02 DEPred=-1.33D-02 R= 9.19D-01
 TightC=F SS=  1.41D+00  RLast= 3.00D-01 DXNew= 5.0454D-01 9.0000D-01
 Trust test= 9.19D-01 RLast= 3.00D-01 DXMaxT set to 5.05D-01
 The second derivative matrix:
                          R1        R2        R3        R4        R5
           R1           0.57382
           R2          -0.01386   0.55394
           R3           0.01512   0.01452   0.09231
           R4          -0.00980  -0.00280   0.01551   0.55072
           R5          -0.00548  -0.00385   0.01405  -0.00434   0.55066
           A1          -0.00675   0.00214   0.00113   0.00095  -0.00005
           A2           0.00370   0.00790  -0.02193   0.00776   0.00657
           A3          -0.00708   0.00321  -0.00107   0.00187   0.00064
           A4           0.01802  -0.01818   0.02622  -0.01389  -0.00884
           A5           0.00131  -0.00064   0.00030  -0.00039  -0.00015
           A6           0.00000   0.00000   0.00000   0.00000   0.00000
           A7           0.00000   0.00000   0.00000   0.00000   0.00000
           D1           0.00000   0.00000   0.00000   0.00000   0.00000
           D2           0.00000   0.00000   0.00000   0.00000   0.00000
                          A1        A2        A3        A4        A5
           A1           0.16168
           A2           0.00138   0.15040
           A3           0.00201   0.00051   0.16228
           A4          -0.00766   0.00845  -0.00759   0.01693
           A5          -0.00038  -0.00005  -0.00043   0.00139   0.01566
           A6           0.00000   0.00000   0.00000   0.00000   0.00000
           A7           0.00000   0.00000   0.00000   0.00000   0.00000
           D1           0.00000   0.00000   0.00000   0.00000   0.00000
           D2           0.00000   0.00000   0.00000   0.00000   0.00000
                          A6        A7        D1        D2
           A6           0.00230
           A7           0.00000   0.01558
           D1           0.00000   0.00000   0.00230
           D2           0.00000   0.00000   0.00000   0.01558
 ITU=  1  0
 Use linear search instead of GDIIS.
 Linear search step of   0.600 exceeds DXMaxT=   0.505 but not scaled.
 Quartic linear search produced a step of  2.00000.
 Iteration  1 RMS(Cart)=  0.09856484 RMS(Int)=  0.08115462
 Iteration  2 RMS(Cart)=  0.09020328 RMS(Int)=  0.02229159
 Iteration  3 RMS(Cart)=  0.03871143 RMS(Int)=  0.01828844
 Iteration  4 RMS(Cart)=  0.03171253 RMS(Int)=  0.01817536
 Iteration  5 RMS(Cart)=  0.03160443 RMS(Int)=  0.01816942
 Iteration  6 RMS(Cart)=  0.03159176 RMS(Int)=  0.01816925
 Iteration  7 RMS(Cart)=  0.03159160 RMS(Int)=  0.01816924
 Iteration  8 RMS(Cart)=  0.03159158 RMS(Int)=  0.01816924
 New curvilinear step failed, DQL= 1.93D-08 SP=-2.69D-01.
 ITry= 1 IFail=1 DXMaxC= 4.53D-01 DCOld= 1.00D+10 DXMaxT= 5.05D-01 DXLimC= 3.00D+00 Rises=F
 Iteration  1 RMS(Cart)=  0.09856484 RMS(Int)=  0.08115462
 Iteration  2 RMS(Cart)=  0.09020328 RMS(Int)=  0.02229159
 Iteration  3 RMS(Cart)=  0.03871143 RMS(Int)=  0.01828844
 Iteration  4 RMS(Cart)=  0.03171253 RMS(Int)=  0.01817536
 Iteration  5 RMS(Cart)=  0.03160443 RMS(Int)=  0.01816942
 Iteration  6 RMS(Cart)=  0.03159176 RMS(Int)=  0.01816925
 Iteration  7 RMS(Cart)=  0.03159160 RMS(Int)=  0.01816924
 Iteration  8 RMS(Cart)=  0.03159158 RMS(Int)=  0.01816924
 New curvilinear step failed, DQL= 1.93D-08 SP=-2.69D-01.
 ITry= 2 IFail=1 DXMaxC= 4.53D-01 DCOld= 1.00D+10 DXMaxT= 5.05D-01 DXLimC= 3.00D+00 Rises=F
 Iteration  1 RMS(Cart)=  0.09856484 RMS(Int)=  0.08115462
 Iteration  2 RMS(Cart)=  0.09020328 RMS(Int)=  0.02229159
 Iteration  3 RMS(Cart)=  0.03871143 RMS(Int)=  0.01828844
 Iteration  4 RMS(Cart)=  0.03171253 RMS(Int)=  0.01817536
 Iteration  5 RMS(Cart)=  0.03160443 RMS(Int)=  0.01816942
 Iteration  6 RMS(Cart)=  0.03159176 RMS(Int)=  0.01816925
 Iteration  7 RMS(Cart)=  0.03159160 RMS(Int)=  0.01816924
 Iteration  8 RMS(Cart)=  0.03159158 RMS(Int)=  0.01816924
 New curvilinear step failed, DQL= 1.93D-08 SP=-2.69D-01.
 ITry= 3 IFail=1 DXMaxC= 4.53D-01 DCOld= 1.00D+10 DXMaxT= 5.05D-01 DXLimC= 3.00D+00 Rises=F
 Iteration  1 RMS(Cart)=  0.09856484 RMS(Int)=  0.08115462
 Iteration  2 RMS(Cart)=  0.09020328 RMS(Int)=  0.02229159
 Iteration  3 RMS(Cart)=  0.03871143 RMS(Int)=  0.01828844
 Iteration  4 RMS(Cart)=  0.03171253 RMS(Int)=  0.01817536
 Iteration  5 RMS(Cart)=  0.03160443 RMS(Int)=  0.01816942
 Iteration  6 RMS(Cart)=  0.03159176 RMS(Int)=  0.01816925
 Iteration  7 RMS(Cart)=  0.03159160 RMS(Int)=  0.01816924
 Iteration  8 RMS(Cart)=  0.03159158 RMS(Int)=  0.01816924
 New curvilinear step failed, DQL= 1.93D-08 SP=-2.69D-01.
 ITry= 4 IFail=1 DXMaxC= 4.53D-01 DCOld= 1.00D+10 DXMaxT= 5.05D-01 DXLimC= 3.00D+00 Rises=F
 Iteration  1 RMS(Cart)=  0.09856484 RMS(Int)=  0.08115462
 Iteration  2 RMS(Cart)=  0.09020328 RMS(Int)=  0.02229159
 Iteration  3 RMS(Cart)=  0.03871143 RMS(Int)=  0.01828844
 Iteration  4 RMS(Cart)=  0.03171253 RMS(Int)=  0.01817536
 Iteration  5 RMS(Cart)=  0.03160443 RMS(Int)=  0.01816942
 Iteration  6 RMS(Cart)=  0.03159176 RMS(Int)=  0.01816925
 Iteration  7 RMS(Cart)=  0.03159160 RMS(Int)=  0.01816924
 Iteration  8 RMS(Cart)=  0.03159158 RMS(Int)=  0.01816924
 New curvilinear step failed, DQL= 1.93D-08 SP=-2.69D-01.
 ITry= 5 IFail=1 DXMaxC= 4.53D-01 DCOld= 1.00D+10 DXMaxT= 5.05D-01 DXLimC= 3.00D+00 Rises=F
 Iteration  1 RMS(Cart)=  0.09856484 RMS(Int)=  0.08115462
 Iteration  2 RMS(Cart)=  0.09020328 RMS(Int)=  0.02229159
 Iteration  3 RMS(Cart)=  0.03871143 RMS(Int)=  0.01828844
 Iteration  4 RMS(Cart)=  0.03171253 RMS(Int)=  0.01817536
 Iteration  5 RMS(Cart)=  0.03160443 RMS(Int)=  0.01816942
 Iteration  6 RMS(Cart)=  0.03159176 RMS(Int)=  0.01816925
 Iteration  7 RMS(Cart)=  0.03159160 RMS(Int)=  0.01816924
 Iteration  8 RMS(Cart)=  0.03159158 RMS(Int)=  0.01816924
 New curvilinear step failed, DQL= 1.93D-08 SP=-2.69D-01.
 ITry= 6 IFail=1 DXMaxC= 4.53D-01 DCOld= 1.00D+10 DXMaxT= 5.05D-01 DXLimC= 3.00D+00 Rises=F
 Iteration  1 RMS(Cart)=  0.09856484 RMS(Int)=  0.08115462
 Iteration  2 RMS(Cart)=  0.09020328 RMS(Int)=  0.02229159
 Iteration  3 RMS(Cart)=  0.03871143 RMS(Int)=  0.01828844
 Iteration  4 RMS(Cart)=  0.03171253 RMS(Int)=  0.01817536
 Iteration  5 RMS(Cart)=  0.03160443 RMS(Int)=  0.01816942
 Iteration  6 RMS(Cart)=  0.03159176 RMS(Int)=  0.01816925
 Iteration  7 RMS(Cart)=  0.03159160 RMS(Int)=  0.01816924
 Iteration  8 RMS(Cart)=  0.03159158 RMS(Int)=  0.01816924
 New curvilinear step failed, DQL= 1.93D-08 SP=-2.69D-01.
 ITry= 7 IFail=1 DXMaxC= 4.53D-01 DCOld= 1.00D+10 DXMaxT= 5.05D-01 DXLimC= 3.00D+00 Rises=F
 Iteration  1 RMS(Cart)=  0.09856484 RMS(Int)=  0.08115462
 Iteration  2 RMS(Cart)=  0.09020328 RMS(Int)=  0.02229159
 Iteration  3 RMS(Cart)=  0.03871143 RMS(Int)=  0.01828844
 Iteration  4 RMS(Cart)=  0.03171253 RMS(Int)=  0.01817536
 Iteration  5 RMS(Cart)=  0.03160443 RMS(Int)=  0.01816942
 Iteration  6 RMS(Cart)=  0.03159176 RMS(Int)=  0.01816925
 Iteration  7 RMS(Cart)=  0.03159160 RMS(Int)=  0.01816924
 Iteration  8 RMS(Cart)=  0.03159158 RMS(Int)=  0.01816924
 New curvilinear step failed, DQL= 1.93D-08 SP=-2.69D-01.
 ITry= 8 IFail=1 DXMaxC= 4.53D-01 DCOld= 1.00D+10 DXMaxT= 5.05D-01 DXLimC= 3.00D+00 Rises=F
 Iteration  1 RMS(Cart)=  0.09856484 RMS(Int)=  0.08115462
 Iteration  2 RMS(Cart)=  0.09020328 RMS(Int)=  0.02229159
 Iteration  3 RMS(Cart)=  0.03871143 RMS(Int)=  0.01828844
 Iteration  4 RMS(Cart)=  0.03171253 RMS(Int)=  0.01817536
 Iteration  5 RMS(Cart)=  0.03160443 RMS(Int)=  0.01816942
 Iteration  6 RMS(Cart)=  0.03159176 RMS(Int)=  0.01816925
 Iteration  7 RMS(Cart)=  0.03159160 RMS(Int)=  0.01816924
 Iteration  8 RMS(Cart)=  0.03159158 RMS(Int)=  0.01816924
 New curvilinear step failed, DQL= 1.93D-08 SP=-2.69D-01.
 ITry= 9 IFail=1 DXMaxC= 4.53D-01 DCOld= 1.00D+10 DXMaxT= 5.05D-01 DXLimC= 3.00D+00 Rises=F
 Iteration  1 RMS(Cart)=  0.09856484 RMS(Int)=  0.08115462
 Iteration  2 RMS(Cart)=  0.09020328 RMS(Int)=  0.02229159
 Iteration  3 RMS(Cart)=  0.03871143 RMS(Int)=  0.01828844
 Iteration  4 RMS(Cart)=  0.03171253 RMS(Int)=  0.01817536
 Iteration  5 RMS(Cart)=  0.03160443 RMS(Int)=  0.01816942
 Iteration  6 RMS(Cart)=  0.03159176 RMS(Int)=  0.01816925
 Iteration  7 RMS(Cart)=  0.03159160 RMS(Int)=  0.01816924
 Iteration  8 RMS(Cart)=  0.03159158 RMS(Int)=  0.01816924
 New curvilinear step failed, DQL= 1.93D-08 SP=-2.69D-01.
 ITry=10 IFail=1 DXMaxC= 4.53D-01 DCOld= 1.00D+10 DXMaxT= 5.05D-01 DXLimC= 3.00D+00 Rises=F
 RedQX1 iteration     1 Try  1 RMS(Cart)=  0.04252351 RMS(Int)=  0.12832780 XScale=  5.00249766
 RedQX1 iteration     1 Try  2 RMS(Cart)=  0.04237063 RMS(Int)=  0.09650772 XScale=  2.50186048
 RedQX1 iteration     1 Try  3 RMS(Cart)=  0.04181722 RMS(Int)=  0.06517204 XScale=  1.66753759
 RedQX1 iteration     1 Try  4 RMS(Cart)=  0.04070202 RMS(Int)=  0.03496482 XScale=  1.24920981
 RedQX1 iteration     1 Try  5 RMS(Cart)=  0.03951389 RMS(Int)=  0.02117057 XScale=  1.07507721
 RedQX1 iteration     1 Try  6 RMS(Cart)=  0.03070289 RMS(Int)=  0.03607521 XScale=  1.17007590
 RedQX1 iteration     2 Try  1 RMS(Cart)=  0.01169444 RMS(Int)=  0.04314212 XScale=  1.20411641
 RedQX1 iteration     2 Try  2 RMS(Cart)=  0.01743034 RMS(Int)=  0.05371521 XScale=  1.25244978
 RedQX1 iteration     2 Try  3 RMS(Cart)=  0.02884354 RMS(Int)=  0.07129215 XScale=  1.32046707
 RedQX1 iteration     2 Try  4 RMS(Cart)=  0.05719125 RMS(Int)=  0.10642802 XScale=  1.37230565
 RedQX1 iteration     2 Try  5 RMS(Cart)=  0.16959767 RMS(Int)=  0.21370206 XScale=  0.94642754
 RedQX1 iteration     3 Try  1 RMS(Cart)=  0.03391953 RMS(Int)=  0.12725242 XScale=  1.33941372
 RedQX1 iteration     3 Try  2 RMS(Cart)=  0.05052857 RMS(Int)=  0.15848087 XScale=  1.22002824
 RedQX1 iteration     3 Try  3 RMS(Cart)=  0.08347596 RMS(Int)=  0.21068364 XScale=  0.96938575
 RedQX1 iteration     4 Try  1 RMS(Cart)=  0.05008557 RMS(Int)=  0.18956469 XScale=  1.06988045
 RedQX1 iteration     4 Try  2 RMS(Cart)=  0.07451218 RMS(Int)=  0.23628078 XScale=  0.86258307
 RedQX1 iteration     5 Try  1 RMS(Cart)=  0.05960975 RMS(Int)=  0.22680585 XScale=  0.90110056
 RedQX1 iteration     6 Try  1 RMS(Cart)=  0.01192195 RMS(Int)=  0.19693129 XScale=  1.03484779
 RedQX1 iteration     6 Try  2 RMS(Cart)=  0.01288700 RMS(Int)=  0.20490581 XScale=  0.99776448
 RedQX1 iteration     7 Try  1 RMS(Cart)=  0.01237152 RMS(Int)=  0.20458592 XScale=  0.99923512
 RedQX1 iteration     7 Try  2 RMS(Cart)=  0.01337244 RMS(Int)=  0.21287226 XScale=  0.96185254
 RedQX1 iteration     8 Try  1 RMS(Cart)=  0.01283754 RMS(Int)=  0.21253982 XScale=  0.96332947
 RedQX1 iteration     9 Try  1 RMS(Cart)=  0.00256751 RMS(Int)=  0.20617294 XScale=  0.99198890
 RedQX1 iteration    10 Try  1 RMS(Cart)=  0.00051350 RMS(Int)=  0.20490318 XScale=  0.99778354
 RedQX1 iteration    11 Try  1 RMS(Cart)=  0.00010270 RMS(Int)=  0.20464937 XScale=  0.99894471
 RedQX1 iteration    12 Try  1 RMS(Cart)=  0.00002054 RMS(Int)=  0.20459861 XScale=  0.99917704
 RedQX1 iteration    12 Try  2 RMS(Cart)=  0.00002054 RMS(Int)=  0.20461130 XScale=  0.99911895
 RedQX1 iteration    12 Try  3 RMS(Cart)=  0.00002055 RMS(Int)=  0.20462399 XScale=  0.99906085
 RedQX1 iteration    12 Try  4 RMS(Cart)=  0.00002055 RMS(Int)=  0.20463669 XScale=  0.99900275
 RedQX1 iteration    12 Try  5 RMS(Cart)=  0.00002055 RMS(Int)=  0.20464938 XScale=  0.99894465
 RedQX1 iteration    13 Try  1 RMS(Cart)=  0.00002055 RMS(Int)=  0.20464938 XScale=  0.99894467
 RedQX1 iteration    14 Try  1 RMS(Cart)=  0.00000411 RMS(Int)=  0.20463922 XScale=  0.99899114
 RedQX1 iteration    15 Try  1 RMS(Cart)=  0.00000082 RMS(Int)=  0.20463719 XScale=  0.99900043
 RedQX1 iteration    15 Try  2 RMS(Cart)=  0.00000082 RMS(Int)=  0.20463770 XScale=  0.99899811
 RedQX1 iteration    16 Try  1 RMS(Cart)=  0.00000082 RMS(Int)=  0.20463770 XScale=  0.99899811
 RedQX1 iteration    17 Try  1 RMS(Cart)=  0.00000016 RMS(Int)=  0.20463730 XScale=  0.99899997
 RedQX1 iteration    18 Try  1 RMS(Cart)=  0.00000003 RMS(Int)=  0.20463721 XScale=  0.99900034
 ClnCor:  largest displacement from symmetrization is 4.35D-15 for atom     4.
 TrRot=  0.000000  0.000000  0.000000  0.000000  0.000000  0.000000
 Variable       Old X    -DE/DX   Delta X   Delta X   Delta X     New X
                                 (Linear)    (Quad)   (Total)
    R1        1.82275  -0.00303   0.01723   0.00000   0.25678   2.07953
    R2        1.79259  -0.01111  -0.04310   0.00000   0.16991   1.96250
    R3        2.83359   0.03650   0.33816   0.00000   0.45049   3.28408
    R4        1.79576  -0.01059  -0.03676   0.00000   0.01616   1.81192
    R5        1.80063  -0.00873  -0.02701   0.00000   0.01733   1.81796
    A1        1.88710  -0.00335  -0.04806   0.00000  -0.03928   1.84783
    A2        1.45811   0.01140   0.11497   0.00000   0.09893   1.55704
    A3        1.89061  -0.00559  -0.04105   0.00000  -0.04118   1.84943
    A4        3.33992   0.00500   0.46769   0.00000  -0.21461   3.12531
    A5        3.34872   0.00581   0.07391   0.00000   0.05775   3.40646
    A6        3.14159   0.00000   0.00000   0.00000   0.00000   3.14159
    A7        3.14159   0.00000   0.00000   0.00000   0.00000   3.14159
    D1        3.14159   0.00000   0.00000   0.00000   0.00000   3.14159
    D2        3.14159   0.00000   0.00000   0.00000   0.00000   3.14159
         Item               Value     Threshold  Converged?
 Maximum Force            0.036496     0.000450     NO 
 RMS     Force            0.011601     0.000300     NO 
 Maximum Displacement     1.235854     0.001800     NO 
 RMS     Displacement     0.470716     0.001200     NO 
 Predicted change in Energy=-2.231880D-02
 GradGradGradGradGradGradGradGradGradGradGradGradGradGradGradGradGradGrad

                          Input orientation:                          
 ---------------------------------------------------------------------
 Center     Atomic      Atomic             Coordinates (Angstroms)
 Number     Number       Type             X           Y           Z
 ---------------------------------------------------------------------
      1          8           0       -0.021920    0.000000    0.210257
      2          1           0        0.785205    0.000000    0.958265
      3          1           0        0.448749    0.000000   -0.715470
      4          8           0        0.040386    0.000000    2.528426
      5          1           0       -0.129436    0.000000    3.472094
      6          1           0       -0.823048    0.000000    2.104197
 ---------------------------------------------------------------------
                    Distance matrix (angstroms):
                    1          2          3          4          5
     1  O    0.000000
     2  H    1.100439   0.000000
     3  H    1.038509   1.707217   0.000000
     4  O    2.319006   1.737862   3.269499   0.000000
     5  H    3.263608   2.675052   4.227291   0.958826   0.000000
     6  H    2.056408   1.974751   3.093217   0.962023   1.533702
                    6
     6  H    0.000000
 Stoichiometry    H4O2
 Framework group  CS[SG(H4O2)]
 Deg. of freedom     9
 Full point group                 CS      NOp   2
 Largest Abelian subgroup         CS      NOp   2
 Largest concise Abelian subgroup C1      NOp   1
                         Standard orientation:                         
 ---------------------------------------------------------------------
 Center     Atomic      Atomic             Coordinates (Angstroms)
 Number     Number       Type             X           Y           Z
 ---------------------------------------------------------------------
      1          8           0       -0.011764   -1.176911    0.000000
      2          1           0        0.774973   -0.407489    0.000000
      3          1           0        0.483608   -2.089658    0.000000
      4          8           0       -0.011764    1.142095    0.000000
      5          1           0       -0.206878    2.080859    0.000000
      6          1           0       -0.863488    0.694820    0.000000
 ---------------------------------------------------------------------
 Rotational constants (GHZ):    330.5988264      9.6179927      9.3460903
 Standard basis: 6-311+G(d,p) (5D, 7F)
 There are    54 symmetry adapted cartesian basis functions of A'  symmetry.
 There are    16 symmetry adapted cartesian basis functions of A"  symmetry.
 There are    52 symmetry adapted basis functions of A'  symmetry.
 There are    16 symmetry adapted basis functions of A"  symmetry.
    68 basis functions,   104 primitive gaussians,    70 cartesian basis functions
    10 alpha electrons       10 beta electrons
       nuclear repulsion energy        39.8471230363 Hartrees.
 NAtoms=    6 NActive=    6 NUniq=    6 SFac= 1.00D+00 NAtFMM=   60 NAOKFM=F Big=F
 Integral buffers will be    131072 words long.
 Raffenetti 1 integral format.
 Two-electron integral symmetry is turned on.
 One-electron integrals computed using PRISM.
 NBasis=    68 RedAO= T EigKep=  2.44D-03  NBF=    52    16
 NBsUse=    68 1.00D-06 EigRej= -1.00D+00 NBFU=    52    16
 Initial guess from the checkpoint file:  "H20Aggrhf.chk"
 B after Tr=     0.000000    0.000000    0.000000
         Rot=    0.999999    0.000000    0.000000   -0.001669 Ang=  -0.19 deg.
 Initial guess orbital symmetries:
       Occupied  (A') (A') (A') (A') (A') (A') (A') (A") (A') (A")
       Virtual   (A') (A') (A') (A') (A') (A') (A') (A') (A') (A')
                 (A') (A') (A') (A') (A') (A') (A') (A') (A') (A')
                 (A') (A') (A') (A') (A') (A') (A') (A') (A') (A')
                 (A') (A') (A') (A') (A') (A') (A') (A') (A') (A')
                 (A') (A') (A') (A') (A") (A") (A") (A") (A") (A")
                 (A") (A") (A") (A") (A") (A") (A") (A")
 ExpMin= 8.45D-02 ExpMax= 8.59D+03 ExpMxC= 1.30D+03 IAcc=2 IRadAn=         4 AccDes= 0.00D+00
 Harris functional with IExCor=  205 and IRadAn=       4 diagonalized for initial guess.
 HarFok:  IExCor=  205 AccDes= 0.00D+00 IRadAn=         4 IDoV= 1 UseB2=F ITyADJ=14
 ICtDFT=  3500011 ScaDFX=  1.000000  1.000000  1.000000  1.000000
 FoFCou: FMM=F IPFlag=           0 FMFlag=      100000 FMFlg1=           0
         NFxFlg=           0 DoJE=T BraDBF=F KetDBF=T FulRan=T
         wScrn=  0.000000 ICntrl=     500 IOpCl=  0 I1Cent=   200000004 NGrid=           0
         NMat0=    1 NMatS0=      1 NMatT0=    0 NMatD0=    1 NMtDS0=    0 NMtDT0=    0
 Petite list used in FoFCou.
 Keep R1 ints in memory in symmetry-blocked form, NReq=4286288.
 Requested convergence on RMS density matrix=1.00D-08 within 128 cycles.
 Requested convergence on MAX density matrix=1.00D-06.
 Requested convergence on             energy=1.00D-06.
 No special actions if energy rises.
 SCF Done:  E(RHF) =  -152.073273043     A.U. after   12 cycles
            NFock= 12  Conv=0.49D-08     -V/T= 2.0023
 Calling FoFJK, ICntrl=      2127 FMM=F ISym2X=1 I1Cent= 0 IOpClX= 0 NMat=1 NMatS=1 NMatT=0.
 ***** Axes restored to original set *****
 -------------------------------------------------------------------
 Center     Atomic                   Forces (Hartrees/Bohr)
 Number     Number              X              Y              Z
 -------------------------------------------------------------------
      1        8           0.120057198    0.000000000   -0.026497793
      2        1          -0.079914620    0.000000000   -0.078669809
      3        1          -0.038802752    0.000000000    0.074321127
      4        8          -0.028395761    0.000000000    0.042472563
      5        1           0.006912544    0.000000000   -0.017918849
      6        1           0.020143392    0.000000000    0.006292762
 -------------------------------------------------------------------
 Cartesian Forces:  Max     0.120057198 RMS     0.046034343

 GradGradGradGradGradGradGradGradGradGradGradGradGradGradGradGradGradGrad
 Berny optimization.
 Using GEDIIS/GDIIS optimizer.
 FormGI is forming the generalized inverse of G from B-inverse, IUseBI=4.
 Internal  Forces:  Max     0.099262829 RMS     0.038461671
 Search for a local minimum.
 Step number   3 out of a maximum of   24
 All quantities printed in internal units (Hartrees-Bohrs-Radians)
 Mixed Optimization -- RFO/linear search
 Update second derivatives using D2CorX and points    1    3    2
 The second derivative matrix:
                          R1        R2        R3        R4        R5
           R1           0.38402
           R2          -0.08684   0.57099
           R3          -0.05542  -0.02750   0.07101
           R4          -0.03073  -0.01080   0.00772   0.54841
           R5          -0.02022  -0.00471   0.00699  -0.00596   0.55002
           A1          -0.06127  -0.06798  -0.00290  -0.00511  -0.00952
           A2           0.01210   0.02358  -0.02292   0.00870   0.00855
           A3          -0.00795  -0.00477   0.00113   0.00177  -0.00024
           A4          -0.05729  -0.09619   0.01443  -0.02224  -0.01992
           A5           0.00443   0.00405   0.00030  -0.00004   0.00046
           A6           0.00000   0.00000   0.00000   0.00000   0.00000
           A7           0.00000   0.00000   0.00000   0.00000   0.00000
           D1           0.00000   0.00000   0.00000   0.00000   0.00000
           D2           0.00000   0.00000   0.00000   0.00000   0.00000
                          A1        A2        A3        A4        A5
           A1           0.19959
           A2          -0.00978   0.15346
           A3           0.01009  -0.00156   0.16358
           A4           0.02416  -0.00176   0.00038   0.04039
           A5          -0.00330   0.00077  -0.00101  -0.00118   0.01588
           A6           0.00000   0.00000   0.00000   0.00000   0.00000
           A7           0.00000   0.00000   0.00000   0.00000   0.00000
           D1           0.00000   0.00000   0.00000   0.00000   0.00000
           D2           0.00000   0.00000   0.00000   0.00000   0.00000
                          A6        A7        D1        D2
           A6           0.00230
           A7           0.00000   0.01558
           D1           0.00000   0.00000   0.00230
           D2           0.00000   0.00000   0.00000   0.01558
 ITU=  0  1  0
 Use linear search instead of GDIIS.
     Eigenvalues ---    0.00230   0.00230   0.00642   0.01558   0.04957
     Eigenvalues ---    0.06595   0.15875   0.16808   0.41058   0.55121
     Eigenvalues ---    0.55585   0.62087
 RFO step:  Lambda=-1.11604474D-02 EMin= 2.30000000D-03
 Quartic linear search produced a step of -0.90521.
 Iteration  1 RMS(Cart)=  0.01188357 RMS(Int)=  0.12816892
 Iteration  2 RMS(Cart)=  0.11560789 RMS(Int)=  0.05501090
 Iteration  3 RMS(Cart)=  0.10051017 RMS(Int)=  0.00642575
 Iteration  4 RMS(Cart)=  0.00822312 RMS(Int)=  0.00000505
 Iteration  5 RMS(Cart)=  0.00000651 RMS(Int)=  0.00000000
 Iteration  6 RMS(Cart)=  0.00000000 RMS(Int)=  0.00000000
 ClnCor:  largest displacement from symmetrization is 3.49D-09 for atom     2.
 Variable       Old X    -DE/DX   Delta X   Delta X   Delta X     New X
                                 (Linear)    (Quad)   (Total)
    R1        2.07953  -0.07755  -0.23244   0.03114  -0.20129   1.87823
    R2        1.96250  -0.09926  -0.15380   0.01213  -0.14167   1.82082
    R3        3.28408   0.02844  -0.40779   0.30345  -0.10434   3.17974
    R4        1.81192  -0.01886  -0.01463  -0.01557  -0.03020   1.78172
    R5        1.81796  -0.02085  -0.01569  -0.01428  -0.02997   1.78799
    A1        1.84783   0.04009   0.03555   0.00414   0.03969   1.88752
    A2        1.55704  -0.00173  -0.08955   0.09731   0.00776   1.56480
    A3        1.84943   0.00415   0.03728  -0.01101   0.02627   1.87570
    A4        3.12531   0.04014   0.19426   0.23522   0.42948   3.55479
    A5        3.40646   0.00242  -0.05227   0.08630   0.03403   3.44050
    A6        3.14159   0.00000   0.00000   0.00000   0.00000   3.14159
    A7        3.14159   0.00000   0.00000   0.00000   0.00000   3.14159
    D1        3.14159   0.00000   0.00000   0.00000   0.00000   3.14159
    D2        3.14159   0.00000   0.00000   0.00000   0.00000   3.14159
         Item               Value     Threshold  Converged?
 Maximum Force            0.099263     0.000450     NO 
 RMS     Force            0.038462     0.000300     NO 
 Maximum Displacement     0.531827     0.001800     NO 
 RMS     Displacement     0.223592     0.001200     NO 
 Predicted change in Energy=-3.121040D-03
 GradGradGradGradGradGradGradGradGradGradGradGradGradGradGradGradGradGrad

                          Input orientation:                          
 ---------------------------------------------------------------------
 Center     Atomic      Atomic             Coordinates (Angstroms)
 Number     Number       Type             X           Y           Z
 ---------------------------------------------------------------------
      1          8           0        0.008305    0.000000    0.056545
      2          1           0        0.503774    0.000000    0.918163
      3          1           0        0.652442    0.000000   -0.660039
      4          8           0        0.012121    0.000000    2.527380
      5          1           0        0.014372    0.000000    3.470223
      6          1           0       -0.891078    0.000000    2.245498
 ---------------------------------------------------------------------
                    Distance matrix (angstroms):
                    1          2          3          4          5
     1  O    0.000000
     2  H    0.993919   0.000000
     3  H    0.963538   1.585189   0.000000
     4  O    2.470837   1.682647   3.251100   0.000000
     5  H    3.413683   2.598563   4.179259   0.942846   0.000000
     6  H    2.366517   1.925469   3.290076   0.946164   1.523086
                    6
     6  H    0.000000
 Stoichiometry    H4O2
 Framework group  CS[SG(H4O2)]
 Deg. of freedom     9
 Full point group                 CS      NOp   2
 Largest Abelian subgroup         CS      NOp   2
 Largest concise Abelian subgroup C1      NOp   1
                         Standard orientation:                         
 ---------------------------------------------------------------------
 Center     Atomic      Atomic             Coordinates (Angstroms)
 Number     Number       Type             X           Y           Z
 ---------------------------------------------------------------------
      1          8           0       -0.011871   -1.275737    0.000000
      2          1           0        0.482267   -0.413355    0.000000
      3          1           0        0.633373   -1.991326    0.000000
      4          8           0       -0.011871    1.195101    0.000000
      5          1           0       -0.011076    2.137946    0.000000
      6          1           0       -0.914633    0.911824    0.000000
 ---------------------------------------------------------------------
 Rotational constants (GHZ):    363.3716597      8.6281638      8.4280422
 Standard basis: 6-311+G(d,p) (5D, 7F)
 There are    54 symmetry adapted cartesian basis functions of A'  symmetry.
 There are    16 symmetry adapted cartesian basis functions of A"  symmetry.
 There are    52 symmetry adapted basis functions of A'  symmetry.
 There are    16 symmetry adapted basis functions of A"  symmetry.
    68 basis functions,   104 primitive gaussians,    70 cartesian basis functions
    10 alpha electrons       10 beta electrons
       nuclear repulsion energy        39.6183858625 Hartrees.
 NAtoms=    6 NActive=    6 NUniq=    6 SFac= 1.00D+00 NAtFMM=   60 NAOKFM=F Big=F
 Integral buffers will be    131072 words long.
 Raffenetti 1 integral format.
 Two-electron integral symmetry is turned on.
 One-electron integrals computed using PRISM.
 NBasis=    68 RedAO= T EigKep=  2.58D-03  NBF=    52    16
 NBsUse=    68 1.00D-06 EigRej= -1.00D+00 NBFU=    52    16
 Lowest energy guess from the checkpoint file:  "H20Aggrhf.chk"
 B after Tr=     0.000000    0.000000    0.000000
         Rot=    0.999995    0.000000    0.000000    0.003013 Ang=   0.35 deg.
 B after Tr=     0.000000    0.000000    0.000000
         Rot=    0.999988    0.000000    0.000000    0.004881 Ang=   0.56 deg.
 Initial guess orbital symmetries:
       Occupied  (A') (A') (A') (A') (A') (A') (A") (A") (A') (A')
       Virtual   (A') (A') (A') (A') (A') (A') (A") (A") (A') (A')
                 (A') (A') (A') (A') (A') (A') (A') (A') (A') (A')
                 (A') (A') (A') (A') (A') (A') (A') (A') (A') (A')
                 (A') (A') (A') (A') (A') (A') (A') (A') (A') (A')
                 (A') (A') (A') (A') (A") (A") (A") (A") (A") (A")
                 (A") (A") (A") (A") (A") (A") (A") (A")
 Keep R1 ints in memory in symmetry-blocked form, NReq=4286288.
 Requested convergence on RMS density matrix=1.00D-08 within 128 cycles.
 Requested convergence on MAX density matrix=1.00D-06.
 Requested convergence on             energy=1.00D-06.
 No special actions if energy rises.
 An orbital has undefined symmetry, so N**3 symmetry is turned off.
 SCF Done:  E(RHF) =  -152.103832381     A.U. after   11 cycles
            NFock= 11  Conv=0.38D-08     -V/T= 2.0005
 Calling FoFJK, ICntrl=      2127 FMM=F ISym2X=1 I1Cent= 0 IOpClX= 0 NMat=1 NMatS=1 NMatT=0.
 ***** Axes restored to original set *****
 -------------------------------------------------------------------
 Center     Atomic                   Forces (Hartrees/Bohr)
 Number     Number              X              Y              Z
 -------------------------------------------------------------------
      1        8           0.039596170    0.000000000    0.008842561
      2        1          -0.019266084    0.000000000   -0.048708033
      3        1          -0.016945627    0.000000000    0.020156277
      4        8          -0.007125331    0.000000000    0.020427624
      5        1           0.001190498    0.000000000   -0.002197891
      6        1           0.002550374    0.000000000    0.001479463
 -------------------------------------------------------------------
 Cartesian Forces:  Max     0.048708033 RMS     0.017584923

 GradGradGradGradGradGradGradGradGradGradGradGradGradGradGradGradGradGrad
 Berny optimization.
 Using GEDIIS/GDIIS optimizer.
 FormGI is forming the generalized inverse of G from B-inverse, IUseBI=4.
 Internal  Forces:  Max     0.032065951 RMS     0.013648420
 Search for a local minimum.
 Step number   4 out of a maximum of   24
 All quantities printed in internal units (Hartrees-Bohrs-Radians)
 Mixed Optimization -- RFO/linear search
 Update second derivatives using D2CorX and points    3    2    4
 DE= -6.47D-03 DEPred=-3.12D-03 R= 2.07D+00
 TightC=F SS=  1.41D+00  RLast= 4.36D-01 DXNew= 8.4853D-01 1.3085D+00
 Trust test= 2.07D+00 RLast= 4.36D-01 DXMaxT set to 8.49D-01
 The second derivative matrix:
                          R1        R2        R3        R4        R5
           R1           0.40586
           R2          -0.10207   0.53348
           R3           0.02784   0.05059   0.05746
           R4          -0.07631  -0.05012   0.01562   0.54550
           R5          -0.05702  -0.03663   0.01609  -0.00936   0.54651
           A1          -0.08370  -0.08413  -0.02524   0.00434  -0.00311
           A2           0.05181   0.05947  -0.02314   0.00960   0.01067
           A3          -0.02497  -0.01741  -0.00478   0.00480   0.00169
           A4          -0.04374  -0.07464  -0.01760  -0.00617  -0.00667
           A5           0.01646   0.01198   0.00444  -0.00264  -0.00139
           A6           0.00000   0.00000   0.00000   0.00000   0.00000
           A7           0.00000   0.00000   0.00000   0.00000   0.00000
           D1           0.00000   0.00000   0.00000   0.00000   0.00000
           D2           0.00000   0.00000   0.00000   0.00000   0.00000
                          A1        A2        A3        A4        A5
           A1           0.21485
           A2          -0.02251   0.15640
           A3           0.01650  -0.00553   0.16634
           A4           0.02875  -0.01598   0.00484   0.02914
           A5          -0.00706   0.00340  -0.00292  -0.00389   0.01733
           A6           0.00000   0.00000   0.00000   0.00000   0.00000
           A7           0.00000   0.00000   0.00000   0.00000   0.00000
           D1           0.00000   0.00000   0.00000   0.00000   0.00000
           D2           0.00000   0.00000   0.00000   0.00000   0.00000
                          A6        A7        D1        D2
           A6           0.00230
           A7           0.00000   0.01558
           D1           0.00000   0.00000   0.00230
           D2           0.00000   0.00000   0.00000   0.01558
 ITU=  1  0  1  0
 Use linear search instead of GDIIS.
     Eigenvalues ---    0.00230   0.00230   0.00695   0.01558   0.02851
     Eigenvalues ---    0.06792   0.13574   0.16142   0.40413   0.55504
     Eigenvalues ---    0.58445   0.61936
 RFO step:  Lambda=-2.19729968D-02 EMin= 2.30000000D-03
 Skip linear search -- no minimum in search direction.
 Iteration  1 RMS(Cart)=  0.12741538 RMS(Int)=  0.07768663
 Iteration  2 RMS(Cart)=  0.06210399 RMS(Int)=  0.02371863
 Iteration  3 RMS(Cart)=  0.02902834 RMS(Int)=  0.00000569
 Iteration  4 RMS(Cart)=  0.00000590 RMS(Int)=  0.00000000
 Iteration  5 RMS(Cart)=  0.00000000 RMS(Int)=  0.00000000
 ClnCor:  largest displacement from symmetrization is 2.29D-09 for atom     4.
 Variable       Old X    -DE/DX   Delta X   Delta X   Delta X     New X
                                 (Linear)    (Quad)   (Total)
    R1        1.87823  -0.03207   0.00000  -0.18787  -0.18787   1.69037
    R2        1.82082  -0.03082   0.00000  -0.16051  -0.16051   1.66031
    R3        3.17974   0.01984   0.00000   0.48879   0.48879   3.66854
    R4        1.78172  -0.00220   0.00000  -0.05891  -0.05891   1.72281
    R5        1.78799  -0.00288   0.00000  -0.05129  -0.05129   1.73670
    A1        1.88752   0.00946   0.00000  -0.01507  -0.01507   1.87244
    A2        1.56480   0.00149   0.00000   0.17475   0.17475   1.73955
    A3        1.87570   0.00032   0.00000  -0.02675  -0.02675   1.84895
    A4        3.55479   0.01132   0.00000   0.05760   0.05760   3.61239
    A5        3.44050   0.00181   0.00000   0.14800   0.14800   3.58850
    A6        3.14159   0.00000   0.00000   0.00000   0.00000   3.14159
    A7        3.14159   0.00000   0.00000   0.00000   0.00000   3.14159
    D1        3.14159   0.00000   0.00000   0.00000   0.00000   3.14159
    D2        3.14159   0.00000   0.00000   0.00000   0.00000   3.14159
         Item               Value     Threshold  Converged?
 Maximum Force            0.032066     0.000450     NO 
 RMS     Force            0.013648     0.000300     NO 
 Maximum Displacement     0.421517     0.001800     NO 
 RMS     Displacement     0.180233     0.001200     NO 
 Predicted change in Energy=-1.497217D-02
 GradGradGradGradGradGradGradGradGradGradGradGradGradGradGradGradGradGrad

                          Input orientation:                          
 ---------------------------------------------------------------------
 Center     Atomic      Atomic             Coordinates (Angstroms)
 Number     Number       Type             X           Y           Z
 ---------------------------------------------------------------------
      1          8           0        0.087754    0.000000   -0.055034
      2          1           0        0.503399    0.000000    0.737037
      3          1           0        0.709325    0.000000   -0.675990
      4          8           0       -0.073799    0.000000    2.590549
      5          1           0        0.057945    0.000000    3.492654
      6          1           0       -0.984688    0.000000    2.468555
 ---------------------------------------------------------------------
                    Distance matrix (angstroms):
                    1          2          3          4          5
     1  O    0.000000
     2  H    0.894503   0.000000
     3  H    0.878599   1.427953   0.000000
     4  O    2.650511   1.941305   3.359102   0.000000
     5  H    3.547813   2.791389   4.219229   0.911674   0.000000
     6  H    2.742013   2.283103   3.571812   0.919021   1.461458
                    6
     6  H    0.000000
 Stoichiometry    H4O2
 Framework group  CS[SG(H4O2)]
 Deg. of freedom     9
 Full point group                 CS      NOp   2
 Largest Abelian subgroup         CS      NOp   2
 Largest concise Abelian subgroup C1      NOp   1
                         Standard orientation:                         
 ---------------------------------------------------------------------
 Center     Atomic      Atomic             Coordinates (Angstroms)
 Number     Number       Type             X           Y           Z
 ---------------------------------------------------------------------
      1          8           0       -0.015778   -1.371942    0.000000
      2          1           0        0.447371   -0.606678    0.000000
      3          1           0        0.566788   -2.029629    0.000000
      4          8           0       -0.015778    1.278569    0.000000
      5          1           0        0.170705    2.170967    0.000000
      6          1           0       -0.932409    1.212322    0.000000
 ---------------------------------------------------------------------
 Rotational constants (GHZ):    370.2889256      7.5357144      7.3854146
 Standard basis: 6-311+G(d,p) (5D, 7F)
 There are    54 symmetry adapted cartesian basis functions of A'  symmetry.
 There are    16 symmetry adapted cartesian basis functions of A"  symmetry.
 There are    52 symmetry adapted basis functions of A'  symmetry.
 There are    16 symmetry adapted basis functions of A"  symmetry.
    68 basis functions,   104 primitive gaussians,    70 cartesian basis functions
    10 alpha electrons       10 beta electrons
       nuclear repulsion energy        39.1844891090 Hartrees.
 NAtoms=    6 NActive=    6 NUniq=    6 SFac= 1.00D+00 NAtFMM=   60 NAOKFM=F Big=F
 Integral buffers will be    131072 words long.
 Raffenetti 1 integral format.
 Two-electron integral symmetry is turned on.
 One-electron integrals computed using PRISM.
 NBasis=    68 RedAO= T EigKep=  2.33D-03  NBF=    52    16
 NBsUse=    68 1.00D-06 EigRej= -1.00D+00 NBFU=    52    16
 Initial guess from the checkpoint file:  "H20Aggrhf.chk"
 B after Tr=     0.000000    0.000000    0.000000
         Rot=    0.999927    0.000000    0.000000    0.012114 Ang=   1.39 deg.
 Initial guess orbital symmetries:
       Occupied  (A') (A') (A') (A') (A') (A') (A') (A') (A") (A")
       Virtual   (A') (A') (A') (A') (A') (A') (A') (A') (A') (A')
                 (A') (A') (A') (A') (A') (A') (A') (A') (A') (A')
                 (A') (A') (A') (A') (A') (A') (A') (A') (A') (A')
                 (A') (A') (A') (A') (A') (A') (A') (A') (A') (A')
                 (A') (A') (A') (A') (A") (A") (A") (A") (A") (A")
                 (A") (A") (A") (A") (A") (A") (A") (A")
 ExpMin= 8.45D-02 ExpMax= 8.59D+03 ExpMxC= 1.30D+03 IAcc=2 IRadAn=         4 AccDes= 0.00D+00
 Harris functional with IExCor=  205 and IRadAn=       4 diagonalized for initial guess.
 HarFok:  IExCor=  205 AccDes= 0.00D+00 IRadAn=         4 IDoV= 1 UseB2=F ITyADJ=14
 ICtDFT=  3500011 ScaDFX=  1.000000  1.000000  1.000000  1.000000
 FoFCou: FMM=F IPFlag=           0 FMFlag=      100000 FMFlg1=           0
         NFxFlg=           0 DoJE=T BraDBF=F KetDBF=T FulRan=T
         wScrn=  0.000000 ICntrl=     500 IOpCl=  0 I1Cent=   200000004 NGrid=           0
         NMat0=    1 NMatS0=      1 NMatT0=    0 NMatD0=    1 NMtDS0=    0 NMtDT0=    0
 Petite list used in FoFCou.
 Keep R1 ints in memory in symmetry-blocked form, NReq=4286288.
 Requested convergence on RMS density matrix=1.00D-08 within 128 cycles.
 Requested convergence on MAX density matrix=1.00D-06.
 Requested convergence on             energy=1.00D-06.
 No special actions if energy rises.
 SCF Done:  E(RHF) =  -152.101817850     A.U. after   11 cycles
            NFock= 11  Conv=0.52D-08     -V/T= 1.9974
 Calling FoFJK, ICntrl=      2127 FMM=F ISym2X=1 I1Cent= 0 IOpClX= 0 NMat=1 NMatS=1 NMatT=0.
 ***** Axes restored to original set *****
 -------------------------------------------------------------------
 Center     Atomic                   Forces (Hartrees/Bohr)
 Number     Number              X              Y              Z
 -------------------------------------------------------------------
      1        8          -0.089530853    0.000000000   -0.000727322
      2        1           0.027285183    0.000000000    0.061223792
      3        1           0.062015761    0.000000000   -0.067047178
      4        8           0.020819507    0.000000000   -0.023181155
      5        1           0.009036430    0.000000000    0.038215650
      6        1          -0.029626028    0.000000000   -0.008483788
 -------------------------------------------------------------------
 Cartesian Forces:  Max     0.089530853 RMS     0.036752175

 GradGradGradGradGradGradGradGradGradGradGradGradGradGradGradGradGradGrad
 Berny optimization.
 Using GEDIIS/GDIIS optimizer.
 FormGI is forming the generalized inverse of G from B-inverse, IUseBI=4.
 Internal  Forces:  Max     0.088569700 RMS     0.034066192
 Search for a local minimum.
 Step number   5 out of a maximum of   24
 All quantities printed in internal units (Hartrees-Bohrs-Radians)
 Mixed Optimization -- RFO/linear search
 Update second derivatives using D2CorX and points    3    2    5    4
 DE=  2.01D-03 DEPred=-1.50D-02 R=-1.35D-01
 Trust test=-1.35D-01 RLast= 6.02D-01 DXMaxT set to 4.24D-01
 The second derivative matrix:
                          R1        R2        R3        R4        R5
           R1           0.57591
           R2           0.09395   0.74801
           R3           0.01857   0.03364   0.05432
           R4           0.00829   0.03967   0.00366   0.57672
           R5           0.00934   0.03262   0.00662   0.01522   0.56561
           A1          -0.05945  -0.05129  -0.02929   0.01054   0.00369
           A2           0.03319   0.03820  -0.01996   0.00476   0.00620
           A3          -0.01886  -0.00850  -0.00501   0.00879   0.00503
           A4          -0.03531  -0.06326  -0.02140  -0.00786  -0.00673
           A5           0.01685   0.01257   0.00465  -0.00278  -0.00140
           A6           0.00000   0.00000   0.00000   0.00000   0.00000
           A7           0.00000   0.00000   0.00000   0.00000   0.00000
           D1           0.00000   0.00000   0.00000   0.00000   0.00000
           D2           0.00000   0.00000   0.00000   0.00000   0.00000
                          A1        A2        A3        A4        A5
           A1           0.20133
           A2          -0.01819   0.15524
           A3           0.01623  -0.00584   0.16660
           A4           0.01791  -0.01151   0.00467   0.02071
           A5          -0.00787   0.00361  -0.00315  -0.00454   0.01740
           A6           0.00000   0.00000   0.00000   0.00000   0.00000
           A7           0.00000   0.00000   0.00000   0.00000   0.00000
           D1           0.00000   0.00000   0.00000   0.00000   0.00000
           D2           0.00000   0.00000   0.00000   0.00000   0.00000
                          A6        A7        D1        D2
           A6           0.00230
           A7           0.00000   0.01558
           D1           0.00000   0.00000   0.00230
           D2           0.00000   0.00000   0.00000   0.01558
 ITU= -1  1  0  1  0
 Use linear search instead of GDIIS.
     Eigenvalues ---    0.00230   0.00230   0.00537   0.01558   0.04880
     Eigenvalues ---    0.06620   0.15868   0.19943   0.53553   0.55484
     Eigenvalues ---    0.58097   0.82314
 RFO step:  Lambda=-1.73105935D-02 EMin= 2.30000000D-03
 Quartic linear search produced a step of -0.52206.
 Maximum step size (   0.424) exceeded in Quadratic search.
    -- Step size scaled by   0.544
 Iteration  1 RMS(Cart)=  0.12711048 RMS(Int)=  0.06468585
 New curvilinear step failed, DQL= 8.63D-02 SP=-9.60D-01.
 ITry= 1 IFail=1 DXMaxC= 2.40D-01 DCOld= 1.00D+10 DXMaxT= 4.24D-01 DXLimC= 3.00D+00 Rises=F
 Iteration  1 RMS(Cart)=  0.12011578 RMS(Int)=  0.05474445
 New curvilinear step failed, DQL= 8.84D-02 SP=-9.66D-01.
 ITry= 2 IFail=1 DXMaxC= 2.40D-01 DCOld= 1.00D+10 DXMaxT= 4.24D-01 DXLimC= 3.00D+00 Rises=F
 Iteration  1 RMS(Cart)=  0.11370025 RMS(Int)=  0.04483498
 New curvilinear step failed, DQL= 5.71D-02 SP=-9.00D-01.
 ITry= 3 IFail=1 DXMaxC= 2.41D-01 DCOld= 1.00D+10 DXMaxT= 4.24D-01 DXLimC= 3.00D+00 Rises=F
 Iteration  1 RMS(Cart)=  0.10796717 RMS(Int)=  0.03498667
 New curvilinear step failed, DQL= 2.85D-02 SP=-5.20D-01.
 ITry= 4 IFail=1 DXMaxC= 2.41D-01 DCOld= 1.00D+10 DXMaxT= 4.24D-01 DXLimC= 3.00D+00 Rises=F
 Iteration  1 RMS(Cart)=  0.09299035 RMS(Int)=  0.01864223
 New curvilinear step failed, DQL= 2.23D-02 SP=-6.43D-02.
 ITry= 5 IFail=1 DXMaxC= 2.14D-01 DCOld= 1.00D+10 DXMaxT= 4.24D-01 DXLimC= 3.00D+00 Rises=F
 Iteration  1 RMS(Cart)=  0.07594980 RMS(Int)=  0.00422611
 Iteration  2 RMS(Cart)=  0.00527756 RMS(Int)=  0.00046168
 Iteration  3 RMS(Cart)=  0.00080662 RMS(Int)=  0.00045048
 Iteration  4 RMS(Cart)=  0.00079219 RMS(Int)=  0.00045047
 Iteration  5 RMS(Cart)=  0.00079218 RMS(Int)=  0.00045047
 Iteration  6 RMS(Cart)=  0.00079218 RMS(Int)=  0.00045047
 Iteration  7 RMS(Cart)=  0.00079218 RMS(Int)=  0.00045047
 Iteration  8 RMS(Cart)=  0.00079218 RMS(Int)=  0.00045047
 Iteration  9 RMS(Cart)=  0.00079218 RMS(Int)=  0.00045047
 Iteration 10 RMS(Cart)=  0.00079218 RMS(Int)=  0.00045047
 Iteration 11 RMS(Cart)=  0.00079218 RMS(Int)=  0.00045047
 Iteration 12 RMS(Cart)=  0.00079218 RMS(Int)=  0.00045047
 New curvilinear step failed, DQL= 7.39D-10 SP=-8.67D-01.
 ITry= 6 IFail=1 DXMaxC= 1.87D-01 DCOld= 1.00D+10 DXMaxT= 4.24D-01 DXLimC= 3.00D+00 Rises=F
 Iteration  1 RMS(Cart)=  0.00655196 RMS(Int)=  0.06385989
 Iteration  2 RMS(Cart)=  0.00034102 RMS(Int)=  0.06349036
 Iteration  3 RMS(Cart)=  0.00033513 RMS(Int)=  0.06312720
 Iteration  4 RMS(Cart)=  0.00032942 RMS(Int)=  0.06277023
 Iteration  5 RMS(Cart)=  0.05751804 RMS(Int)=  0.00202048
 Iteration  6 RMS(Cart)=  0.00000001 RMS(Int)=  0.00202047
 ITry= 7 IFail=0 DXMaxC= 1.44D-01 DCOld= 1.00D+10 DXMaxT= 4.24D-01 DXLimC= 3.00D+00 Rises=F
 ClnCor:  largest displacement from symmetrization is 3.87D-09 for atom     1.
 Variable       Old X    -DE/DX   Delta X   Delta X   Delta X     New X
                                 (Linear)    (Quad)   (Total)
    R1        1.69037   0.07544   0.09808   0.02528   0.11326   1.80363
    R2        1.66031   0.08857   0.08380   0.03177   0.09882   1.75913
    R3        3.66854   0.00619  -0.25518   0.23571  -0.15740   3.51113
    R4        1.72281   0.03912   0.03075   0.01498   0.03672   1.75953
    R5        1.73670   0.03049   0.02678   0.00986   0.03126   1.76796
    A1        1.87244   0.01197   0.00787   0.04819   0.02533   1.89778
    A2        1.73955  -0.00322  -0.09123   0.04196  -0.07497   1.66458
    A3        1.84895   0.00455   0.01396   0.00386   0.01525   1.86419
    A4        3.61239   0.00607  -0.03007   0.34099   0.10327   3.71566
    A5        3.58850   0.00134  -0.07726   0.04583  -0.05972   3.52877
    A6        3.14159   0.00000   0.00000   0.00000   0.00000   3.14159
    A7        3.14159   0.00000   0.00000   0.00000   0.00000   3.14159
    D1        3.14159   0.00000   0.00000   0.00000   0.00000   3.14159
    D2        3.14159   0.00000   0.00000   0.00000   0.00000   3.14159
         Item               Value     Threshold  Converged?
 Maximum Force            0.088570     0.000450     NO 
 RMS     Force            0.034066     0.000300     NO 
 Maximum Displacement     0.143739     0.001800     NO 
 RMS     Displacement     0.065075     0.001200     NO 
 Predicted change in Energy=-9.711478D-03
 GradGradGradGradGradGradGradGradGradGradGradGradGradGradGradGradGradGrad

                          Input orientation:                          
 ---------------------------------------------------------------------
 Center     Atomic      Atomic             Coordinates (Angstroms)
 Number     Number       Type             X           Y           Z
 ---------------------------------------------------------------------
      1          8           0        0.062397    0.000000   -0.085524
      2          1           0        0.427335    0.000000    0.796390
      3          1           0        0.762660    0.000000   -0.698871
      4          8           0       -0.049424    0.000000    2.592193
      5          1           0        0.069138    0.000000    3.515719
      6          1           0       -0.972170    0.000000    2.437863
 ---------------------------------------------------------------------
                    Distance matrix (angstroms):
                    1          2          3          4          5
     1  O    0.000000
     2  H    0.954438   0.000000
     3  H    0.930894   1.532399   0.000000
     4  O    2.680051   1.858012   3.389776   0.000000
     5  H    3.601250   2.742820   4.271270   0.931106   0.000000
     6  H    2.727235   2.157093   3.584514   0.935563   1.498699
                    6
     6  H    0.000000
 Stoichiometry    H4O2
 Framework group  CS[SG(H4O2)]
 Deg. of freedom     9
 Full point group                 CS      NOp   2
 Largest Abelian subgroup         CS      NOp   2
 Largest concise Abelian subgroup C1      NOp   1
                         Standard orientation:                         
 ---------------------------------------------------------------------
 Center     Atomic      Atomic             Coordinates (Angstroms)
 Number     Number       Type             X           Y           Z
 ---------------------------------------------------------------------
      1          8           0       -0.015204   -1.391324    0.000000
      2          1           0        0.386213   -0.525405    0.000000
      3          1           0        0.658858   -2.033354    0.000000
      4          8           0       -0.015204    1.288727    0.000000
      5          1           0        0.141787    2.206502    0.000000
      6          1           0       -0.943586    1.173032    0.000000
 ---------------------------------------------------------------------
 Rotational constants (GHZ):    353.5218160      7.3962427      7.2446725
 Standard basis: 6-311+G(d,p) (5D, 7F)
 There are    54 symmetry adapted cartesian basis functions of A'  symmetry.
 There are    16 symmetry adapted cartesian basis functions of A"  symmetry.
 There are    52 symmetry adapted basis functions of A'  symmetry.
 There are    16 symmetry adapted basis functions of A"  symmetry.
    68 basis functions,   104 primitive gaussians,    70 cartesian basis functions
    10 alpha electrons       10 beta electrons
       nuclear repulsion energy        38.3550277475 Hartrees.
 NAtoms=    6 NActive=    6 NUniq=    6 SFac= 1.00D+00 NAtFMM=   60 NAOKFM=F Big=F
 Integral buffers will be    131072 words long.
 Raffenetti 1 integral format.
 Two-electron integral symmetry is turned on.
 One-electron integrals computed using PRISM.
 NBasis=    68 RedAO= T EigKep=  2.61D-03  NBF=    52    16
 NBsUse=    68 1.00D-06 EigRej= -1.00D+00 NBFU=    52    16
 Lowest energy guess from the checkpoint file:  "H20Aggrhf.chk"
 B after Tr=     0.000000    0.000000    0.000000
         Rot=    0.999968    0.000000    0.000000    0.008013 Ang=   0.92 deg.
 B after Tr=     0.000000    0.000000    0.000000
[...]
 and normal coordinates:
                      1                      2                      3
                     A"                     A"                     A'
 Frequencies --   -137.5819                69.7129               128.7019
 Red. masses --      1.1011                 1.1040                 1.4702
 Frc consts  --      0.0123                 0.0032                 0.0143
 IR Inten    --      2.0265               391.3321                55.2820
 Raman Activ --      0.5902                 0.0037                 0.4561
 Depolar (P) --      0.7500                 0.7500                 0.7476
 Depolar (U) --      0.8571                 0.8571                 0.8556
  Atom  AN      X      Y      Z        X      Y      Z        X      Y      Z
     1   8     0.00   0.00   0.05     0.00   0.00  -0.01    -0.02   0.14   0.00
     2   1     0.00   0.00   0.05     0.00   0.00  -0.17     0.40   0.09   0.00
     3   1     0.00   0.00  -0.63     0.00   0.00   0.48    -0.19  -0.27   0.00
     4   8     0.00   0.00  -0.06     0.00   0.00  -0.08     0.05  -0.10   0.00
     5   1     0.00   0.00   0.77     0.00   0.00   0.42    -0.41   0.27   0.00
     6   1     0.00   0.00  -0.10     0.00   0.00   0.75    -0.18  -0.65   0.00
                      4                      5                      6
                     A'                     A'                     A"
 Frequencies --    159.9455               379.3448               484.7853
 Red. masses --      2.3399                 1.0803                 1.0499
 Frc consts  --      0.0353                 0.0916                 0.1454
 IR Inten    --     32.4115               130.4085               243.9874
 Raman Activ --      0.1328                 0.3802                 0.0428
 Depolar (P) --      0.5355                 0.7497                 0.7500
 Depolar (U) --      0.6975                 0.8569                 0.8571
  Atom  AN      X      Y      Z        X      Y      Z        X      Y      Z
     1   8     0.01   0.20   0.00     0.02   0.03   0.00     0.00   0.00  -0.04
     2   1    -0.29   0.22   0.00     0.57  -0.02   0.00     0.00   0.00   0.99
     3   1     0.13   0.48   0.00    -0.23  -0.58   0.00     0.00   0.00   0.04
     4   8    -0.04  -0.22   0.00    -0.06   0.00   0.00     0.00   0.00  -0.03
     5   1     0.37  -0.55   0.00     0.26  -0.26   0.00     0.00   0.00   0.00
     6   1     0.16   0.25   0.00     0.10   0.38   0.00     0.00   0.00   0.14
                      7                      8                      9
                     A'                     A'                     A'
 Frequencies --   1742.4063              1761.1288              4100.1662
 Red. masses --      1.0849                 1.0778                 1.0499
 Frc consts  --      1.9406                 1.9697                10.3996
 IR Inten    --     90.8475                80.2381               194.2603
 Raman Activ --      3.1818                 4.4699               104.5242
 Depolar (P) --      0.7111                 0.4073                 0.1547
 Depolar (U) --      0.8312                 0.5788                 0.2679
  Atom  AN      X      Y      Z        X      Y      Z        X      Y      Z
     1   8    -0.01  -0.01   0.00     0.06   0.03   0.00    -0.03  -0.04   0.00
     2   1     0.13  -0.01   0.00    -0.73   0.08   0.00     0.06   0.90   0.00
     3   1     0.04   0.11   0.00    -0.24  -0.61   0.00     0.38  -0.18   0.00
     4   8    -0.02   0.07   0.00     0.00   0.01   0.00     0.00  -0.01   0.00
     5   1     0.54  -0.43   0.00     0.08  -0.06   0.00     0.04   0.05   0.00
     6   1    -0.27  -0.64   0.00    -0.05  -0.13   0.00    -0.08   0.03   0.00
                     10                     11                     12
                     A'                     A'                     A'
 Frequencies --   4139.0603              4224.8650              4241.1471
 Red. masses --      1.0450                 1.0789                 1.0840
 Frc consts  --     10.5478                11.3462                11.4881
 IR Inten    --     26.5768               128.6387               119.1192
 Raman Activ --     60.7267                41.9719                31.7302
 Depolar (P) --      0.1246                 0.5777                 0.7393
 Depolar (U) --      0.2215                 0.7324                 0.8501
  Atom  AN      X      Y      Z        X      Y      Z        X      Y      Z
     1   8     0.00   0.00   0.00     0.05  -0.05   0.00     0.00   0.00   0.00
     2   1     0.00  -0.09   0.00     0.05   0.42   0.00     0.00  -0.01   0.00
     3   1    -0.06   0.03   0.00    -0.83   0.35   0.00     0.01   0.00   0.00
     4   8     0.01  -0.05   0.00     0.00   0.00   0.00     0.07   0.02   0.00
     5   1     0.45   0.50   0.00    -0.02  -0.02   0.00    -0.47  -0.57   0.00
     6   1    -0.68   0.25   0.00     0.01   0.00   0.00    -0.62   0.26   0.00

 -------------------
 - Thermochemistry -
 -------------------
 Temperature   298.150 Kelvin.  Pressure   1.00000 Atm.
 Atom     1 has atomic number  8 and mass  15.99491
 Atom     2 has atomic number  1 and mass   1.00783
 Atom     3 has atomic number  1 and mass   1.00783
 Atom     4 has atomic number  8 and mass  15.99491
 Atom     5 has atomic number  1 and mass   1.00783
 Atom     6 has atomic number  1 and mass   1.00783
 Molecular mass:    36.02113 amu.
 Principal axes and moments of inertia in atomic units:
                           1         2         3
     Eigenvalues --     6.56406 302.63587 309.19992
           X           -0.02423   0.99971   0.00000
           Y            0.99971   0.02423   0.00000
           Z            0.00000   0.00000   1.00000
 This molecule is an asymmetric top.
 Rotational symmetry number  1.
 Rotational temperatures (Kelvin)     13.19517     0.28620     0.28012
 Rotational constants (GHZ):         274.94302     5.96341     5.83681
    1 imaginary frequencies ignored.
 Zero-point vibrational energy     128187.4 (Joules/Mol)
                                   30.63753 (Kcal/Mol)
 Warning -- explicit consideration of   5 degrees of freedom as
           vibrations may cause significant error
 Vibrational temperatures:    100.30   185.17   230.13   545.79   697.50
          (Kelvin)           2506.93  2533.87  5899.22  5955.18  6078.63
                             6102.06
 
 Zero-point correction=                           0.048824 (Hartree/Particle)
 Thermal correction to Energy=                    0.054327
 Thermal correction to Enthalpy=                  0.055271
 Thermal correction to Gibbs Free Energy=         0.022419
 Sum of electronic and zero-point Energies=           -152.064834
 Sum of electronic and thermal Energies=              -152.059331
 Sum of electronic and thermal Enthalpies=            -152.058387
 Sum of electronic and thermal Free Energies=         -152.091240
 
                     E (Thermal)             CV                S
                      KCal/Mol        Cal/Mol-Kelvin    Cal/Mol-Kelvin
 Total                   34.091             14.605             69.145
 Electronic               0.000              0.000              0.000
 Translational            0.889              2.981             36.674
 Rotational               0.889              2.981             21.046
 Vibrational             32.313              8.643             11.424
 Vibration     1          0.598              1.969              4.161
 Vibration     2          0.611              1.925              2.965
 Vibration     3          0.622              1.891              2.550
 Vibration     4          0.749              1.514              1.042
 Vibration     5          0.841              1.284              0.697
                       Q            Log10(Q)             Ln(Q)
 Total Bot       0.487748D-10        -10.311805        -23.743807
 Total V=0       0.139841D+13         12.145634         27.966356
 Vib (Bot)       0.646982D-21        -21.189108        -48.789725
 Vib (Bot)    1  0.295858D+01          0.471083          1.084708
 Vib (Bot)    2  0.158453D+01          0.199899          0.460285
 Vib (Bot)    3  0.126399D+01          0.101743          0.234271
 Vib (Bot)    4  0.476844D+00         -0.321623         -0.740565
 Vib (Bot)    5  0.343572D+00         -0.463982         -1.068358
 Vib (V=0)       0.185494D+02          1.268330          2.920439
 Vib (V=0)    1  0.350053D+01          0.544134          1.252914
 Vib (V=0)    2  0.216154D+01          0.334764          0.770822
 Vib (V=0)    3  0.185929D+01          0.269347          0.620193
 Vib (V=0)    4  0.119093D+01          0.075885          0.174732
 Vib (V=0)    5  0.110666D+01          0.044016          0.101351
 Electronic      0.100000D+01          0.000000          0.000000
 Translational   0.849750D+07          6.929291         15.955283
 Rotational      0.887181D+04          3.948012          9.090635
 ***** Axes restored to original set *****
 -------------------------------------------------------------------
 Center     Atomic                   Forces (Hartrees/Bohr)
 Number     Number              X              Y              Z
 -------------------------------------------------------------------
      1        8          -0.000017136    0.000000000    0.000012888
      2        1          -0.000007382    0.000000000   -0.000000012
      3        1           0.000023132    0.000000000   -0.000010200
      4        8           0.000002592    0.000000000   -0.000023318
      5        1           0.000019037    0.000000000    0.000020321
      6        1          -0.000020242    0.000000000    0.000000321
 -------------------------------------------------------------------
 Cartesian Forces:  Max     0.000023318 RMS     0.000012669
 FormGI is forming the generalized inverse of G from B-inverse, IUseBI=4.

 GradGradGradGradGradGradGradGradGradGradGradGradGradGradGradGradGradGrad
 Berny optimization.
 Internal  Forces:  Max     0.000027357 RMS     0.000011619
 Search for a local minimum.
 Step number   1 out of a maximum of    2
 All quantities printed in internal units (Hartrees-Bohrs-Radians)
 Second derivative matrix not updated -- analytic derivatives used.
 The second derivative matrix:
                          R1        R2        R3        R4        R5
           R1           0.61559
           R2          -0.00341   0.63465
           R3           0.00617  -0.00047   0.00794
           R4          -0.00050   0.00008   0.00033   0.63216
           R5          -0.00059   0.00007   0.00083  -0.00355   0.62975
           A1           0.02351   0.02843   0.00157   0.00032   0.00005
           A2          -0.00051  -0.00008  -0.00037  -0.00929  -0.00725
           A3          -0.00121   0.00007   0.00093   0.01729   0.01658
           A4          -0.00128  -0.00050   0.00060   0.00015   0.00025
           A5          -0.00171  -0.00001   0.00057   0.00801   0.00933
           A6           0.00000   0.00000   0.00000   0.00000   0.00000
           A7           0.00000   0.00000   0.00000   0.00000   0.00000
           D1           0.00000   0.00000   0.00000   0.00000   0.00000
           D2           0.00000   0.00000   0.00000   0.00000   0.00000
                          A1        A2        A3        A4        A5
           A1           0.16194
           A2          -0.00116   0.02264
           A3          -0.00029  -0.03850   0.07623
           A4          -0.00447   0.00312  -0.00090   0.00785
           A5          -0.00145  -0.01586   0.03772   0.00222   0.02186
           A6           0.00000   0.00000   0.00000   0.00000   0.00000
           A7           0.00000   0.00000   0.00000   0.00000   0.00000
           D1           0.00000   0.00000   0.00000   0.00000   0.00000
           D2           0.00000   0.00000   0.00000   0.00000   0.00000
                          A6        A7        D1        D2
           A6           0.00313
           A7           0.00004  -0.00013
           D1          -0.00104  -0.00035  -0.00021
           D2          -0.00005   0.00017   0.00048  -0.00023
 ITU=  0
     Eigenvalues ---   -0.00100   0.00012   0.00324   0.00344   0.00774
     Eigenvalues ---    0.01093   0.11269   0.15917   0.61664   0.62886
     Eigenvalues ---    0.63478   0.63657
 Eigenvalue     1 is  -9.96D-04 should be greater than     0.000000 Eigenvector:
                          D1        D2        A7        A6        A2
   1                   -0.73028   0.53191  -0.39190  -0.17369   0.00000
                          A5        R3        R5        R4        A3
   1                    0.00000   0.00000   0.00000   0.00000   0.00000
 Angle between quadratic step and forces=  79.35 degrees.
 Linear search not attempted -- first point.
 Iteration  1 RMS(Cart)=  0.00040954 RMS(Int)=  0.00000010
 Iteration  2 RMS(Cart)=  0.00000013 RMS(Int)=  0.00000000
 ClnCor:  largest displacement from symmetrization is 1.84D-11 for atom     4.
 Variable       Old X    -DE/DX   Delta X   Delta X   Delta X     New X
                                 (Linear)    (Quad)   (Total)
    R1        1.78651   0.00000   0.00000   0.00000   0.00000   1.78651
    R2        1.77698   0.00002   0.00000   0.00004   0.00004   1.77702
    R3        3.91388   0.00000   0.00000  -0.00034  -0.00034   3.91355
    R4        1.77888   0.00003   0.00000   0.00004   0.00004   1.77893
    R5        1.78007   0.00002   0.00000   0.00003   0.00003   1.78010
    A1        1.85453   0.00001   0.00000   0.00003   0.00003   1.85456
    A2        2.00664   0.00000   0.00000   0.00027   0.00027   2.00691
    A3        1.86632   0.00001   0.00000   0.00004   0.00004   1.86637
    A4        3.28181   0.00000   0.00000  -0.00063  -0.00063   3.28117
    A5        3.87297   0.00000   0.00000   0.00031   0.00031   3.87328
    A6        3.14159   0.00000   0.00000   0.00000   0.00000   3.14159
    A7        3.14159   0.00000   0.00000   0.00000   0.00000   3.14159
    D1        3.14159   0.00000   0.00000   0.00000   0.00000   3.14159
    D2        3.14159   0.00000   0.00000   0.00000   0.00000   3.14159
         Item               Value     Threshold  Converged?
 Maximum Force            0.000027     0.000450     YES
 RMS     Force            0.000012     0.000300     YES
 Maximum Displacement     0.000763     0.001800     YES
 RMS     Displacement     0.000410     0.001200     YES
 Predicted change in Energy=-3.335399D-09
 Optimization completed.
    -- Stationary point found.
                           ----------------------------
                           !   Optimized Parameters   !
                           ! (Angstroms and Degrees)  !
 --------------------------                            --------------------------
 ! Name  Definition              Value          Derivative Info.                !
 --------------------------------------------------------------------------------
 ! R1    R(1,2)                  0.9454         -DE/DX =    0.0                 !
 ! R2    R(1,3)                  0.9403         -DE/DX =    0.0                 !
 ! R3    R(2,4)                  2.0711         -DE/DX =    0.0                 !
 ! R4    R(4,5)                  0.9413         -DE/DX =    0.0                 !
 ! R5    R(4,6)                  0.942          -DE/DX =    0.0                 !
 ! A1    A(2,1,3)              106.257          -DE/DX =    0.0                 !
 ! A2    A(2,4,6)              114.9722         -DE/DX =    0.0                 !
 ! A3    A(5,4,6)              106.9324         -DE/DX =    0.0                 !
 ! A4    L(1,2,4,3,-1)         188.0336         -DE/DX =    0.0                 !
 ! A5    L(2,4,5,6,-1)         221.9046         -DE/DX =    0.0                 !
 ! A6    L(1,2,4,3,-2)         180.0            -DE/DX =    0.0                 !
 ! A7    L(2,4,5,6,-2)         180.0            -DE/DX =    0.0                 !
 ! D1    D(3,1,4,6)            180.0            -DE/DX =    0.0                 !
 ! D2    D(2,4,5,6)            180.0            -DE/DX =    0.0                 !
 --------------------------------------------------------------------------------
 GradGradGradGradGradGradGradGradGradGradGradGradGradGradGradGradGradGrad

 1\1\GINC-TC-NODE157\Freq\RHF\6-311+G(d,p)\H4O2\MAXB2\09-Oct-2016\0\\#N
  Geom=AllCheck Guess=TCheck SCRF=Check GenChk RHF/6-311+G(d,p) Freq\\T
 itle Card Required\\0,1\O,0.15301274,0.,-0.3594353303\H,0.1286726988,0
 .,0.5856308865\H,1.0622289644,0.,-0.5993499435\O,-0.2134812302,0.,2.62
 83113477\H,0.2908564697,0.,3.4231532881\H,-1.1213536727,0.,2.879459622
 1\\Version=ES64L-G09RevD.01\State=1-A'\HF=-152.1136583\RMSD=1.032e-09\
 RMSF=1.267e-05\ZeroPoint=0.048824\Thermal=0.0543272\Dipole=0.3358181,0
 .,1.4766059\DipoleDeriv=-0.4916238,0.,0.0807514,0.,-0.8098737,0.,0.089
 4991,0.,-0.718162,0.2847464,0.,-0.1125192,0.,0.3892206,0.,-0.0617883,0
 .,0.4905192,0.1725464,0.,0.0058646,0.,0.3925753,0.,-0.0519203,0.,0.318
 5071,-0.5864983,0.,-0.0253809,0.,-0.7797388,0.,-0.0187079,0.,-0.598588
 5,0.3314211,0.,0.0159499,0.,0.4064056,0.,-0.0151927,0.,0.2258171,0.289
 4082,0.,0.0353343,0.,0.4014111,0.,0.0581102,0.,0.281907\Polar=13.62518
 77,0.,11.072311,-0.6633413,0.,14.5273147\PolarDeriv=-6.773341,0.,-0.79
 58157,0.3357201,0.,-1.3048302,0.,-0.1975298,0.,0.,-0.0815316,0.,0.3116
 225,0.,-0.8573744,-1.0604899,0.,-7.0296152,0.1023066,0.,0.4484819,1.04
 9543,0.,0.0438938,0.,-0.1061066,0.,0.,0.0406821,0.,0.6103726,0.,0.4047
 823,-0.7212269,0.,8.453142,6.8447282,0.,0.2936677,-1.6724142,0.,1.1487
 273,0.,0.4619096,0.,0.,-0.4072537,0.,-0.9558428,0.,0.5305524,1.5932529
 ,0.,-0.8758972,4.0394612,0.,0.2037713,-2.9025924,0.,-0.9445076,0.,-0.1
 547237,0.,0.,-0.0218954,0.,-3.2028835,0.,-0.5369999,-0.7564541,0.,-6.7
 563232,2.0883315,0.,0.0075907,1.7789287,0.,2.4993338,0.,0.6140283,0.,0
 .,0.4327775,0.,1.8055297,0.,0.2802721,2.126266,0.,5.2835487,-6.3014865
 ,0.,-0.1576958,1.4108147,0.,-1.4426171,0.,-0.6175777,0.,0.,0.0372211,0
 .,1.4312014,0.,0.1787675,-1.1813481,0.,0.925145\HyperPolar=3.1712808,0
 .,-0.6993664,0.,3.9382142,0.,-1.5921136,6.8810714,0.,21.2111499\PG=CS 
 [SG(H4O2)]\NImag=1\\0.64164305,0.,0.00382811,-0.13772903,0.,0.69064195
 ,-0.05774189,0.,-0.02793537,0.06488884,0.,-0.00602131,0.,0.,0.00840496
 ,0.03312894,0.,-0.59868757,-0.02803513,0.,0.60979924,-0.58666885,0.,0.
 16456865,-0.00210941,0.,-0.00603888,0.58878034,0.,0.00010258,0.,0.,0.0
 0033021,0.,0.,-0.00021494,0.10273300,0.,-0.08663719,0.05599139,0.,-0.0
 0961199,-0.15783673,0.,0.09714116,0.00396644,0.,0.00059561,-0.00661127
 ,0.,0.00170905,-0.00011085,0.,-0.00134467,0.78423640,0.,0.00332935,0.,
 0.,-0.00381691,0.,0.,-0.00063364,0.,0.,0.00149745,0.00270042,0.,-0.004
 79975,-0.00180703,0.,-0.00300935,-0.00063164,0.,-0.00071037,0.09753186
 ,0.,0.57715762,-0.00097155,0.,0.00129783,0.00157900,0.,-0.00240663,0.0
 0016721,0.,0.00033871,-0.21007252,0.,-0.21826811,0.23341235,0.,-0.0004
 1719,0.,0.,-0.00006015,0.,0.,0.00034617,0.,0.,0.00039028,0.,0.,-0.0003
 6359,0.00067609,0.,0.00000871,-0.00137625,0.,0.00048423,-0.00006582,0.
 ,-0.00044652,-0.28111179,0.,-0.46602644,0.26723536,0.,0.45356711,-0.00
 022720,0.,-0.00079768,-0.00000527,0.,0.00164265,-0.00005844,0.,0.00011
 830,-0.57140821,0.,0.12047449,-0.02411449,0.,0.01464240,0.59581361,0.,
 -0.00082153,0.,0.,0.00116319,0.,0.,0.00006961,0.,0.,-0.00076653,0.,0.,
 0.00010447,0.,0.,0.00025079,-0.00150942,0.,-0.00052615,0.00316239,0.,0
 .00102544,0.00000441,0.,0.00026491,0.18261993,0.,-0.10261171,-0.048197
 15,0.,0.01241291,-0.13608016,0.,0.08943459\\0.00001714,0.,-0.00001289,
 0.00000738,0.,0.00000001,-0.00002313,0.,0.00001020,-0.00000259,0.,0.00
 002332,-0.00001904,0.,-0.00002032,0.00002024,0.,-0.00000032\\\@


 THERE IS SOMETHING FASCINATING ABOUT SCIENCE.
 ONE GETS SUCH WHOLESALE CONJECTURE OUT OF SUCH TRIFLING INVESTMENTS.

                                                       -- MARK TWAIN
 Job cpu time:       0 days  0 hours  0 minutes 10.0 seconds.
 File lengths (MBytes):  RWF=      6 Int=      0 D2E=      0 Chk=      2 Scr=      1
 Normal termination of Gaussian 09 at Sun Oct  9 22:29:21 2016.
