 Entering Gaussian System, Link 0=g09
 Initial command:
 /cluster/software/gaussian/gaussian-09-D.01/g09/l1.exe "/local/scratch/maxb2/Gau-18143.inp" -scrdir="/local/scratch/maxb2/"
 Entering Link 1 = /cluster/software/gaussian/gaussian-09-D.01/g09/l1.exe PID=     18144.
  
 Copyright (c) 1988,1990,1992,1993,1995,1998,2003,2009,2013,
            Gaussian, Inc.  All Rights Reserved.
  
 This is part of the Gaussian(R) 09 program.  It is based on
 the Gaussian(R) 03 system (copyright 2003, Gaussian, Inc.),
 the Gaussian(R) 98 system (copyright 1998, Gaussian, Inc.),
 the Gaussian(R) 94 system (copyright 1995, Gaussian, Inc.),
 the Gaussian 92(TM) system (copyright 1992, Gaussian, Inc.),
 the Gaussian 90(TM) system (copyright 1990, Gaussian, Inc.),
 the Gaussian 88(TM) system (copyright 1988, Gaussian, Inc.),
 the Gaussian 86(TM) system (copyright 1986, Carnegie Mellon
 University), and the Gaussian 82(TM) system (copyright 1983,
 Carnegie Mellon University). Gaussian is a federally registered
 trademark of Gaussian, Inc.
  
 This software contains proprietary and confidential information,
 including trade secrets, belonging to Gaussian, Inc.
  
 This software is provided under written license and may be
 used, copied, transmitted, or stored only in accord with that
 written license.
  
 The following legend is applicable only to US Government
 contracts under FAR:
  
                    RESTRICTED RIGHTS LEGEND
  
 Use, reproduction and disclosure by the US Government is
 subject to restrictions as set forth in subparagraphs (a)
 and (c) of the Commercial Computer Software - Restricted
 Rights clause in FAR 52.227-19.
  
 Gaussian, Inc.
 340 Quinnipiac St., Bldg. 40, Wallingford CT 06492
  
  
 ---------------------------------------------------------------
 Warning -- This program may not be used in any manner that
 competes with the business of Gaussian, Inc. or will provide
 assistance to any competitor of Gaussian, Inc.  The licensee
 of this program is prohibited from giving any competitor of
 Gaussian, Inc. access to this program.  By using this program,
 the user acknowledges that Gaussian, Inc. is engaged in the
 business of creating and licensing software in the field of
 computational chemistry and represents and warrants to the
 licensee that it is not a competitor of Gaussian, Inc. and that
 it will not use this program in any manner prohibited above.
 ---------------------------------------------------------------
  

 Cite this work as:
 Gaussian 09, Revision D.01,
 M. J. Frisch, G. W. Trucks, H. B. Schlegel, G. E. Scuseria, 
 M. A. Robb, J. R. Cheeseman, G. Scalmani, V. Barone, B. Mennucci, 
 G. A. Petersson, H. Nakatsuji, M. Caricato, X. Li, H. P. Hratchian, 
 A. F. Izmaylov, J. Bloino, G. Zheng, J. L. Sonnenberg, M. Hada, 
 M. Ehara, K. Toyota, R. Fukuda, J. Hasegawa, M. Ishida, T. Nakajima, 
 Y. Honda, O. Kitao, H. Nakai, T. Vreven, J. A. Montgomery, Jr., 
 J. E. Peralta, F. Ogliaro, M. Bearpark, J. J. Heyd, E. Brothers, 
 K. N. Kudin, V. N. Staroverov, T. Keith, R. Kobayashi, J. Normand, 
 K. Raghavachari, A. Rendell, J. C. Burant, S. S. Iyengar, J. Tomasi, 
 M. Cossi, N. Rega, J. M. Millam, M. Klene, J. E. Knox, J. B. Cross, 
 V. Bakken, C. Adamo, J. Jaramillo, R. Gomperts, R. E. Stratmann, 
 O. Yazyev, A. J. Austin, R. Cammi, C. Pomelli, J. W. Ochterski, 
 R. L. Martin, K. Morokuma, V. G. Zakrzewski, G. A. Voth, 
 P. Salvador, J. J. Dannenberg, S. Dapprich, A. D. Daniels, 
 O. Farkas, J. B. Foresman, J. V. Ortiz, J. Cioslowski, 
 and D. J. Fox, Gaussian, Inc., Wallingford CT, 2013.
 
 ******************************************
 Gaussian 09:  ES64L-G09RevD.01 24-Apr-2013
                 9-Oct-2016 
 ******************************************
 %mem=6GB
 %nprocshared=2
 Will use up to    2 processors via shared memory.
 %chk=H20Aggb3lyp
 --------------------------------------------
 # opt freq b3lyp/6-311+g** geom=connectivity
 --------------------------------------------
 1/14=-1,18=20,19=15,26=3,38=1,57=2/1,3;
 2/9=110,12=2,17=6,18=5,40=1/2;
 3/5=4,6=6,7=111,11=2,16=1,25=1,30=1,71=1,74=-5/1,2,3;
 4//1;
 5/5=2,38=5/2;
 6/7=2,8=2,9=2,10=2,28=1/1;
 7//1,2,3,16;
 1/14=-1,18=20,19=15,26=3/3(2);
 2/9=110/2;
 99//99;
 2/9=110/2;
 3/5=4,6=6,7=111,11=2,16=1,25=1,30=1,71=1,74=-5/1,2,3;
 4/5=5,16=3,69=1/1;
 5/5=2,38=5/2;
 7//1,2,3,16;
 1/14=-1,18=20,19=15,26=3/3(-5);
 2/9=110/2;
 6/7=2,8=2,9=2,10=2,19=2,28=1/1;
 99/9=1/99;
 -------------------
 Title Card Required
 -------------------
 Symbolic Z-matrix:
 Charge =  0 Multiplicity = 1
 O
 H                    1    B1
 H                    1    B2       2    A1
 O                    1    B3       2    A2       3    D1       0
 H                    4    B4       1    A3       2    D2       0
 H                    4    B5       1    A4       2    D3       0
       Variables:
  B1                    0.96                     
  B2                    0.96                     
  B3                    2.36964                  
  B4                    0.96                     
  B5                    0.96                     
  A1                  109.5                      
  A2                    1.21094                  
  A3                  169.42556                  
  A4                   81.07444                  
  D1                    0.                       
  D2                  180.                       
  D3                    0.                       
 

 GradGradGradGradGradGradGradGradGradGradGradGradGradGradGradGradGradGrad
 Berny optimization.
 Initialization pass.
                           ----------------------------
                           !    Initial Parameters    !
                           ! (Angstroms and Degrees)  !
 --------------------------                            --------------------------
 ! Name  Definition              Value          Derivative Info.                !
 --------------------------------------------------------------------------------
 ! R1    R(1,2)                  0.96           estimate D2E/DX2                !
 ! R2    R(1,3)                  0.96           estimate D2E/DX2                !
 ! R3    R(2,4)                  1.41           estimate D2E/DX2                !
 ! R4    R(4,5)                  0.96           estimate D2E/DX2                !
 ! R5    R(4,6)                  0.96           estimate D2E/DX2                !
 ! A1    A(2,1,3)              109.5            estimate D2E/DX2                !
 ! A2    A(2,4,6)               80.25           estimate D2E/DX2                !
 ! A3    A(5,4,6)              109.5            estimate D2E/DX2                !
 ! A4    L(1,2,4,3,-1)         177.9646         estimate D2E/DX2                !
 ! A5    L(2,4,5,6,-1)         189.75           estimate D2E/DX2                !
 ! A6    L(1,2,4,3,-2)         180.0            estimate D2E/DX2                !
 ! A7    L(2,4,5,6,-2)         180.0            estimate D2E/DX2                !
 ! D1    D(3,1,4,6)            180.0            estimate D2E/DX2                !
 ! D2    D(2,4,5,6)            180.0            estimate D2E/DX2                !
 --------------------------------------------------------------------------------
 Trust Radius=3.00D-01 FncErr=1.00D-07 GrdErr=1.00D-06
 Number of steps in this run=     24 maximum allowed number of steps=    100.
 GradGradGradGradGradGradGradGradGradGradGradGradGradGradGradGradGradGrad

                          Input orientation:                          
 ---------------------------------------------------------------------
 Center     Atomic      Atomic             Coordinates (Angstroms)
 Number     Number       Type             X           Y           Z
 ---------------------------------------------------------------------
      1          8           0        0.000000    0.000000    0.000000
      2          1           0        0.000000    0.000000    0.960000
      3          1           0        0.904936    0.000000   -0.320455
      4          8           0        0.050078    0.000000    2.369110
      5          1           0        0.246155    0.000000    3.308873
      6          1           0       -0.901233    0.000000    2.240241
 ---------------------------------------------------------------------
                    Distance matrix (angstroms):
                    1          2          3          4          5
     1  O    0.000000
     2  H    0.960000   0.000000
     3  H    0.960000   1.567952   0.000000
     4  O    2.369640   1.410000   2.822152   0.000000
     5  H    3.318017   2.361736   3.688633   0.960000   0.000000
     6  H    2.414726   1.565643   3.133593   0.960000   1.567952
                    6
     6  H    0.000000
 Stoichiometry    H4O2
 Framework group  CS[SG(H4O2)]
 Deg. of freedom     9
 Full point group                 CS      NOp   2
 Largest Abelian subgroup         CS      NOp   2
 Largest concise Abelian subgroup C1      NOp   1
                         Standard orientation:                         
 ---------------------------------------------------------------------
 Center     Atomic      Atomic             Coordinates (Angstroms)
 Number     Number       Type             X           Y           Z
 ---------------------------------------------------------------------
      1          8           0       -0.005951   -1.257484    0.000000
      2          1           0       -0.026239   -0.297698    0.000000
      3          1           0        0.905555   -1.558742    0.000000
      4          8           0       -0.005951    1.112156    0.000000
      5          1           0        0.170221    2.055853    0.000000
      6          1           0       -0.954326    0.963211    0.000000
 ---------------------------------------------------------------------
 Rotational constants (GHZ):    297.5411786      9.5627892      9.2650172
 Standard basis: 6-311+G(d,p) (5D, 7F)
 There are    54 symmetry adapted cartesian basis functions of A'  symmetry.
 There are    16 symmetry adapted cartesian basis functions of A"  symmetry.
 There are    52 symmetry adapted basis functions of A'  symmetry.
 There are    16 symmetry adapted basis functions of A"  symmetry.
    68 basis functions,   104 primitive gaussians,    70 cartesian basis functions
    10 alpha electrons       10 beta electrons
       nuclear repulsion energy        41.0123592975 Hartrees.
 NAtoms=    6 NActive=    6 NUniq=    6 SFac= 1.00D+00 NAtFMM=   60 NAOKFM=F Big=F
 Integral buffers will be    131072 words long.
 Raffenetti 2 integral format.
 Two-electron integral symmetry is turned on.
 One-electron integrals computed using PRISM.
 NBasis=    68 RedAO= T EigKep=  1.54D-03  NBF=    52    16
 NBsUse=    68 1.00D-06 EigRej= -1.00D+00 NBFU=    52    16
 ExpMin= 8.45D-02 ExpMax= 8.59D+03 ExpMxC= 1.30D+03 IAcc=2 IRadAn=         4 AccDes= 0.00D+00
 Harris functional with IExCor=  402 and IRadAn=       4 diagonalized for initial guess.
 HarFok:  IExCor=  402 AccDes= 0.00D+00 IRadAn=         4 IDoV= 1 UseB2=F ITyADJ=14
 ICtDFT=  3500011 ScaDFX=  1.000000  1.000000  1.000000  1.000000
 FoFCou: FMM=F IPFlag=           0 FMFlag=      100000 FMFlg1=           0
         NFxFlg=           0 DoJE=T BraDBF=F KetDBF=T FulRan=T
         wScrn=  0.000000 ICntrl=     500 IOpCl=  0 I1Cent=   200000004 NGrid=           0
         NMat0=    1 NMatS0=      1 NMatT0=    0 NMatD0=    1 NMtDS0=    0 NMtDT0=    0
 Petite list used in FoFCou.
 Initial guess orbital symmetries:
       Occupied  (A') (A') (A') (A') (A') (A') (A') (A') (A") (A")
       Virtual   (A') (A') (A') (A") (A') (A') (A') (A") (A') (A')
                 (A') (A') (A') (A') (A') (A') (A') (A") (A') (A')
                 (A") (A') (A") (A') (A") (A') (A') (A") (A') (A")
                 (A') (A') (A') (A') (A') (A') (A') (A') (A') (A")
                 (A') (A") (A") (A") (A') (A') (A') (A') (A') (A')
                 (A") (A") (A') (A') (A') (A') (A') (A')
 The electronic state of the initial guess is 1-A'.
 Keep R1 ints in memory in symmetry-blocked form, NReq=4286288.
 Requested convergence on RMS density matrix=1.00D-08 within 128 cycles.
 Requested convergence on MAX density matrix=1.00D-06.
 Requested convergence on             energy=1.00D-06.
 No special actions if energy rises.
 Integral accuracy reduced to 1.0D-05 until final iterations.
 Initial convergence to 1.0D-05 achieved.  Increase integral accuracy.
 SCF Done:  E(RB3LYP) =  -152.901552184     A.U. after   12 cycles
            NFock= 12  Conv=0.31D-08     -V/T= 2.0018

 **********************************************************************

            Population analysis using the SCF density.

 **********************************************************************

 Orbital symmetries:
       Occupied  (A') (A') (A') (A') (A') (A') (A') (A") (A') (A")
       Virtual   (A') (A') (A') (A") (A') (A') (A') (A") (A') (A')
                 (A') (A') (A') (A') (A') (A') (A') (A") (A') (A')
                 (A") (A') (A") (A') (A") (A') (A') (A") (A') (A")
                 (A') (A') (A') (A') (A') (A') (A') (A') (A') (A')
                 (A") (A") (A") (A') (A") (A') (A') (A') (A') (A')
                 (A") (A") (A') (A') (A') (A') (A') (A')
 The electronic state is 1-A'.
 Alpha  occ. eigenvalues --  -19.17175 -19.07693  -1.07575  -0.97413  -0.61790
 Alpha  occ. eigenvalues --   -0.51654  -0.43713  -0.37073  -0.33159  -0.27839
 Alpha virt. eigenvalues --   -0.00524   0.05790   0.07993   0.13302   0.13407
 Alpha virt. eigenvalues --    0.15589   0.16915   0.19856   0.20621   0.25825
 Alpha virt. eigenvalues --    0.31703   0.39040   0.43187   0.50138   0.53323
 Alpha virt. eigenvalues --    0.64621   0.88501   0.93509   0.95538   1.02065
 Alpha virt. eigenvalues --    1.05225   1.06952   1.17683   1.26416   1.29538
 Alpha virt. eigenvalues --    1.37983   1.42733   1.43599   1.53138   1.59195
 Alpha virt. eigenvalues --    1.60034   1.81637   1.92026   2.04122   2.10461
 Alpha virt. eigenvalues --    2.22039   2.48618   2.55803   2.62689   2.92540
 Alpha virt. eigenvalues --    2.99407   3.07604   3.14175   3.25172   3.25882
 Alpha virt. eigenvalues --    3.39067   3.61650   3.71417   3.85194   4.22841
 Alpha virt. eigenvalues --    4.87959   4.98604   5.23880   5.41581   5.58814
 Alpha virt. eigenvalues --    6.02306  49.85716  49.99316
          Condensed to atoms (all electrons):
               1          2          3          4          5          6
     1  O    8.130610   0.269233   0.315701  -0.016407   0.005967   0.005926
     2  H    0.269233   0.375762  -0.028179  -0.116547   0.007025   0.005394
     3  H    0.315701  -0.028179   0.454156   0.008875  -0.001487  -0.000913
     4  O   -0.016407  -0.116547   0.008875   8.109602   0.319526   0.314556
     5  H    0.005967   0.007025  -0.001487   0.319526   0.366723  -0.020693
     6  H    0.005926   0.005394  -0.000913   0.314556  -0.020693   0.427191
 Mulliken charges:
               1
     1  O   -0.711031
     2  H    0.487312
     3  H    0.251846
     4  O   -0.619605
     5  H    0.322940
     6  H    0.268538
 Sum of Mulliken charges =   0.00000
 Mulliken charges with hydrogens summed into heavy atoms:
               1
     1  O    0.028127
     4  O   -0.028127
 Electronic spatial extent (au):  <R**2>=            141.3499
 Charge=              0.0000 electrons
 Dipole moment (field-independent basis, Debye):
    X=              0.3004    Y=              3.7211    Z=              0.0000  Tot=              3.7332
 Quadrupole moment (field-independent basis, Debye-Ang):
   XX=            -10.5627   YY=            -10.4596   ZZ=            -15.4972
   XY=             -3.7928   XZ=              0.0000   YZ=              0.0000
 Traceless Quadrupole moment (field-independent basis, Debye-Ang):
   XX=              1.6105   YY=              1.7136   ZZ=             -3.3240
   XY=             -3.7928   XZ=              0.0000   YZ=              0.0000
 Octapole moment (field-independent basis, Debye-Ang**2):
  XXX=             -0.1571  YYY=             18.6168  ZZZ=              0.0000  XYY=              5.8026
  XXY=              0.5681  XXZ=              0.0000  XZZ=              0.0945  YZZ=              1.2096
  YYZ=              0.0000  XYZ=              0.0000
 Hexadecapole moment (field-independent basis, Debye-Ang**3):
 XXXX=            -12.8658 YYYY=           -103.6111 ZZZZ=            -15.1699 XXXY=             -1.6750
 XXXZ=              0.0000 YYYX=             -3.2821 YYYZ=              0.0000 ZZZX=              0.0000
 ZZZY=              0.0000 XXYY=            -19.9709 XXZZ=             -5.2803 YYZZ=            -27.6764
 XXYZ=              0.0000 YYXZ=              0.0000 ZZXY=              0.7058
 N-N= 4.101235929753D+01 E-N=-4.438766373151D+02  KE= 1.526253731585D+02
 Symmetry A'   KE= 1.435985173055D+02
 Symmetry A"   KE= 9.026855853015D+00
 Calling FoFJK, ICntrl=      2127 FMM=F ISym2X=1 I1Cent= 0 IOpClX= 0 NMat=1 NMatS=1 NMatT=0.
 ***** Axes restored to original set *****
 -------------------------------------------------------------------
 Center     Atomic                   Forces (Hartrees/Bohr)
 Number     Number              X              Y              Z
 -------------------------------------------------------------------
      1        8          -0.011957293    0.000000000   -0.037849518
      2        1           0.025490625    0.000000000   -0.018370101
      3        1          -0.000856398    0.000000000    0.005317679
      4        8          -0.002466533    0.000000000    0.033803170
      5        1          -0.001834672    0.000000000    0.002590522
      6        1          -0.008375730    0.000000000    0.014508248
 -------------------------------------------------------------------
 Cartesian Forces:  Max     0.037849518 RMS     0.014965263

 GradGradGradGradGradGradGradGradGradGradGradGradGradGradGradGradGradGrad
 Berny optimization.
 FormGI is forming the generalized inverse of G from B-inverse, IUseBI=4.
 Internal  Forces:  Max     0.050419565 RMS     0.017729903
 Search for a local minimum.
 Step number   1 out of a maximum of   24
 All quantities printed in internal units (Hartrees-Bohrs-Radians)
 Mixed Optimization -- RFO/linear search
 Second derivative matrix not updated -- first step.
 The second derivative matrix:
                          R1        R2        R3        R4        R5
           R1           0.55473
           R2           0.00000   0.55473
           R3           0.00000   0.00000   0.14022
           R4           0.00000   0.00000   0.00000   0.55473
           R5           0.00000   0.00000   0.00000   0.00000   0.55473
           A1           0.00000   0.00000   0.00000   0.00000   0.00000
           A2           0.00000   0.00000   0.00000   0.00000   0.00000
           A3           0.00000   0.00000   0.00000   0.00000   0.00000
           A4           0.00000   0.00000   0.00000   0.00000   0.00000
           A5           0.00000   0.00000   0.00000   0.00000   0.00000
           A6           0.00000   0.00000   0.00000   0.00000   0.00000
           A7           0.00000   0.00000   0.00000   0.00000   0.00000
           D1           0.00000   0.00000   0.00000   0.00000   0.00000
           D2           0.00000   0.00000   0.00000   0.00000   0.00000
                          A1        A2        A3        A4        A5
           A1           0.16000
           A2           0.00000   0.16000
           A3           0.00000   0.00000   0.16000
           A4           0.00000   0.00000   0.00000   0.00230
           A5           0.00000   0.00000   0.00000   0.00000   0.01558
           A6           0.00000   0.00000   0.00000   0.00000   0.00000
           A7           0.00000   0.00000   0.00000   0.00000   0.00000
           D1           0.00000   0.00000   0.00000   0.00000   0.00000
           D2           0.00000   0.00000   0.00000   0.00000   0.00000
                          A6        A7        D1        D2
           A6           0.00230
           A7           0.00000   0.01558
           D1           0.00000   0.00000   0.00230
           D2           0.00000   0.00000   0.00000   0.01558
 ITU=  0
     Eigenvalues ---    0.00230   0.00230   0.00230   0.01558   0.06372
     Eigenvalues ---    0.14022   0.16000   0.16000   0.55473   0.55473
     Eigenvalues ---    0.55473   0.55473
 RFO step:  Lambda=-2.74964935D-02 EMin= 2.30000000D-03
 Linear search not attempted -- first point.
 Maximum step size (   0.300) exceeded in Quadratic search.
    -- Step size scaled by   0.502
 Iteration  1 RMS(Cart)=  0.10355633 RMS(Int)=  0.01538969
 Iteration  2 RMS(Cart)=  0.02332039 RMS(Int)=  0.00044128
 Iteration  3 RMS(Cart)=  0.00061602 RMS(Int)=  0.00000004
 Iteration  4 RMS(Cart)=  0.00000004 RMS(Int)=  0.00000000
 ClnCor:  largest displacement from symmetrization is 4.27D-11 for atom     3.
 Variable       Old X    -DE/DX   Delta X   Delta X   Delta X     New X
                                 (Linear)    (Quad)   (Total)
    R1        1.81414   0.03253   0.00000   0.02805   0.02805   1.84218
    R2        1.81414  -0.00258   0.00000  -0.00223  -0.00223   1.81191
    R3        2.66451   0.05042   0.00000   0.15091   0.15091   2.81542
    R4        1.81414   0.00216   0.00000   0.00186   0.00186   1.81600
    R5        1.81414   0.00635   0.00000   0.00548   0.00548   1.81961
    A1        1.91114  -0.00858   0.00000  -0.02296  -0.02296   1.88818
    A2        1.40063   0.01734   0.00000   0.05570   0.05570   1.45633
    A3        1.91114  -0.01078   0.00000  -0.01959  -0.01959   1.89155
    A4        3.10607   0.01467   0.00000   0.24715   0.24715   3.35322
    A5        3.31176   0.00656   0.00000   0.03611   0.03611   3.34787
    A6        3.14159   0.00000   0.00000   0.00000   0.00000   3.14159
    A7        3.14159   0.00000   0.00000   0.00000   0.00000   3.14159
    D1        3.14159   0.00000   0.00000   0.00000   0.00000   3.14159
    D2        3.14159   0.00000   0.00000   0.00000   0.00000   3.14159
         Item               Value     Threshold  Converged?
 Maximum Force            0.050420     0.000450     NO 
 RMS     Force            0.017730     0.000300     NO 
 Maximum Displacement     0.261419     0.001800     NO 
 RMS     Displacement     0.116830     0.001200     NO 
 Predicted change in Energy=-1.157563D-02
 GradGradGradGradGradGradGradGradGradGradGradGradGradGradGradGradGradGrad

                          Input orientation:                          
 ---------------------------------------------------------------------
 Center     Atomic      Atomic             Coordinates (Angstroms)
 Number     Number       Type             X           Y           Z
 ---------------------------------------------------------------------
      1          8           0       -0.004010    0.000000   -0.018389
      2          1           0        0.138337    0.000000    0.946004
      3          1           0        0.853467    0.000000   -0.447426
      4          8           0        0.041440    0.000000    2.432708
      5          1           0        0.176679    0.000000    3.384130
      6          1           0       -0.905978    0.000000    2.260744
 ---------------------------------------------------------------------
                    Distance matrix (angstroms):
                    1          2          3          4          5
     1  O    0.000000
     2  H    0.974842   0.000000
     3  H    0.958822   1.566224   0.000000
     4  O    2.451518   1.489858   2.992417   0.000000
     5  H    3.407314   2.438428   3.890870   0.960986   0.000000
     6  H    2.451121   1.679028   3.229525   0.962898   1.560174
                    6
     6  H    0.000000
 Stoichiometry    H4O2
 Framework group  CS[SG(H4O2)]
 Deg. of freedom     9
 Full point group                 CS      NOp   2
 Largest Abelian subgroup         CS      NOp   2
 Largest concise Abelian subgroup C1      NOp   1
                         Standard orientation:                         
 ---------------------------------------------------------------------
 Center     Atomic      Atomic             Coordinates (Angstroms)
 Number     Number       Type             X           Y           Z
 ---------------------------------------------------------------------
      1          8           0       -0.008162   -1.291663    0.000000
      2          1           0        0.116281   -0.324796    0.000000
      3          1           0        0.857122   -1.704728    0.000000
      4          8           0       -0.008162    1.159856    0.000000
      5          1           0        0.109414    2.113622    0.000000
      6          1           0       -0.952229    0.970357    0.000000
 ---------------------------------------------------------------------
 Rotational constants (GHZ):    317.0361176      8.9058511      8.6625128
 Standard basis: 6-311+G(d,p) (5D, 7F)
 There are    54 symmetry adapted cartesian basis functions of A'  symmetry.
 There are    16 symmetry adapted cartesian basis functions of A"  symmetry.
 There are    52 symmetry adapted basis functions of A'  symmetry.
 There are    16 symmetry adapted basis functions of A"  symmetry.
    68 basis functions,   104 primitive gaussians,    70 cartesian basis functions
    10 alpha electrons       10 beta electrons
       nuclear repulsion energy        40.1094473910 Hartrees.
 NAtoms=    6 NActive=    6 NUniq=    6 SFac= 1.00D+00 NAtFMM=   60 NAOKFM=F Big=F
 Integral buffers will be    131072 words long.
 Raffenetti 2 integral format.
 Two-electron integral symmetry is turned on.
 One-electron integrals computed using PRISM.
 NBasis=    68 RedAO= T EigKep=  1.85D-03  NBF=    52    16
 NBsUse=    68 1.00D-06 EigRej= -1.00D+00 NBFU=    52    16
 Initial guess from the checkpoint file:  "H20Aggb3lyp.chk"
 B after Tr=     0.000000    0.000000    0.000000
         Rot=    1.000000    0.000000    0.000000    0.000632 Ang=   0.07 deg.
 Initial guess orbital symmetries:
       Occupied  (A') (A') (A') (A') (A') (A') (A') (A") (A') (A")
       Virtual   (A') (A') (A') (A') (A') (A') (A') (A') (A') (A')
                 (A') (A') (A') (A') (A') (A') (A') (A') (A') (A')
                 (A') (A') (A') (A') (A') (A') (A') (A') (A') (A')
                 (A') (A') (A') (A') (A') (A') (A') (A') (A') (A')
                 (A') (A') (A') (A') (A") (A") (A") (A") (A") (A")
                 (A") (A") (A") (A") (A") (A") (A") (A")
 ExpMin= 8.45D-02 ExpMax= 8.59D+03 ExpMxC= 1.30D+03 IAcc=2 IRadAn=         4 AccDes= 0.00D+00
 Harris functional with IExCor=  402 and IRadAn=       4 diagonalized for initial guess.
 HarFok:  IExCor=  402 AccDes= 0.00D+00 IRadAn=         4 IDoV= 1 UseB2=F ITyADJ=14
 ICtDFT=  3500011 ScaDFX=  1.000000  1.000000  1.000000  1.000000
 FoFCou: FMM=F IPFlag=           0 FMFlag=      100000 FMFlg1=           0
         NFxFlg=           0 DoJE=T BraDBF=F KetDBF=T FulRan=T
         wScrn=  0.000000 ICntrl=     500 IOpCl=  0 I1Cent=   200000004 NGrid=           0
         NMat0=    1 NMatS0=      1 NMatT0=    0 NMatD0=    1 NMtDS0=    0 NMtDT0=    0
 Petite list used in FoFCou.
 Keep R1 ints in memory in symmetry-blocked form, NReq=4286288.
 Requested convergence on RMS density matrix=1.00D-08 within 128 cycles.
 Requested convergence on MAX density matrix=1.00D-06.
 Requested convergence on             energy=1.00D-06.
 No special actions if energy rises.
 Integral accuracy reduced to 1.0D-05 until final iterations.
 Initial convergence to 1.0D-05 achieved.  Increase integral accuracy.
 SCF Done:  E(RB3LYP) =  -152.911999467     A.U. after   11 cycles
            NFock= 11  Conv=0.22D-08     -V/T= 2.0024
 Calling FoFJK, ICntrl=      2127 FMM=F ISym2X=1 I1Cent= 0 IOpClX= 0 NMat=1 NMatS=1 NMatT=0.
 ***** Axes restored to original set *****
 -------------------------------------------------------------------
 Center     Atomic                   Forces (Hartrees/Bohr)
 Number     Number              X              Y              Z
 -------------------------------------------------------------------
      1        8          -0.007847408    0.000000000   -0.012352979
      2        1           0.017048701    0.000000000   -0.021158700
      3        1           0.000943198    0.000000000    0.002264119
      4        8          -0.005727298    0.000000000    0.021436037
      5        1          -0.000137399    0.000000000    0.000666821
      6        1          -0.004279794    0.000000000    0.009144702
 -------------------------------------------------------------------
 Cartesian Forces:  Max     0.021436037 RMS     0.009289342

 GradGradGradGradGradGradGradGradGradGradGradGradGradGradGradGradGradGrad
 Berny optimization.
 Using GEDIIS/GDIIS optimizer.
 FormGI is forming the generalized inverse of G from B-inverse, IUseBI=4.
 Internal  Forces:  Max     0.031841129 RMS     0.009987156
 Search for a local minimum.
 Step number   2 out of a maximum of   24
 All quantities printed in internal units (Hartrees-Bohrs-Radians)
 Mixed Optimization -- RFO/linear search
 Update second derivatives using D2CorX and points    1    2
 DE= -1.04D-02 DEPred=-1.16D-02 R= 9.03D-01
 TightC=F SS=  1.41D+00  RLast= 3.00D-01 DXNew= 5.0454D-01 9.0000D-01
 Trust test= 9.03D-01 RLast= 3.00D-01 DXMaxT set to 5.05D-01
 The second derivative matrix:
                          R1        R2        R3        R4        R5
           R1           0.57459
           R2          -0.00400   0.55532
           R3          -0.00993  -0.00130   0.09487
           R4           0.00163  -0.00030  -0.00039   0.55486
           R5           0.00239  -0.00061  -0.00322   0.00021   0.55494
           A1          -0.00143   0.00058   0.00515  -0.00015   0.00001
           A2          -0.01171   0.00030  -0.02559  -0.00070  -0.00268
           A3          -0.00531   0.00095   0.00087  -0.00042  -0.00071
           A4           0.02983  -0.00341   0.02474   0.00211   0.00519
           A5           0.00120  -0.00020   0.00006   0.00009   0.00017
           A6           0.00000   0.00000   0.00000   0.00000   0.00000
           A7           0.00000   0.00000   0.00000   0.00000   0.00000
           D1           0.00000   0.00000   0.00000   0.00000   0.00000
           D2           0.00000   0.00000   0.00000   0.00000   0.00000
                          A1        A2        A3        A4        A5
           A1           0.15971
           A2           0.00362   0.14725
           A3           0.00054   0.00202   0.16136
           A4          -0.00565   0.00719  -0.00657   0.01587
           A5          -0.00014  -0.00030  -0.00030   0.00129   0.01564
           A6           0.00000   0.00000   0.00000   0.00000   0.00000
           A7           0.00000   0.00000   0.00000   0.00000   0.00000
           D1           0.00000   0.00000   0.00000   0.00000   0.00000
           D2           0.00000   0.00000   0.00000   0.00000   0.00000
                          A6        A7        D1        D2
           A6           0.00230
           A7           0.00000   0.01558
           D1           0.00000   0.00000   0.00230
           D2           0.00000   0.00000   0.00000   0.01558
 ITU=  1  0
 Use linear search instead of GDIIS.
 Linear search step of   0.600 exceeds DXMaxT=   0.505 but not scaled.
 Quartic linear search produced a step of  2.00000.
 Iteration  1 RMS(Cart)=  0.10876700 RMS(Int)=  0.08494913
 Iteration  2 RMS(Cart)=  0.08906208 RMS(Int)=  0.02960819
 New curvilinear step failed, DQL= 4.47D-02 SP=-8.44D-01.
 ITry= 1 IFail=1 DXMaxC= 4.44D-01 DCOld= 1.00D+10 DXMaxT= 5.05D-01 DXLimC= 3.00D+00 Rises=F
 Iteration  1 RMS(Cart)=  0.10876700 RMS(Int)=  0.08494913
 Iteration  2 RMS(Cart)=  0.08906208 RMS(Int)=  0.02960819
 New curvilinear step failed, DQL= 4.47D-02 SP=-8.44D-01.
 ITry= 2 IFail=1 DXMaxC= 4.44D-01 DCOld= 1.00D+10 DXMaxT= 5.05D-01 DXLimC= 3.00D+00 Rises=F
 Iteration  1 RMS(Cart)=  0.10876700 RMS(Int)=  0.08494913
 Iteration  2 RMS(Cart)=  0.08906208 RMS(Int)=  0.02960819
 New curvilinear step failed, DQL= 4.47D-02 SP=-8.44D-01.
 ITry= 3 IFail=1 DXMaxC= 4.44D-01 DCOld= 1.00D+10 DXMaxT= 5.05D-01 DXLimC= 3.00D+00 Rises=F
 Iteration  1 RMS(Cart)=  0.10876700 RMS(Int)=  0.08494913
 Iteration  2 RMS(Cart)=  0.08906208 RMS(Int)=  0.02960819
 New curvilinear step failed, DQL= 4.47D-02 SP=-8.44D-01.
 ITry= 4 IFail=1 DXMaxC= 4.44D-01 DCOld= 1.00D+10 DXMaxT= 5.05D-01 DXLimC= 3.00D+00 Rises=F
 Iteration  1 RMS(Cart)=  0.10876700 RMS(Int)=  0.08494913
 Iteration  2 RMS(Cart)=  0.08906208 RMS(Int)=  0.02960819
 New curvilinear step failed, DQL= 4.47D-02 SP=-8.44D-01.
 ITry= 5 IFail=1 DXMaxC= 4.44D-01 DCOld= 1.00D+10 DXMaxT= 5.05D-01 DXLimC= 3.00D+00 Rises=F
 Iteration  1 RMS(Cart)=  0.10876700 RMS(Int)=  0.08494913
 Iteration  2 RMS(Cart)=  0.08906208 RMS(Int)=  0.02960819
 New curvilinear step failed, DQL= 4.47D-02 SP=-8.44D-01.
 ITry= 6 IFail=1 DXMaxC= 4.44D-01 DCOld= 1.00D+10 DXMaxT= 5.05D-01 DXLimC= 3.00D+00 Rises=F
 Iteration  1 RMS(Cart)=  0.10876700 RMS(Int)=  0.08494913
 Iteration  2 RMS(Cart)=  0.08906208 RMS(Int)=  0.02960819
 New curvilinear step failed, DQL= 4.47D-02 SP=-8.44D-01.
 ITry= 7 IFail=1 DXMaxC= 4.44D-01 DCOld= 1.00D+10 DXMaxT= 5.05D-01 DXLimC= 3.00D+00 Rises=F
 Iteration  1 RMS(Cart)=  0.10876700 RMS(Int)=  0.08494913
 Iteration  2 RMS(Cart)=  0.08906208 RMS(Int)=  0.02960819
 New curvilinear step failed, DQL= 4.47D-02 SP=-8.44D-01.
 ITry= 8 IFail=1 DXMaxC= 4.44D-01 DCOld= 1.00D+10 DXMaxT= 5.05D-01 DXLimC= 3.00D+00 Rises=F
 Iteration  1 RMS(Cart)=  0.10876700 RMS(Int)=  0.08494913
 Iteration  2 RMS(Cart)=  0.08906208 RMS(Int)=  0.02960819
 New curvilinear step failed, DQL= 4.47D-02 SP=-8.44D-01.
 ITry= 9 IFail=1 DXMaxC= 4.44D-01 DCOld= 1.00D+10 DXMaxT= 5.05D-01 DXLimC= 3.00D+00 Rises=F
 Iteration  1 RMS(Cart)=  0.10876700 RMS(Int)=  0.08494913
 Iteration  2 RMS(Cart)=  0.08906208 RMS(Int)=  0.02960819
 New curvilinear step failed, DQL= 4.47D-02 SP=-8.44D-01.
 ITry=10 IFail=1 DXMaxC= 4.44D-01 DCOld= 1.00D+10 DXMaxT= 5.05D-01 DXLimC= 3.00D+00 Rises=F
 RedQX1 iteration     1 Try  1 RMS(Cart)=  0.04497388 RMS(Int)=  0.12828322 XScale=  4.99448953
 RedQX1 iteration     1 Try  2 RMS(Cart)=  0.04481286 RMS(Int)=  0.09637126 XScale=  2.49408659
 RedQX1 iteration     1 Try  3 RMS(Cart)=  0.04424341 RMS(Int)=  0.06500913 XScale=  1.66032525
 RedQX1 iteration     1 Try  4 RMS(Cart)=  0.04315914 RMS(Int)=  0.03511976 XScale=  1.24296993
 RedQX1 iteration     1 Try  5 RMS(Cart)=  0.04253451 RMS(Int)=  0.04151540 XScale=  1.19756788
 RedQX1 iteration     1 Try  6 RMS(Cart)=  0.06570613 RMS(Int)=  0.07964228 XScale=  1.37401592
 RedQX1 iteration     2 Try  1 RMS(Cart)=  0.02595775 RMS(Int)=  0.09502810 XScale=  1.40803905
 RedQX1 iteration     2 Try  2 RMS(Cart)=  0.03862531 RMS(Int)=  0.11805820 XScale=  1.40178536
 RedQX1 iteration     2 Try  3 RMS(Cart)=  0.06375196 RMS(Int)=  0.15643236 XScale=  1.26056578
 RedQX1 iteration     2 Try  4 RMS(Cart)=  0.12592123 RMS(Int)=  0.23381902 XScale=  0.87638290
 RedQX1 iteration     3 Try  1 RMS(Cart)=  0.05036849 RMS(Int)=  0.18684766 XScale=  1.10320375
 RedQX1 iteration     3 Try  2 RMS(Cart)=  0.07484611 RMS(Int)=  0.23255064 XScale=  0.88531157
 RedQX1 iteration     4 Try  1 RMS(Cart)=  0.05987689 RMS(Int)=  0.22328049 XScale=  0.92578004
 RedQX1 iteration     5 Try  1 RMS(Cart)=  0.01197538 RMS(Int)=  0.19405424 XScale=  1.06642741
 RedQX1 iteration     5 Try  2 RMS(Cart)=  0.01294175 RMS(Int)=  0.20185520 XScale=  1.02748348
 RedQX1 iteration     5 Try  3 RMS(Cart)=  0.01403105 RMS(Int)=  0.21032777 XScale=  0.98654113
 RedQX1 iteration     6 Try  1 RMS(Cart)=  0.01290857 RMS(Int)=  0.20964795 XScale=  0.98977652
 RedQX1 iteration     7 Try  1 RMS(Cart)=  0.00258171 RMS(Int)=  0.20341006 XScale=  1.01987510
 RedQX1 iteration     7 Try  2 RMS(Cart)=  0.00262198 RMS(Int)=  0.20498968 XScale=  1.01219550
 RedQX1 iteration     7 Try  3 RMS(Cart)=  0.00266321 RMS(Int)=  0.20659465 XScale=  1.00444603
 RedQX1 iteration     7 Try  4 RMS(Cart)=  0.00270542 RMS(Int)=  0.20822559 XScale=  0.99662807
 RedQX1 iteration     8 Try  1 RMS(Cart)=  0.00264049 RMS(Int)=  0.20818642 XScale=  0.99681524
 RedQX1 iteration     9 Try  1 RMS(Cart)=  0.00052810 RMS(Int)=  0.20691285 XScale=  1.00291690
 RedQX1 iteration     9 Try  2 RMS(Cart)=  0.00052973 RMS(Int)=  0.20723205 XScale=  1.00138514
 RedQX1 iteration     9 Try  3 RMS(Cart)=  0.00053138 RMS(Int)=  0.20755227 XScale=  0.99985075
 RedQX1 iteration     9 Try  4 RMS(Cart)=  0.00053303 RMS(Int)=  0.20787351 XScale=  0.99831376
 RedQX1 iteration    10 Try  1 RMS(Cart)=  0.00053047 RMS(Int)=  0.20787196 XScale=  0.99832113
 RedQX1 iteration    11 Try  1 RMS(Cart)=  0.00010609 RMS(Int)=  0.20761620 XScale=  0.99954471
 RedQX1 iteration    11 Try  2 RMS(Cart)=  0.00010616 RMS(Int)=  0.20768018 XScale=  0.99923856
 RedQX1 iteration    11 Try  3 RMS(Cart)=  0.00010623 RMS(Int)=  0.20774419 XScale=  0.99893231
 RedQX1 iteration    12 Try  1 RMS(Cart)=  0.00010616 RMS(Int)=  0.20774415 XScale=  0.99893250
 RedQX1 iteration    13 Try  1 RMS(Cart)=  0.00002123 RMS(Int)=  0.20769297 XScale=  0.99917734
 RedQX1 iteration    13 Try  2 RMS(Cart)=  0.00002123 RMS(Int)=  0.20770577 XScale=  0.99911612
 RedQX1 iteration    13 Try  3 RMS(Cart)=  0.00002124 RMS(Int)=  0.20771856 XScale=  0.99905490
 RedQX1 iteration    13 Try  4 RMS(Cart)=  0.00002124 RMS(Int)=  0.20773136 XScale=  0.99899367
 RedQX1 iteration    14 Try  1 RMS(Cart)=  0.00002124 RMS(Int)=  0.20773136 XScale=  0.99899368
 RedQX1 iteration    15 Try  1 RMS(Cart)=  0.00000425 RMS(Int)=  0.20772112 XScale=  0.99904265
 RedQX1 iteration    15 Try  2 RMS(Cart)=  0.00000425 RMS(Int)=  0.20772368 XScale=  0.99903041
 RedQX1 iteration    15 Try  3 RMS(Cart)=  0.00000425 RMS(Int)=  0.20772624 XScale=  0.99901817
 RedQX1 iteration    15 Try  4 RMS(Cart)=  0.00000425 RMS(Int)=  0.20772880 XScale=  0.99900592
 RedQX1 iteration    15 Try  5 RMS(Cart)=  0.00000425 RMS(Int)=  0.20773136 XScale=  0.99899368
 RedQX1 iteration    16 Try  1 RMS(Cart)=  0.00000425 RMS(Int)=  0.20773136 XScale=  0.99899368
 RedQX1 iteration    17 Try  1 RMS(Cart)=  0.00000085 RMS(Int)=  0.20772931 XScale=  0.99900347
 RedQX1 iteration    17 Try  2 RMS(Cart)=  0.00000085 RMS(Int)=  0.20772983 XScale=  0.99900103
 RedQX1 iteration    17 Try  3 RMS(Cart)=  0.00000085 RMS(Int)=  0.20773034 XScale=  0.99899858
 RedQX1 iteration    18 Try  1 RMS(Cart)=  0.00000085 RMS(Int)=  0.20773034 XScale=  0.99899858
 RedQX1 iteration    19 Try  1 RMS(Cart)=  0.00000017 RMS(Int)=  0.20772993 XScale=  0.99900054
 RedQX1 iteration    19 Try  2 RMS(Cart)=  0.00000017 RMS(Int)=  0.20773003 XScale=  0.99900005
 RedQX1 iteration    19 Try  3 RMS(Cart)=  0.00000017 RMS(Int)=  0.20773013 XScale=  0.99899956
 RedQX1 iteration    20 Try  1 RMS(Cart)=  0.00000017 RMS(Int)=  0.20773013 XScale=  0.99899956
 Old curvilinear step not converged, using linear step:
 SCX= 5.39D-01 DXMaxT= 5.05D-01 SCLim= 2.52D-01 Fact= 4.68D-01
 ClnCor:  largest displacement from symmetrization is 8.92D-16 for atom     4.
 TrRot=  0.000000  0.000000  0.000000  0.000000  0.000000  0.000000
 Variable       Old X    -DE/DX   Delta X   Delta X   Delta X     New X
                                 (Linear)    (Quad)   (Total)
    R1        1.84218   0.01099   0.05610   0.00000   0.04386   1.88604
    R2        1.81191  -0.00017  -0.00445   0.00000   0.01049   1.82240
    R3        2.81542   0.03184   0.30182   0.00000   0.15273   2.96816
    R4        1.81600   0.00064   0.00373   0.00000   0.00482   1.82082
    R5        1.81961   0.00258   0.01095   0.00000   0.00658   1.82619
    A1        1.88818  -0.00443  -0.04592   0.00000  -0.01910   1.86908
    A2        1.45633   0.01170   0.11140   0.00000   0.04769   1.50402
    A3        1.89155  -0.00606  -0.03918   0.00000  -0.01836   1.87318
    A4        3.35322   0.00543   0.49430   0.00000   0.22411   3.57733
    A5        3.34787   0.00564   0.07222   0.00000   0.02933   3.37720
    A6        3.14159   0.00000   0.00000   0.00000   0.00000   3.14159
    A7        3.14159   0.00000   0.00000   0.00000   0.00000   3.14159
    D1        3.14159   0.00000   0.00000   0.00000   0.00000   3.14159
    D2        3.14159   0.00000   0.00000   0.00000   0.00000   3.14159
         Item               Value     Threshold  Converged?
 Maximum Force            0.031841     0.000450     NO 
 RMS     Force            0.009987     0.000300     NO 
 Maximum Displacement     0.252309     0.001800     NO 
 RMS     Displacement     0.105339     0.001200     NO 
 Predicted change in Energy=-4.185537D-03
 GradGradGradGradGradGradGradGradGradGradGradGradGradGradGradGradGradGrad

                          Input orientation:                          
 ---------------------------------------------------------------------
 Center     Atomic      Atomic             Coordinates (Angstroms)
 Number     Number       Type             X           Y           Z
 ---------------------------------------------------------------------
      1          8           0       -0.007018    0.000000   -0.025503
      2          1           0        0.271853    0.000000    0.932796
      3          1           0        0.798867    0.000000   -0.555185
      4          8           0        0.033174    0.000000    2.485235
      5          1           0        0.113111    0.000000    3.445452
      6          1           0       -0.910052    0.000000    2.274975
 ---------------------------------------------------------------------
                    Distance matrix (angstroms):
                    1          2          3          4          5
     1  O    0.000000
     2  H    0.998050   0.000000
     3  H    0.964372   1.578553   0.000000
     4  O    2.511059   1.570680   3.135354   0.000000
     5  H    3.473032   2.517665   4.058985   0.963538   0.000000
     6  H    2.471370   1.788392   3.306087   0.966378   1.554631
                    6
     6  H    0.000000
 Stoichiometry    H4O2
 Framework group  CS[SG(H4O2)]
 Deg. of freedom     9
 Full point group                 CS      NOp   2
 Largest Abelian subgroup         CS      NOp   2
 Largest concise Abelian subgroup C1      NOp   1
                         Standard orientation:                         
 ---------------------------------------------------------------------
 Center     Atomic      Atomic             Coordinates (Angstroms)
 Number     Number       Type             X           Y           Z
 ---------------------------------------------------------------------
      1          8           0       -0.010129   -1.314628    0.000000
      2          1           0        0.253368   -0.351989    0.000000
      3          1           0        0.804131   -1.831344    0.000000
      4          8           0       -0.010129    1.196431    0.000000
      5          1           0        0.054429    2.157804    0.000000
      6          1           0       -0.949869    0.971101    0.000000
 ---------------------------------------------------------------------
 Rotational constants (GHZ):    329.3255030      8.4569227      8.2451901
 Standard basis: 6-311+G(d,p) (5D, 7F)
 There are    54 symmetry adapted cartesian basis functions of A'  symmetry.
 There are    16 symmetry adapted cartesian basis functions of A"  symmetry.
 There are    52 symmetry adapted basis functions of A'  symmetry.
 There are    16 symmetry adapted basis functions of A"  symmetry.
    68 basis functions,   104 primitive gaussians,    70 cartesian basis functions
    10 alpha electrons       10 beta electrons
       nuclear repulsion energy        39.3426529153 Hartrees.
 NAtoms=    6 NActive=    6 NUniq=    6 SFac= 1.00D+00 NAtFMM=   60 NAOKFM=F Big=F
 Integral buffers will be    131072 words long.
 Raffenetti 2 integral format.
 Two-electron integral symmetry is turned on.
 One-electron integrals computed using PRISM.
 NBasis=    68 RedAO= T EigKep=  2.29D-03  NBF=    52    16
 NBsUse=    68 1.00D-06 EigRej= -1.00D+00 NBFU=    52    16
 Initial guess from the checkpoint file:  "H20Aggb3lyp.chk"
 B after Tr=     0.000000    0.000000    0.000000
         Rot=    1.000000    0.000000    0.000000    0.000605 Ang=   0.07 deg.
 Initial guess orbital symmetries:
       Occupied  (A') (A') (A') (A') (A') (A') (A') (A") (A') (A")
       Virtual   (A') (A') (A') (A') (A') (A') (A') (A') (A') (A')
                 (A') (A') (A') (A') (A') (A') (A') (A') (A') (A')
                 (A') (A') (A') (A') (A') (A') (A') (A') (A') (A')
                 (A') (A') (A') (A') (A') (A') (A') (A') (A') (A')
                 (A') (A') (A') (A') (A") (A") (A") (A") (A") (A")
                 (A") (A") (A") (A") (A") (A") (A") (A")
 ExpMin= 8.45D-02 ExpMax= 8.59D+03 ExpMxC= 1.30D+03 IAcc=2 IRadAn=         4 AccDes= 0.00D+00
 Harris functional with IExCor=  402 and IRadAn=       4 diagonalized for initial guess.
 HarFok:  IExCor=  402 AccDes= 0.00D+00 IRadAn=         4 IDoV= 1 UseB2=F ITyADJ=14
 ICtDFT=  3500011 ScaDFX=  1.000000  1.000000  1.000000  1.000000
 FoFCou: FMM=F IPFlag=           0 FMFlag=      100000 FMFlg1=           0
         NFxFlg=           0 DoJE=T BraDBF=F KetDBF=T FulRan=T
         wScrn=  0.000000 ICntrl=     500 IOpCl=  0 I1Cent=   200000004 NGrid=           0
         NMat0=    1 NMatS0=      1 NMatT0=    0 NMatD0=    1 NMtDS0=    0 NMtDT0=    0
 Petite list used in FoFCou.
 Keep R1 ints in memory in symmetry-blocked form, NReq=4286288.
 Requested convergence on RMS density matrix=1.00D-08 within 128 cycles.
 Requested convergence on MAX density matrix=1.00D-06.
 Requested convergence on             energy=1.00D-06.
 No special actions if energy rises.
 Integral accuracy reduced to 1.0D-05 until final iterations.
 Initial convergence to 1.0D-05 achieved.  Increase integral accuracy.
 SCF Done:  E(RB3LYP) =  -152.917112940     A.U. after   11 cycles
            NFock= 11  Conv=0.29D-08     -V/T= 2.0030
 Calling FoFJK, ICntrl=      2127 FMM=F ISym2X=1 I1Cent= 0 IOpClX= 0 NMat=1 NMatS=1 NMatT=0.
 ***** Axes restored to original set *****
 -------------------------------------------------------------------
 Center     Atomic                   Forces (Hartrees/Bohr)
 Number     Number              X              Y              Z
 -------------------------------------------------------------------
      1        8           0.006012912    0.000000000    0.009613029
      2        1           0.004270008    0.000000000   -0.032687283
      3        1          -0.003296966    0.000000000    0.003557164
      4        8          -0.008152063    0.000000000    0.016106451
      5        1           0.000996652    0.000000000   -0.002049774
      6        1           0.000169458    0.000000000    0.005460412
 -------------------------------------------------------------------
 Cartesian Forces:  Max     0.032687283 RMS     0.009427188

 GradGradGradGradGradGradGradGradGradGradGradGradGradGradGradGradGradGrad
 Berny optimization.
 Using GEDIIS/GDIIS optimizer.
 FormGI is forming the generalized inverse of G from B-inverse, IUseBI=4.
 Internal  Forces:  Max     0.020352047 RMS     0.007097017
 Search for a local minimum.
 Step number   3 out of a maximum of   24
 All quantities printed in internal units (Hartrees-Bohrs-Radians)
 Mixed Optimization -- RFO/linear search
 Update second derivatives using D2CorX and points    1    2    3
 The second derivative matrix:
                          R1        R2        R3        R4        R5
           R1           0.56909
           R2          -0.00185   0.55610
           R3          -0.02961  -0.00224   0.07397
           R4           0.00118  -0.00005  -0.00232   0.55483
           R5           0.00384  -0.00001  -0.00498   0.00037   0.55554
           A1           0.00139   0.00064   0.00870   0.00012   0.00017
           A2          -0.00583   0.00146  -0.02515  -0.00010  -0.00130
           A3          -0.00427   0.00067   0.00407  -0.00033  -0.00092
           A4           0.01824  -0.00410   0.01332   0.00098   0.00402
           A5           0.00291   0.00011   0.00045   0.00027   0.00053
           A6           0.00000   0.00000   0.00000   0.00000   0.00000
           A7           0.00000   0.00000   0.00000   0.00000   0.00000
           D1           0.00000   0.00000   0.00000   0.00000   0.00000
           D2           0.00000   0.00000   0.00000   0.00000   0.00000
                          A1        A2        A3        A4        A5
           A1           0.15914
           A2           0.00330   0.14966
           A3           0.00008   0.00109   0.16118
           A4          -0.00367   0.00706  -0.00469   0.00969
           A5          -0.00027   0.00028  -0.00057   0.00141   0.01577
           A6           0.00000   0.00000   0.00000   0.00000   0.00000
           A7           0.00000   0.00000   0.00000   0.00000   0.00000
           D1           0.00000   0.00000   0.00000   0.00000   0.00000
           D2           0.00000   0.00000   0.00000   0.00000   0.00000
                          A6        A7        D1        D2
           A6           0.00230
           A7           0.00000   0.01558
           D1           0.00000   0.00000   0.00230
           D2           0.00000   0.00000   0.00000   0.01558
 ITU=  0  1  0
 Use linear search instead of GDIIS.
     Eigenvalues ---    0.00230   0.00230   0.00433   0.01558   0.05784
     Eigenvalues ---    0.07556   0.15938   0.16007   0.55442   0.55473
     Eigenvalues ---    0.55609   0.57277
 RFO step:  Lambda=-5.36783385D-03 EMin= 2.30000000D-03
 Quartic linear search produced a step of  0.98314.
 Iteration  1 RMS(Cart)=  0.12340295 RMS(Int)=  0.04287549
 Iteration  2 RMS(Cart)=  0.04937536 RMS(Int)=  0.00006673
 Iteration  3 RMS(Cart)=  0.00006919 RMS(Int)=  0.00000000
 Iteration  4 RMS(Cart)=  0.00000001 RMS(Int)=  0.00000000
 ClnCor:  largest displacement from symmetrization is 1.37D-09 for atom     1.
 Variable       Old X    -DE/DX   Delta X   Delta X   Delta X     New X
                                 (Linear)    (Quad)   (Total)
    R1        1.88604  -0.01340   0.04312  -0.04347  -0.00036   1.88569
    R2        1.82240  -0.00471   0.01031  -0.01761  -0.00730   1.81510
    R3        2.96816   0.02035   0.15016   0.20787   0.35803   3.32618
    R4        1.82082  -0.00196   0.00474  -0.00648  -0.00174   1.81909
    R5        1.82619  -0.00135   0.00646  -0.00478   0.00169   1.82787
    A1        1.86908  -0.00212  -0.01878  -0.01958  -0.03836   1.83072
    A2        1.50402   0.00715   0.04689   0.08537   0.13226   1.63627
    A3        1.87318  -0.00252  -0.01805   0.00543  -0.01263   1.86056
    A4        3.57733  -0.00009   0.22033  -0.28449  -0.06416   3.51317
    A5        3.37720   0.00463   0.02883   0.09080   0.11963   3.49683
    A6        3.14159   0.00000   0.00000   0.00000   0.00000   3.14159
    A7        3.14159   0.00000   0.00000   0.00000   0.00000   3.14159
    D1        3.14159   0.00000   0.00000   0.00000   0.00000   3.14159
    D2        3.14159   0.00000   0.00000   0.00000   0.00000   3.14159
         Item               Value     Threshold  Converged?
 Maximum Force            0.020352     0.000450     NO 
 RMS     Force            0.007097     0.000300     NO 
 Maximum Displacement     0.358644     0.001800     NO 
 RMS     Displacement     0.160026     0.001200     NO 
 Predicted change in Energy=-4.323281D-03
 GradGradGradGradGradGradGradGradGradGradGradGradGradGradGradGradGradGrad

                          Input orientation:                          
 ---------------------------------------------------------------------
 Center     Atomic      Atomic             Coordinates (Angstroms)
 Number     Number       Type             X           Y           Z
 ---------------------------------------------------------------------
      1          8           0        0.029360    0.000000   -0.162318
      2          1           0        0.243753    0.000000    0.812241
      3          1           0        0.882888    0.000000   -0.602848
      4          8           0       -0.028036    0.000000    2.551271
      5          1           0        0.163400    0.000000    3.494662
      6          1           0       -0.991429    0.000000    2.464762
 ---------------------------------------------------------------------
                    Distance matrix (angstroms):
                    1          2          3          4          5
     1  O    0.000000
     2  H    0.997862   0.000000
     3  H    0.960509   1.552730   0.000000
     4  O    2.714196   1.760141   3.283025   0.000000
     5  H    3.659435   2.683625   4.160199   0.962619   0.000000
     6  H    2.818432   2.063129   3.594899   0.967270   1.547361
                    6
     6  H    0.000000
 Stoichiometry    H4O2
 Framework group  CS[SG(H4O2)]
 Deg. of freedom     9
 Full point group                 CS      NOp   2
 Largest Abelian subgroup         CS      NOp   2
 Largest concise Abelian subgroup C1      NOp   1
                         Standard orientation:                         
 ---------------------------------------------------------------------
 Center     Atomic      Atomic             Coordinates (Angstroms)
 Number     Number       Type             X           Y           Z
 ---------------------------------------------------------------------
      1          8           0       -0.016266   -1.426315    0.000000
      2          1           0        0.218688   -0.456508    0.000000
      3          1           0        0.827756   -1.884796    0.000000
      4          8           0       -0.016266    1.287881    0.000000
      5          1           0        0.195077    2.227013    0.000000
      6          1           0       -0.981273    1.221763    0.000000
 ---------------------------------------------------------------------
 Rotational constants (GHZ):    302.9989742      7.2805238      7.1096906
 Standard basis: 6-311+G(d,p) (5D, 7F)
 There are    54 symmetry adapted cartesian basis functions of A'  symmetry.
 There are    16 symmetry adapted cartesian basis functions of A"  symmetry.
 There are    52 symmetry adapted basis functions of A'  symmetry.
 There are    16 symmetry adapted basis functions of A"  symmetry.
    68 basis functions,   104 primitive gaussians,    70 cartesian basis functions
    10 alpha electrons       10 beta electrons
       nuclear repulsion energy        37.6667166205 Hartrees.
 NAtoms=    6 NActive=    6 NUniq=    6 SFac= 1.00D+00 NAtFMM=   60 NAOKFM=F Big=F
 Integral buffers will be    131072 words long.
 Raffenetti 2 integral format.
 Two-electron integral symmetry is turned on.
 One-electron integrals computed using PRISM.
 NBasis=    68 RedAO= T EigKep=  2.57D-03  NBF=    52    16
 NBsUse=    68 1.00D-06 EigRej= -1.00D+00 NBFU=    52    16
 Initial guess from the checkpoint file:  "H20Aggb3lyp.chk"
 B after Tr=     0.000000    0.000000    0.000000
         Rot=    0.999975    0.000000    0.000000    0.007123 Ang=   0.82 deg.
 Initial guess orbital symmetries:
       Occupied  (A') (A') (A') (A') (A') (A') (A') (A") (A') (A")
       Virtual   (A') (A') (A') (A') (A') (A') (A') (A') (A') (A')
                 (A') (A') (A') (A') (A') (A') (A') (A') (A') (A')
                 (A') (A') (A') (A') (A') (A') (A') (A') (A') (A')
                 (A') (A') (A') (A') (A') (A') (A') (A') (A') (A')
                 (A') (A') (A') (A') (A") (A") (A") (A") (A") (A")
                 (A") (A") (A") (A") (A") (A") (A") (A")
 ExpMin= 8.45D-02 ExpMax= 8.59D+03 ExpMxC= 1.30D+03 IAcc=2 IRadAn=         4 AccDes= 0.00D+00
 Harris functional with IExCor=  402 and IRadAn=       4 diagonalized for initial guess.
 HarFok:  IExCor=  402 AccDes= 0.00D+00 IRadAn=         4 IDoV= 1 UseB2=F ITyADJ=14
 ICtDFT=  3500011 ScaDFX=  1.000000  1.000000  1.000000  1.000000
 FoFCou: FMM=F IPFlag=           0 FMFlag=      100000 FMFlg1=           0
         NFxFlg=           0 DoJE=T BraDBF=F KetDBF=T FulRan=T
         wScrn=  0.000000 ICntrl=     500 IOpCl=  0 I1Cent=   200000004 NGrid=           0
         NMat0=    1 NMatS0=      1 NMatT0=    0 NMatD0=    1 NMtDS0=    0 NMtDT0=    0
 Petite list used in FoFCou.
 Keep R1 ints in memory in symmetry-blocked form, NReq=4286288.
 Requested convergence on RMS density matrix=1.00D-08 within 128 cycles.
 Requested convergence on MAX density matrix=1.00D-06.
 Requested convergence on             energy=1.00D-06.
 No special actions if energy rises.
 Integral accuracy reduced to 1.0D-05 until final iterations.
 Initial convergence to 1.0D-05 achieved.  Increase integral accuracy.
 SCF Done:  E(RB3LYP) =  -152.922610355     A.U. after   11 cycles
            NFock= 11  Conv=0.18D-08     -V/T= 2.0033
 Calling FoFJK, ICntrl=      2127 FMM=F ISym2X=1 I1Cent= 0 IOpClX= 0 NMat=1 NMatS=1 NMatT=0.
 ***** Axes restored to original set *****
 -------------------------------------------------------------------
 Center     Atomic                   Forces (Hartrees/Bohr)
 Number     Number              X              Y              Z
 -------------------------------------------------------------------
      1        8           0.004332360    0.000000000    0.021675110
      2        1          -0.001596021    0.000000000   -0.026606228
      3        1           0.000288008    0.000000000   -0.000685955
      4        8          -0.007016542    0.000000000    0.004371314
      5        1           0.000748643    0.000000000   -0.001422327
      6        1           0.003243552    0.000000000    0.002668086
 -------------------------------------------------------------------
 Cartesian Forces:  Max     0.026606228 RMS     0.008459495

 GradGradGradGradGradGradGradGradGradGradGradGradGradGradGradGradGradGrad
 Berny optimization.
 Using GEDIIS/GDIIS optimizer.
 FormGI is forming the generalized inverse of G from B-inverse, IUseBI=4.
 Internal  Forces:  Max     0.021490800 RMS     0.006173624
 Search for a local minimum.
 Step number   4 out of a maximum of   24
 All quantities printed in internal units (Hartrees-Bohrs-Radians)
 Mixed Optimization -- RFO/linear search
 Update second derivatives using D2CorX and points    2    3    4
 DE= -5.50D-03 DEPred=-4.32D-03 R= 1.27D+00
 TightC=F SS=  1.41D+00  RLast= 4.07D-01 DXNew= 8.4853D-01 1.2215D+00
 Trust test= 1.27D+00 RLast= 4.07D-01 DXMaxT set to 8.49D-01
 The second derivative matrix:
                          R1        R2        R3        R4        R5
           R1           0.63289
           R2          -0.01037   0.55737
           R3           0.01940  -0.00423   0.05541
           R4           0.00325  -0.00030   0.00039   0.55490
           R5           0.01629  -0.00158   0.00298   0.00080   0.55793
           A1          -0.00987   0.00164   0.00722  -0.00037  -0.00182
           A2           0.00637   0.00209  -0.04097   0.00084   0.00034
           A3          -0.01413   0.00164   0.00054  -0.00073  -0.00273
           A4           0.01957  -0.00244  -0.00212   0.00146   0.00377
           A5           0.00938  -0.00040   0.00030   0.00056   0.00165
           A6           0.00000   0.00000   0.00000   0.00000   0.00000
           A7           0.00000   0.00000   0.00000   0.00000   0.00000
           D1           0.00000   0.00000   0.00000   0.00000   0.00000
           D2           0.00000   0.00000   0.00000   0.00000   0.00000
                          A1        A2        A3        A4        A5
           A1           0.16022
           A2           0.00440   0.14080
           A3           0.00130   0.00100   0.16241
           A4          -0.00173   0.00015  -0.00373   0.00539
           A5          -0.00077  -0.00080  -0.00120  -0.00002   0.01597
           A6           0.00000   0.00000   0.00000   0.00000   0.00000
           A7           0.00000   0.00000   0.00000   0.00000   0.00000
           D1           0.00000   0.00000   0.00000   0.00000   0.00000
           D2           0.00000   0.00000   0.00000   0.00000   0.00000
                          A6        A7        D1        D2
           A6           0.00230
           A7           0.00000   0.01558
           D1           0.00000   0.00000   0.00230
           D2           0.00000   0.00000   0.00000   0.01558
 ITU=  1  0  1  0
 Use linear search instead of GDIIS.
     Eigenvalues ---    0.00230   0.00230   0.00447   0.01558   0.03412
     Eigenvalues ---    0.07184   0.15879   0.16062   0.55435   0.55476
     Eigenvalues ---    0.55623   0.63970
 RFO step:  Lambda=-3.46141290D-03 EMin= 2.30000000D-03
 Quartic linear search produced a step of  2.00000.
 Iteration  1 RMS(Cart)=  0.14477324 RMS(Int)=  0.15360960
 Iteration  2 RMS(Cart)=  0.09770184 RMS(Int)=  0.09053825
 Iteration  3 RMS(Cart)=  0.06402245 RMS(Int)=  0.03699609
 Iteration  4 RMS(Cart)=  0.04526548 RMS(Int)=  0.00001638
 Iteration  5 RMS(Cart)=  0.00001805 RMS(Int)=  0.00000000
 Iteration  6 RMS(Cart)=  0.00000000 RMS(Int)=  0.00000000
 ClnCor:  largest displacement from symmetrization is 1.41D-09 for atom     3.
 Variable       Old X    -DE/DX   Delta X   Delta X   Delta X     New X
                                 (Linear)    (Quad)   (Total)
    R1        1.88569  -0.02149  -0.00071  -0.06274  -0.06346   1.82223
    R2        1.81510   0.00057  -0.01460   0.01810   0.00350   1.81860
    R3        3.32618   0.00602   0.71606   0.02317   0.73923   4.06541
    R4        1.81909  -0.00124  -0.00347   0.00019  -0.00328   1.81580
    R5        1.82787  -0.00347   0.00337  -0.01243  -0.00906   1.81882
    A1        1.83072   0.00087  -0.07671   0.02281  -0.05390   1.77682
    A2        1.63627   0.00350   0.26451   0.06379   0.32830   1.96458
    A3        1.86056  -0.00083  -0.02525   0.03327   0.00802   1.86858
    A4        3.51317   0.00087  -0.12832   0.07975  -0.04857   3.46460
    A5        3.49683   0.00268   0.23926   0.09706   0.33632   3.83315
    A6        3.14159   0.00000   0.00000   0.00000   0.00000   3.14159
    A7        3.14159   0.00000   0.00000   0.00000   0.00000   3.14159
    D1        3.14159   0.00000   0.00000   0.00000   0.00000   3.14159
    D2        3.14159   0.00000   0.00000   0.00000   0.00000   3.14159
         Item               Value     Threshold  Converged?
 Maximum Force            0.021491     0.000450     NO 
 RMS     Force            0.006174     0.000300     NO 
 Maximum Displacement     0.754569     0.001800     NO 
 RMS     Displacement     0.311687     0.001200     NO 
 Predicted change in Energy=-5.904058D-03
 GradGradGradGradGradGradGradGradGradGradGradGradGradGradGradGradGradGrad

                          Input orientation:                          
 ---------------------------------------------------------------------
 Center     Atomic      Atomic             Coordinates (Angstroms)
 Number     Number       Type             X           Y           Z
 ---------------------------------------------------------------------
      1          8           0        0.115681    0.000000   -0.386142
      2          1           0        0.233553    0.000000    0.570910
      3          1           0        1.026561    0.000000   -0.696686
      4          8           0       -0.194819    0.000000    2.679153
      5          1           0        0.258328    0.000000    3.526472
      6          1           0       -1.139368    0.000000    2.864062
 ---------------------------------------------------------------------
                    Distance matrix (angstroms):
                    1          2          3          4          5
     1  O    0.000000
     2  H    0.964283   0.000000
     3  H    0.962362   1.495213   0.000000
     4  O    3.080981   2.151324   3.589995   0.000000
     5  H    3.915214   2.955666   4.292465   0.960881   0.000000
     6  H    3.484103   2.672725   4.167755   0.962477   1.546719
                    6
     6  H    0.000000
 Stoichiometry    H4O2
 Framework group  CS[SG(H4O2)]
 Deg. of freedom     9
 Full point group                 CS      NOp   2
 Largest Abelian subgroup         CS      NOp   2
 Largest concise Abelian subgroup C1      NOp   1
                         Standard orientation:                         
 ---------------------------------------------------------------------
 Center     Atomic      Atomic             Coordinates (Angstroms)
 Number     Number       Type             X           Y           Z
 ---------------------------------------------------------------------
      1          8           0       -0.035190   -1.621292    0.000000
      2          1           0        0.178533   -0.680992    0.000000
      3          1           0        0.839756   -2.022054    0.000000
      4          8           0       -0.035190    1.459689    0.000000
      5          1           0        0.501043    2.257026    0.000000
      6          1           0       -0.956294    1.738848    0.000000
 ---------------------------------------------------------------------
 Rotational constants (GHZ):    267.7247364      5.6842412      5.5660644
 Standard basis: 6-311+G(d,p) (5D, 7F)
 There are    54 symmetry adapted cartesian basis functions of A'  symmetry.
 There are    16 symmetry adapted cartesian basis functions of A"  symmetry.
 There are    52 symmetry adapted basis functions of A'  symmetry.
 There are    16 symmetry adapted basis functions of A"  symmetry.
    68 basis functions,   104 primitive gaussians,    70 cartesian basis functions
    10 alpha electrons       10 beta electrons
       nuclear repulsion energy        35.3525376692 Hartrees.
 NAtoms=    6 NActive=    6 NUniq=    6 SFac= 1.00D+00 NAtFMM=   60 NAOKFM=F Big=F
 Integral buffers will be    131072 words long.
 Raffenetti 2 integral format.
 Two-electron integral symmetry is turned on.
 One-electron integrals computed using PRISM.
 NBasis=    68 RedAO= T EigKep=  2.90D-03  NBF=    52    16
 NBsUse=    68 1.00D-06 EigRej= -1.00D+00 NBFU=    52    16
 Initial guess from the checkpoint file:  "H20Aggb3lyp.chk"
 B after Tr=     0.000000    0.000000    0.000000
         Rot=    0.999889    0.000000    0.000000    0.014910 Ang=   1.71 deg.
 Initial guess orbital symmetries:
       Occupied  (A') (A') (A') (A') (A') (A') (A') (A') (A") (A")
       Virtual   (A') (A') (A') (A') (A') (A') (A') (A') (A') (A')
                 (A') (A') (A') (A') (A') (A') (A') (A') (A') (A')
                 (A') (A') (A') (A') (A') (A') (A') (A') (A') (A')
                 (A') (A') (A') (A') (A') (A') (A') (A') (A') (A')
                 (A') (A') (A') (A') (A") (A") (A") (A") (A") (A")
                 (A") (A") (A") (A") (A") (A") (A") (A")
 ExpMin= 8.45D-02 ExpMax= 8.59D+03 ExpMxC= 1.30D+03 IAcc=2 IRadAn=         4 AccDes= 0.00D+00
 Harris functional with IExCor=  402 and IRadAn=       4 diagonalized for initial guess.
 HarFok:  IExCor=  402 AccDes= 0.00D+00 IRadAn=         4 IDoV= 1 UseB2=F ITyADJ=14
 ICtDFT=  3500011 ScaDFX=  1.000000  1.000000  1.000000  1.000000
 FoFCou: FMM=F IPFlag=           0 FMFlag=      100000 FMFlg1=           0
         NFxFlg=           0 DoJE=T BraDBF=F KetDBF=T FulRan=T
         wScrn=  0.000000 ICntrl=     500 IOpCl=  0 I1Cent=   200000004 NGrid=           0
         NMat0=    1 NMatS0=      1 NMatT0=    0 NMatD0=    1 NMtDS0=    0 NMtDT0=    0
 Petite list used in FoFCou.
 Keep R1 ints in memory in symmetry-blocked form, NReq=4286288.
 Requested convergence on RMS density matrix=1.00D-08 within 128 cycles.
 Requested convergence on MAX density matrix=1.00D-06.
 Requested convergence on             energy=1.00D-06.
 No special actions if energy rises.
 Integral accuracy reduced to 1.0D-05 until final iterations.
 Initial convergence to 1.0D-05 achieved.  Increase integral accuracy.
 SCF Done:  E(RB3LYP) =  -152.924270967     A.U. after   11 cycles
            NFock= 11  Conv=0.55D-08     -V/T= 2.0031
 Calling FoFJK, ICntrl=      2127 FMM=F ISym2X=1 I1Cent= 0 IOpClX= 0 NMat=1 NMatS=1 NMatT=0.
 ***** Axes restored to original set *****
 -------------------------------------------------------------------
 Center     Atomic                   Forces (Hartrees/Bohr)
 Number     Number              X              Y              Z
 -------------------------------------------------------------------
      1        8           0.006161670    0.000000000    0.000823476
      2        1          -0.005827128    0.000000000    0.006367952
      3        1          -0.001075497    0.000000000   -0.004990312
      4        8           0.000961175    0.000000000   -0.004352863
      5        1          -0.001160351    0.000000000    0.000966344
      6        1           0.000940130    0.000000000    0.001185403
 -------------------------------------------------------------------
 Cartesian Forces:  Max     0.006367952 RMS     0.003015248

 GradGradGradGradGradGradGradGradGradGradGradGradGradGradGradGradGradGrad
 Berny optimization.
 Using GEDIIS/GDIIS optimizer.
 FormGI is forming the generalized inverse of G from B-inverse, IUseBI=4.
 Internal  Forces:  Max     0.009219151 RMS     0.002787990
 Search for a local minimum.
 Step number   5 out of a maximum of   24
 All quantities printed in internal units (Hartrees-Bohrs-Radians)
 Mixed Optimization -- RFO/linear search
 Update second derivatives using D2CorX and points    4    5
 DE= -1.66D-03 DEPred=-5.90D-03 R= 2.81D-01
 Trust test= 2.81D-01 RLast= 8.81D-01 DXMaxT set to 8.49D-01
 The second derivative matrix:
                          R1        R2        R3        R4        R5
           R1           0.67718
           R2          -0.01024   0.55737
           R3           0.01939  -0.00434   0.03739
           R4           0.00598  -0.00030   0.00041   0.55507
           R5           0.02045  -0.00156   0.00390   0.00105   0.55827
           A1           0.00939   0.00166   0.00176   0.00082   0.00027
           A2           0.01131   0.00203  -0.05301   0.00116   0.00142
           A3          -0.01421   0.00163  -0.00128  -0.00073  -0.00264
           A4           0.01290  -0.00244   0.00218   0.00105   0.00292
           A5           0.00418  -0.00042  -0.00126   0.00025   0.00124
           A6           0.00000   0.00000   0.00000   0.00000   0.00000
           A7           0.00000   0.00000   0.00000   0.00000   0.00000
           D1           0.00000   0.00000   0.00000   0.00000   0.00000
           D2           0.00000   0.00000   0.00000   0.00000   0.00000
                          A1        A2        A3        A4        A5
           A1           0.16693
           A2           0.00289   0.13331
           A3           0.00072  -0.00022   0.16223
           A4          -0.00333   0.00228  -0.00329   0.00536
           A5          -0.00350  -0.00242  -0.00134   0.00114   0.01645
           A6           0.00000   0.00000   0.00000   0.00000   0.00000
           A7           0.00000   0.00000   0.00000   0.00000   0.00000
           D1           0.00000   0.00000   0.00000   0.00000   0.00000
           D2           0.00000   0.00000   0.00000   0.00000   0.00000
                          A6        A7        D1        D2
           A6           0.00230
           A7           0.00000   0.01558
           D1           0.00000   0.00000   0.00230
           D2           0.00000   0.00000   0.00000   0.01558
 ITU=  0  1  0  1  0
 Use linear search instead of GDIIS.
     Eigenvalues ---    0.00230   0.00230   0.00405   0.01284   0.01558
     Eigenvalues ---    0.07109   0.15874   0.16694   0.55474   0.55486
     Eigenvalues ---    0.55659   0.68336
 RFO step:  Lambda=-3.14315200D-04 EMin= 2.30000000D-03
 Quartic linear search produced a step of -0.37459.
 Iteration  1 RMS(Cart)=  0.09567533 RMS(Int)=  0.02027016
 Iteration  2 RMS(Cart)=  0.02654679 RMS(Int)=  0.00000146
 Iteration  3 RMS(Cart)=  0.00000260 RMS(Int)=  0.00000000
 Iteration  4 RMS(Cart)=  0.00000000 RMS(Int)=  0.00000000
 ClnCor:  largest displacement from symmetrization is 3.27D-09 for atom     4.
 Variable       Old X    -DE/DX   Delta X   Delta X   Delta X     New X
                                 (Linear)    (Quad)   (Total)
    R1        1.82223   0.00351   0.02377  -0.00949   0.01428   1.83651
    R2        1.81860   0.00059  -0.00131   0.00079  -0.00052   1.81808
    R3        4.06541  -0.00230  -0.27691   0.00398  -0.27293   3.79248
    R4        1.81580   0.00030   0.00123  -0.00048   0.00075   1.81655
    R5        1.81882  -0.00069   0.00339  -0.00287   0.00052   1.81934
    A1        1.77682   0.00922   0.02019   0.03748   0.05767   1.83449
    A2        1.96458   0.00073  -0.12298   0.01017  -0.11281   1.85176
    A3        1.86858  -0.00171  -0.00300  -0.00963  -0.01263   1.85594
    A4        3.46460  -0.00091   0.01819   0.00599   0.02419   3.48879
    A5        3.83315  -0.00098  -0.12598   0.00054  -0.12545   3.70770
    A6        3.14159   0.00000   0.00000   0.00000   0.00000   3.14159
    A7        3.14159   0.00000   0.00000   0.00000   0.00000   3.14159
    D1        3.14159   0.00000   0.00000   0.00000   0.00000   3.14159
    D2        3.14159   0.00000   0.00000   0.00000   0.00000   3.14159
         Item               Value     Threshold  Converged?
 Maximum Force            0.009219     0.000450     NO 
 RMS     Force            0.002788     0.000300     NO 
 Maximum Displacement     0.270306     0.001800     NO 
 RMS     Displacement     0.113052     0.001200     NO 
 Predicted change in Energy=-3.713966D-04
 GradGradGradGradGradGradGradGradGradGradGradGradGradGradGradGradGradGrad

                          Input orientation:                          
 ---------------------------------------------------------------------
 Center     Atomic      Atomic             Coordinates (Angstroms)
 Number     Number       Type             X           Y           Z
 ---------------------------------------------------------------------
      1          8           0        0.092660    0.000000   -0.297076
      2          1           0        0.244803    0.000000    0.662779
      3          1           0        0.970781    0.000000   -0.690159
      4          8           0       -0.134208    0.000000    2.633561
      5          1           0        0.218879    0.000000    3.527643
      6          1           0       -1.092979    0.000000    2.721022
 ---------------------------------------------------------------------
                    Distance matrix (angstroms):
                    1          2          3          4          5
     1  O    0.000000
     2  H    0.971838   0.000000
     3  H    0.962087   1.535411   0.000000
     4  O    2.939405   2.006896   3.502587   0.000000
     5  H    3.826801   2.864981   4.284298   0.961276   0.000000
     6  H    3.242631   2.454796   3.986886   0.962752   1.540003
                    6
     6  H    0.000000
 Stoichiometry    H4O2
 Framework group  CS[SG(H4O2)]
 Deg. of freedom     9
 Full point group                 CS      NOp   2
 Largest Abelian subgroup         CS      NOp   2
 Largest concise Abelian subgroup C1      NOp   1
                         Standard orientation:                         
 ---------------------------------------------------------------------
 Center     Atomic      Atomic             Coordinates (Angstroms)
 Number     Number       Type             X           Y           Z
 ---------------------------------------------------------------------
      1          8           0       -0.027141   -1.545249    0.000000
      2          1           0        0.198631   -0.600000    0.000000
      3          1           0        0.818022   -2.004934    0.000000
      4          8           0       -0.027141    1.394156    0.000000
      5          1           0        0.393900    2.258319    0.000000
      6          1           0       -0.976301    1.555356    0.000000
 ---------------------------------------------------------------------
 Rotational constants (GHZ):    283.9635670      6.2159632      6.0828105
 Standard basis: 6-311+G(d,p) (5D, 7F)
 There are    54 symmetry adapted cartesian basis functions of A'  symmetry.
 There are    16 symmetry adapted cartesian basis functions of A"  symmetry.
 There are    52 symmetry adapted basis functions of A'  symmetry.
 There are    16 symmetry adapted basis functions of A"  symmetry.
    68 basis functions,   104 primitive gaussians,    70 cartesian basis functions
    10 alpha electrons       10 beta electrons
       nuclear repulsion energy        36.1540188369 Hartrees.
 NAtoms=    6 NActive=    6 NUniq=    6 SFac= 1.00D+00 NAtFMM=   60 NAOKFM=F Big=F
 Integral buffers will be    131072 words long.
 Raffenetti 2 integral format.
 Two-electron integral symmetry is turned on.
 One-electron integrals computed using PRISM.
 NBasis=    68 RedAO= T EigKep=  2.81D-03  NBF=    52    16
 NBsUse=    68 1.00D-06 EigRej= -1.00D+00 NBFU=    52    16
 Initial guess from the checkpoint file:  "H20Aggb3lyp.chk"
 B after Tr=     0.000000    0.000000    0.000000
         Rot=    0.999990    0.000000    0.000000   -0.004546 Ang=  -0.52 deg.
 Initial guess orbital symmetries:
       Occupied  (A') (A') (A') (A') (A') (A') (A') (A') (A") (A")
       Virtual   (A') (A') (A') (A') (A') (A') (A') (A') (A') (A')
                 (A') (A') (A') (A') (A') (A') (A') (A') (A') (A')
                 (A') (A') (A') (A') (A') (A') (A') (A') (A') (A')
                 (A') (A') (A') (A') (A') (A') (A') (A') (A') (A')
                 (A') (A') (A') (A') (A") (A") (A") (A") (A") (A")
                 (A") (A") (A") (A") (A") (A") (A") (A")
 ExpMin= 8.45D-02 ExpMax= 8.59D+03 ExpMxC= 1.30D+03 IAcc=2 IRadAn=         4 AccDes= 0.00D+00
 Harris functional with IExCor=  402 and IRadAn=       4 diagonalized for initial guess.
 HarFok:  IExCor=  402 AccDes= 0.00D+00 IRadAn=         4 IDoV= 1 UseB2=F ITyADJ=14
 ICtDFT=  3500011 ScaDFX=  1.000000  1.000000  1.000000  1.000000
 FoFCou: FMM=F IPFlag=           0 FMFlag=      100000 FMFlg1=           0
         NFxFlg=           0 DoJE=T BraDBF=F KetDBF=T FulRan=T
         wScrn=  0.000000 ICntrl=     500 IOpCl=  0 I1Cent=   200000004 NGrid=           0
         NMat0=    1 NMatS0=      1 NMatT0=    0 NMatD0=    1 NMtDS0=    0 NMtDT0=    0
 Petite list used in FoFCou.
 Keep R1 ints in memory in symmetry-blocked form, NReq=4286288.
 Requested convergence on RMS density matrix=1.00D-08 within 128 cycles.
 Requested convergence on MAX density matrix=1.00D-06.
 Requested convergence on             energy=1.00D-06.
 No special actions if energy rises.
 Integral accuracy reduced to 1.0D-05 until final iterations.
 Initial convergence to 1.0D-05 achieved.  Increase integral accuracy.
 SCF Done:  E(RB3LYP) =  -152.924939626     A.U. after   10 cycles
            NFock= 10  Conv=0.81D-08     -V/T= 2.0032
 Calling FoFJK, ICntrl=      2127 FMM=F ISym2X=1 I1Cent= 0 IOpClX= 0 NMat=1 NMatS=1 NMatT=0.
 ***** Axes restored to original set *****
 -------------------------------------------------------------------
 Center     Atomic                   Forces (Hartrees/Bohr)
 Number     Number              X              Y              Z
 -------------------------------------------------------------------
      1        8           0.001946172    0.000000000    0.003605101
      2        1          -0.000826987    0.000000000   -0.002891697
      3        1          -0.000983497    0.000000000    0.000207976
      4        8          -0.000632429    0.000000000   -0.001485424
      5        1           0.000260685    0.000000000    0.000028250
      6        1           0.000236056    0.000000000    0.000535795
 -------------------------------------------------------------------
 Cartesian Forces:  Max     0.003605101 RMS     0.001287950

 GradGradGradGradGradGradGradGradGradGradGradGradGradGradGradGradGradGrad
 Berny optimization.
 Using GEDIIS/GDIIS optimizer.
 FormGI is forming the generalized inverse of G from B-inverse, IUseBI=4.
 Internal  Forces:  Max     0.003916847 RMS     0.001147356
 Search for a local minimum.
 Step number   6 out of a maximum of   24
 All quantities printed in internal units (Hartrees-Bohrs-Radians)
 Mixed Optimization -- RFO/linear search
 Update second derivatives using D2CorX and points    4    5    6
 DE= -6.69D-04 DEPred=-3.71D-04 R= 1.80D+00
 TightC=F SS=  1.41D+00  RLast= 3.27D-01 DXNew= 1.4270D+00 9.8238D-01
[...]
 Octapole moment (field-independent basis, Debye-Ang**2):
  XXX=              0.4326  YYY=             20.5732  ZZZ=              0.0000  XYY=              7.4340
  XXY=              3.1475  XXZ=              0.0000  XZZ=              0.2735  YZZ=              0.9469
  YYZ=              0.0000  XYZ=              0.0000
 Hexadecapole moment (field-independent basis, Debye-Ang**3):
 XXXX=            -13.3353 YYYY=           -155.2482 ZZZZ=            -15.4175 XXXY=             -2.0656
 XXXZ=              0.0000 YYYX=             -8.5347 YYYZ=              0.0000 ZZZX=              0.0000
 ZZZY=              0.0000 XXYY=            -22.6724 XXZZ=             -5.3622 YYZZ=            -39.2840
 XXYZ=              0.0000 YYXZ=              0.0000 ZZXY=              0.7142
 N-N= 3.636254882170D+01 E-N=-4.345585964702D+02  KE= 1.524525307124D+02
 Symmetry A'   KE= 1.433989252180D+02
 Symmetry A"   KE= 9.053605494353D+00
  Exact polarizability:  15.309  -0.633  18.090   0.000   0.000  13.783
 Approx polarizability:  18.925  -0.665  19.751   0.000   0.000  14.550
 Calling FoFJK, ICntrl=    100127 FMM=F ISym2X=1 I1Cent= 0 IOpClX= 0 NMat=1 NMatS=1 NMatT=0.
 Full mass-weighted force constant matrix:
 Low frequencies --- -175.7145  -53.7602    0.0012    0.0013    0.0014    8.2189
 Low frequencies ---   11.1832   42.8994  144.4217
 ******    2 imaginary frequencies (negative Signs) ****** 
 Diagonal vibrational polarizability:
       40.2866161      75.3117132    3278.8394896
 Harmonic frequencies (cm**-1), IR intensities (KM/Mole), Raman scattering
 activities (A**4/AMU), depolarization ratios for plane and unpolarized
 incident light, reduced masses (AMU), force constants (mDyne/A),
 and normal coordinates:
                      1                      2                      3
                     A"                     A"                     A'
 Frequencies --   -175.6193               -52.5702               144.4093
 Red. masses --      1.1475                 1.0708                 1.4059
 Frc consts  --      0.0209                 0.0017                 0.0173
 IR Inten    --     67.4956               328.8554                54.7245
  Atom  AN      X      Y      Z        X      Y      Z        X      Y      Z
     1   8     0.00   0.00   0.04     0.00   0.00  -0.03    -0.02   0.13   0.00
     2   1     0.00   0.00   0.04     0.00   0.00  -0.11     0.39   0.07   0.00
     3   1     0.00   0.00  -0.44     0.00   0.00   0.65    -0.19  -0.28   0.00
     4   8     0.00   0.00  -0.09     0.00   0.00  -0.06     0.05  -0.09   0.00
     5   1     0.00   0.00   0.88     0.00   0.00   0.14    -0.42   0.28   0.00
     6   1     0.00   0.00   0.16     0.00   0.00   0.73    -0.18  -0.64   0.00
                      4                      5                      6
                     A'                     A'                     A"
 Frequencies --    185.0079               408.7765               496.8696
 Red. masses --      2.5384                 1.0850                 1.0426
 Frc consts  --      0.0512                 0.1068                 0.1516
 IR Inten    --     30.6035               116.6717               162.0749
  Atom  AN      X      Y      Z        X      Y      Z        X      Y      Z
     1   8     0.01   0.21   0.00     0.02   0.03   0.00     0.00   0.00  -0.04
     2   1    -0.27   0.25   0.00     0.56  -0.04   0.00     0.00   0.00   0.99
     3   1     0.12   0.47   0.00    -0.24  -0.59   0.00     0.00   0.00   0.01
     4   8    -0.04  -0.24   0.00    -0.06   0.00   0.00     0.00   0.00  -0.02
     5   1     0.37  -0.56   0.00     0.25  -0.25   0.00     0.00   0.00  -0.06
     6   1     0.16   0.23   0.00     0.09   0.37   0.00     0.00   0.00   0.10
                      7                      8                      9
                     A'                     A'                     A'
 Frequencies --   1618.8307              1640.3391              3732.3316
 Red. masses --      1.0868                 1.0763                 1.0532
 Frc consts  --      1.6781                 1.7063                 8.6440
 IR Inten    --     73.0142                52.7250               266.5941
  Atom  AN      X      Y      Z        X      Y      Z        X      Y      Z
     1   8    -0.01  -0.01   0.00     0.06   0.03   0.00    -0.02  -0.05   0.00
     2   1     0.09   0.00   0.00    -0.75   0.09   0.00     0.08   0.94   0.00
     3   1     0.03   0.07   0.00    -0.25  -0.59   0.00     0.28  -0.15   0.00
     4   8    -0.02   0.07   0.00     0.00   0.01   0.00     0.00   0.00   0.00
     5   1     0.55  -0.44   0.00     0.05  -0.03   0.00     0.02   0.03   0.00
     6   1    -0.27  -0.64   0.00    -0.04  -0.10   0.00    -0.03   0.02   0.00
                     10                     11                     12
                     A'                     A'                     A'
 Frequencies --   3823.1580              3897.5099              3929.0259
 Red. masses --      1.0444                 1.0745                 1.0834
 Frc consts  --      8.9941                 9.6168                 9.8536
 IR Inten    --     13.5179                86.5112                90.0783
  Atom  AN      X      Y      Z        X      Y      Z        X      Y      Z
     1   8     0.00   0.00   0.00     0.05  -0.04   0.00     0.00   0.00   0.00
     2   1     0.00  -0.04   0.00     0.06   0.30   0.00     0.00   0.00   0.00
     3   1    -0.03   0.02   0.00    -0.87   0.38   0.00     0.00   0.00   0.00
     4   8     0.01  -0.05   0.00     0.00   0.00   0.00     0.07   0.02   0.00
     5   1     0.46   0.50   0.00    -0.01  -0.01   0.00    -0.46  -0.57   0.00
     6   1    -0.69   0.25   0.00     0.02   0.00   0.00    -0.63   0.26   0.00

 -------------------
 - Thermochemistry -
 -------------------
 Temperature   298.150 Kelvin.  Pressure   1.00000 Atm.
 Atom     1 has atomic number  8 and mass  15.99491
 Atom     2 has atomic number  1 and mass   1.00783
 Atom     3 has atomic number  1 and mass   1.00783
 Atom     4 has atomic number  8 and mass  15.99491
 Atom     5 has atomic number  1 and mass   1.00783
 Atom     6 has atomic number  1 and mass   1.00783
 Molecular mass:    36.02113 amu.
 Principal axes and moments of inertia in atomic units:
                           1         2         3
     Eigenvalues --     6.81284 284.26040 291.07324
           X           -0.02595   0.99966   0.00000
           Y            0.99966   0.02595   0.00000
           Z            0.00000   0.00000   1.00000
 This molecule is an asymmetric top.
 Rotational symmetry number  1.
 Rotational temperatures (Kelvin)     12.71332     0.30470     0.29757
 Rotational constants (GHZ):         264.90296     6.34890     6.20030
    2 imaginary frequencies ignored.
 Zero-point vibrational energy     118886.4 (Joules/Mol)
                                   28.41454 (Kcal/Mol)
 Warning -- explicit consideration of   4 degrees of freedom as
           vibrations may cause significant error
 Vibrational temperatures:    207.77   266.18   588.14   714.88  2329.13
          (Kelvin)           2360.08  5369.99  5500.66  5607.64  5652.98
 
 Zero-point correction=                           0.045281 (Hartree/Particle)
 Thermal correction to Energy=                    0.049885
 Thermal correction to Enthalpy=                  0.050829
 Thermal correction to Gibbs Free Energy=         0.020293
 Sum of electronic and zero-point Energies=           -152.879880
 Sum of electronic and thermal Energies=              -152.875277
 Sum of electronic and thermal Enthalpies=            -152.874332
 Sum of electronic and thermal Free Energies=         -152.904868
 
                     E (Thermal)             CV                S
                      KCal/Mol        Cal/Mol-Kelvin    Cal/Mol-Kelvin
 Total                   31.303             12.533             64.267
 Electronic               0.000              0.000              0.000
 Translational            0.889              2.981             36.674
 Rotational               0.889              2.981             20.960
 Vibrational             29.526              6.572              6.632
 Vibration     1          0.616              1.909              2.745
 Vibration     2          0.631              1.860              2.277
 Vibration     3          0.773              1.451              0.931
 Vibration     4          0.852              1.257              0.666
                       Q            Log10(Q)             Ln(Q)
 Total Bot       0.463095D-09         -9.334330        -21.493090
 Total V=0       0.311635D+12         11.493646         26.465097
 Vib (Bot)       0.641222D-20        -20.192991        -46.496081
 Vib (Bot)    1  0.140635D+01          0.148094          0.341000
 Vib (Bot)    2  0.108373D+01          0.034923          0.080412
 Vib (Bot)    3  0.433205D+00         -0.363307         -0.836544
 Vib (Bot)    4  0.331695D+00         -0.479261         -1.103539
 Vib (V=0)       0.431504D+01          0.634985          1.462106
 Vib (V=0)    1  0.199259D+01          0.299418          0.689436
 Vib (V=0)    2  0.169352D+01          0.228789          0.526807
 Vib (V=0)    3  0.116156D+01          0.065043          0.149767
 Vib (V=0)    4  0.110002D+01          0.041400          0.095327
 Electronic      0.100000D+01          0.000000          0.000000
 Translational   0.849750D+07          6.929291         15.955283
 Rotational      0.849904D+04          3.929370          9.047708
 ***** Axes restored to original set *****
 -------------------------------------------------------------------
 Center     Atomic                   Forces (Hartrees/Bohr)
 Number     Number              X              Y              Z
 -------------------------------------------------------------------
      1        8           0.000039687    0.000000000    0.000049209
      2        1          -0.000016503    0.000000000   -0.000040729
      3        1          -0.000023942    0.000000000   -0.000012010
      4        8          -0.000005836    0.000000000    0.000001607
      5        1           0.000001955    0.000000000    0.000000350
      6        1           0.000004637    0.000000000    0.000001573
 -------------------------------------------------------------------
 Cartesian Forces:  Max     0.000049209 RMS     0.000019307
 FormGI is forming the generalized inverse of G from B-inverse, IUseBI=4.

 GradGradGradGradGradGradGradGradGradGradGradGradGradGradGradGradGradGrad
 Berny optimization.
 Internal  Forces:  Max     0.000037911 RMS     0.000014175
 Search for a local minimum.
 Step number   1 out of a maximum of    2
 All quantities printed in internal units (Hartrees-Bohrs-Radians)
 Second derivative matrix not updated -- analytic derivatives used.
 The second derivative matrix:
                          R1        R2        R3        R4        R5
           R1           0.51457
           R2          -0.00466   0.54150
           R3           0.01009  -0.00053   0.01070
           R4          -0.00039   0.00002   0.00041   0.54099
           R5          -0.00042   0.00001   0.00077  -0.00492   0.53903
           A1           0.02473   0.02930   0.00246   0.00053   0.00000
           A2          -0.00002  -0.00028  -0.00063  -0.00972  -0.00746
           A3          -0.00218   0.00013   0.00137   0.01805   0.01725
           A4          -0.00128  -0.00077   0.00034  -0.00004   0.00043
           A5          -0.00220  -0.00016   0.00074   0.00832   0.00979
           A6           0.00000   0.00000   0.00000   0.00000   0.00000
           A7           0.00000   0.00000   0.00000   0.00000   0.00000
           D1           0.00000   0.00000   0.00000   0.00000   0.00000
           D2           0.00000   0.00000   0.00000   0.00000   0.00000
                          A1        A2        A3        A4        A5
           A1           0.14452
           A2          -0.00127   0.02139
           A3          -0.00039  -0.03486   0.06896
           A4          -0.00465   0.00343  -0.00091   0.00932
           A5          -0.00166  -0.01347   0.03410   0.00252   0.02062
           A6           0.00000   0.00000   0.00000   0.00000   0.00000
           A7           0.00000   0.00000   0.00000   0.00000   0.00000
           D1           0.00000   0.00000   0.00000   0.00000   0.00000
           D2           0.00000   0.00000   0.00000   0.00000   0.00000
                          A6        A7        D1        D2
           A6           0.00311
           A7          -0.00006  -0.00030
           D1          -0.00106  -0.00038  -0.00034
           D2           0.00008   0.00040   0.00051  -0.00053
 ITU=  0
     Eigenvalues ---   -0.00138  -0.00009   0.00341   0.00410   0.01034
     Eigenvalues ---    0.01262   0.10131   0.14091   0.51616   0.53713
     Eigenvalues ---    0.54394   0.54507
 Eigenvalue     1 is  -1.38D-03 should be greater than     0.000000 Eigenvector:
                          D1        D2        A7        A6        A2
   1                    0.62978  -0.60702   0.45552   0.16555   0.00000
                          A5        A4        R5        R4        A3
   1                    0.00000   0.00000   0.00000   0.00000   0.00000
 Eigenvalue     2 is  -9.03D-05 should be greater than     0.000000 Eigenvector:
                          D1        D2        A7        A6        A2
   1                   -0.72677  -0.52064   0.39070  -0.21931   0.00000
                          A5        A4        R3        R5        R4
   1                    0.00000   0.00000   0.00000   0.00000   0.00000
 Angle between quadratic step and forces=  68.60 degrees.
 Linear search not attempted -- first point.
 Iteration  1 RMS(Cart)=  0.00029135 RMS(Int)=  0.00000006
 Iteration  2 RMS(Cart)=  0.00000006 RMS(Int)=  0.00000000
 ClnCor:  largest displacement from symmetrization is 7.39D-11 for atom     3.
 Variable       Old X    -DE/DX   Delta X   Delta X   Delta X     New X
                                 (Linear)    (Quad)   (Total)
    R1        1.83088  -0.00004   0.00000  -0.00009  -0.00009   1.83079
    R2        1.81586  -0.00002   0.00000  -0.00005  -0.00005   1.81581
    R3        3.69107   0.00000   0.00000   0.00033   0.00033   3.69140
    R4        1.81727   0.00000   0.00000   0.00000   0.00000   1.81727
    R5        1.81849   0.00000   0.00000  -0.00001  -0.00001   1.81849
    A1        1.83805   0.00003   0.00000   0.00024   0.00024   1.83829
    A2        2.02552   0.00000   0.00000   0.00043   0.00043   2.02596
    A3        1.85589   0.00000   0.00000  -0.00001  -0.00001   1.85588
    A4        3.32190   0.00000   0.00000  -0.00024  -0.00024   3.32166
    A5        3.88141   0.00000   0.00000   0.00042   0.00042   3.88184
    A6        3.14159   0.00000   0.00000   0.00000   0.00000   3.14159
    A7        3.14159   0.00000   0.00000   0.00000   0.00000   3.14159
    D1        3.14159   0.00000   0.00000   0.00000   0.00000   3.14159
    D2        3.14159   0.00000   0.00000   0.00000   0.00000   3.14159
         Item               Value     Threshold  Converged?
 Maximum Force            0.000038     0.000450     YES
 RMS     Force            0.000014     0.000300     YES
 Maximum Displacement     0.000757     0.001800     YES
 RMS     Displacement     0.000291     0.001200     YES
 Predicted change in Energy=-7.487219D-09
 Optimization completed.
    -- Stationary point found.
                           ----------------------------
                           !   Optimized Parameters   !
                           ! (Angstroms and Degrees)  !
 --------------------------                            --------------------------
 ! Name  Definition              Value          Derivative Info.                !
 --------------------------------------------------------------------------------
 ! R1    R(1,2)                  0.9689         -DE/DX =    0.0                 !
 ! R2    R(1,3)                  0.9609         -DE/DX =    0.0                 !
 ! R3    R(2,4)                  1.9532         -DE/DX =    0.0                 !
 ! R4    R(4,5)                  0.9617         -DE/DX =    0.0                 !
 ! R5    R(4,6)                  0.9623         -DE/DX =    0.0                 !
 ! A1    A(2,1,3)              105.3126         -DE/DX =    0.0                 !
 ! A2    A(2,4,6)              116.0539         -DE/DX =    0.0                 !
 ! A3    A(5,4,6)              106.3348         -DE/DX =    0.0                 !
 ! A4    L(1,2,4,3,-1)         190.331          -DE/DX =    0.0                 !
 ! A5    L(2,4,5,6,-1)         222.3887         -DE/DX =    0.0                 !
 ! A6    L(1,2,4,3,-2)         180.0            -DE/DX =    0.0                 !
 ! A7    L(2,4,5,6,-2)         180.0            -DE/DX =    0.0                 !
 ! D1    D(3,1,4,6)            180.0            -DE/DX =    0.0                 !
 ! D2    D(2,4,5,6)            180.0            -DE/DX =    0.0                 !
 --------------------------------------------------------------------------------
 GradGradGradGradGradGradGradGradGradGradGradGradGradGradGradGradGradGrad

 1\1\GINC-TC-NODE157\Freq\RB3LYP\6-311+G(d,p)\H4O2\MAXB2\09-Oct-2016\0\
 \#N Geom=AllCheck Guess=TCheck SCRF=Check GenChk RB3LYP/6-311+G(d,p) F
 req\\Title Card Required\\0,1\O,0.1256566123,0.,-0.3180780771\H,0.1336
 115661,0.,0.6507501136\H,1.0503401706,0.,-0.5794422702\O,-0.200880613,
 0.,2.5751240849\H,0.316216299,0.,3.385924727\H,-1.1250080649,0.,2.8434
 912924\\Version=ES64L-G09RevD.01\State=1-A'\HF=-152.9251614\RMSD=1.431
 e-09\RMSF=1.931e-05\ZeroPoint=0.0452814\Thermal=0.0498848\Dipole=0.339
 4939,0.,1.4831278\DipoleDeriv=-0.4081823,0.,0.0833973,0.,-0.7663036,0.
 ,0.1011455,0.,-0.70995,0.2473826,0.,-0.1320549,0.,0.3544089,0.,-0.0909
 498,0.,0.5467103,0.1124695,0.,0.0093272,0.,0.3697762,0.,-0.0438171,0.,
 0.293513,-0.5091315,0.,-0.0203374,0.,-0.72608,0.,-0.0129008,0.,-0.5470
 86,0.306462,0.,0.0037267,0.,0.3873702,0.,-0.0163902,0.,0.1721211,0.250
 9997,0.,0.0559411,0.,0.3808283,0.,0.0629125,0.,0.2446916\Polar=15.4849
 998,0.,13.7831369,-0.9268228,0.,17.9140424\PG=CS [SG(H4O2)]\NImag=2\\0
 .53738365,0.,0.00363910,-0.11502227,0.,0.57942966,-0.04779579,0.,-0.03
 888622,0.05771382,0.,-0.00613327,0.,0.,0.00896460,0.01605245,0.,-0.493
 77471,-0.00945736,0.,0.50496393,-0.49256062,0.,0.15217352,-0.00382567,
 0.,-0.00729167,0.49621864,0.,0.00029927,0.,0.,0.00007750,0.,0.,-0.0002
 1881,0.09647149,0.,-0.07688353,0.04851066,0.,-0.01088311,-0.14401435,0
 .,0.08911123,0.00399509,0.,0.00065875,-0.00767919,0.,0.00226443,0.0001
 2064,0.,-0.00140477,0.67076147,0.,0.00310814,0.,0.,-0.00320468,0.,0.,-
 0.00052871,0.,0.,-0.00077872,0.00297364,0.,-0.00704744,-0.00179352,0.,
 -0.00358253,-0.00060085,0.,-0.00107959,0.08190516,0.,0.49331595,-0.000
 85459,0.,0.00189846,0.00172357,0.,-0.00330496,0.00009092,0.,0.00034747
 ,-0.18196027,0.,-0.18645843,0.20356128,0.,-0.00028221,0.,0.,-0.0005595
 3,0.,0.,0.00037948,0.,0.,0.00146563,0.,0.,-0.00078729,0.00098030,0.,-0
 .00040863,-0.00184770,0.,0.00108353,-0.00012863,0.,-0.00056479,-0.2436
 6639,0.,-0.39323462,0.22971924,0.,0.38522427,-0.00016774,0.,-0.0008222
 4,-0.00013674,0.,0.00173711,-0.00004391,0.,0.00008949,-0.48523774,0.,0
 .10397400,-0.02256091,0.,0.01494318,0.50814703,0.,-0.00063103,0.,0.,0.
 00085538,0.,0.,-0.00000873,0.,0.,-0.00006167,0.,0.,-0.00021608,0.,0.,0
 .00006212,-0.00145562,0.,-0.00131534,0.00347413,0.,0.00219290,-0.00013
 803,0.,0.00029980,0.16024282,0.,-0.08837177,-0.04220179,0.,0.00790025,
 -0.11992153,0.,0.07929415\\-0.00003969,0.,-0.00004921,0.00001650,0.,0.
 00004073,0.00002394,0.,0.00001201,0.00000584,0.,-0.00000161,-0.0000019
 6,0.,-0.00000035,-0.00000464,0.,-0.00000157\\\@


 TIMES HAVE CHANGED. IN THE BIBLE WHEN AN ASS
 SPOKE IT WAS CONSIDERED A MIRACLE.
 Job cpu time:       0 days  0 hours  0 minutes 18.6 seconds.
 File lengths (MBytes):  RWF=      6 Int=      0 D2E=      0 Chk=      2 Scr=      1
 Normal termination of Gaussian 09 at Sun Oct  9 22:27:21 2016.
