 Entering Gaussian System, Link 0=g09
 Initial command:
 /cluster/software/gaussian/gaussian-09-D.01/g09/l1.exe "/local/scratch/maxb2/Gau-18339.inp" -scrdir="/local/scratch/maxb2/"
 Entering Link 1 = /cluster/software/gaussian/gaussian-09-D.01/g09/l1.exe PID=     18340.
  
 Copyright (c) 1988,1990,1992,1993,1995,1998,2003,2009,2013,
            Gaussian, Inc.  All Rights Reserved.
  
 This is part of the Gaussian(R) 09 program.  It is based on
 the Gaussian(R) 03 system (copyright 2003, Gaussian, Inc.),
 the Gaussian(R) 98 system (copyright 1998, Gaussian, Inc.),
 the Gaussian(R) 94 system (copyright 1995, Gaussian, Inc.),
 the Gaussian 92(TM) system (copyright 1992, Gaussian, Inc.),
 the Gaussian 90(TM) system (copyright 1990, Gaussian, Inc.),
 the Gaussian 88(TM) system (copyright 1988, Gaussian, Inc.),
 the Gaussian 86(TM) system (copyright 1986, Carnegie Mellon
 University), and the Gaussian 82(TM) system (copyright 1983,
 Carnegie Mellon University). Gaussian is a federally registered
 trademark of Gaussian, Inc.
  
 This software contains proprietary and confidential information,
 including trade secrets, belonging to Gaussian, Inc.
  
 This software is provided under written license and may be
 used, copied, transmitted, or stored only in accord with that
 written license.
  
 The following legend is applicable only to US Government
 contracts under FAR:
  
                    RESTRICTED RIGHTS LEGEND
  
 Use, reproduction and disclosure by the US Government is
 subject to restrictions as set forth in subparagraphs (a)
 and (c) of the Commercial Computer Software - Restricted
 Rights clause in FAR 52.227-19.
  
 Gaussian, Inc.
 340 Quinnipiac St., Bldg. 40, Wallingford CT 06492
  
  
 ---------------------------------------------------------------
 Warning -- This program may not be used in any manner that
 competes with the business of Gaussian, Inc. or will provide
 assistance to any competitor of Gaussian, Inc.  The licensee
 of this program is prohibited from giving any competitor of
 Gaussian, Inc. access to this program.  By using this program,
 the user acknowledges that Gaussian, Inc. is engaged in the
 business of creating and licensing software in the field of
 computational chemistry and represents and warrants to the
 licensee that it is not a competitor of Gaussian, Inc. and that
 it will not use this program in any manner prohibited above.
 ---------------------------------------------------------------
  

 Cite this work as:
 Gaussian 09, Revision D.01,
 M. J. Frisch, G. W. Trucks, H. B. Schlegel, G. E. Scuseria, 
 M. A. Robb, J. R. Cheeseman, G. Scalmani, V. Barone, B. Mennucci, 
 G. A. Petersson, H. Nakatsuji, M. Caricato, X. Li, H. P. Hratchian, 
 A. F. Izmaylov, J. Bloino, G. Zheng, J. L. Sonnenberg, M. Hada, 
 M. Ehara, K. Toyota, R. Fukuda, J. Hasegawa, M. Ishida, T. Nakajima, 
 Y. Honda, O. Kitao, H. Nakai, T. Vreven, J. A. Montgomery, Jr., 
 J. E. Peralta, F. Ogliaro, M. Bearpark, J. J. Heyd, E. Brothers, 
 K. N. Kudin, V. N. Staroverov, T. Keith, R. Kobayashi, J. Normand, 
 K. Raghavachari, A. Rendell, J. C. Burant, S. S. Iyengar, J. Tomasi, 
 M. Cossi, N. Rega, J. M. Millam, M. Klene, J. E. Knox, J. B. Cross, 
 V. Bakken, C. Adamo, J. Jaramillo, R. Gomperts, R. E. Stratmann, 
 O. Yazyev, A. J. Austin, R. Cammi, C. Pomelli, J. W. Ochterski, 
 R. L. Martin, K. Morokuma, V. G. Zakrzewski, G. A. Voth, 
 P. Salvador, J. J. Dannenberg, S. Dapprich, A. D. Daniels, 
 O. Farkas, J. B. Foresman, J. V. Ortiz, J. Cioslowski, 
 and D. J. Fox, Gaussian, Inc., Wallingford CT, 2013.
 
 ******************************************
 Gaussian 09:  ES64L-G09RevD.01 24-Apr-2013
                 9-Oct-2016 
 ******************************************
 %mem=6GB
 %nprocshared=2
 Will use up to    2 processors via shared memory.
 %chk=H20Aggmp2
 ------------------------------------------------
 # opt freq mp2(full)/6-311+g** geom=connectivity
 ------------------------------------------------
 1/18=20,19=15,38=1,57=2/1,3;
 2/9=110,12=2,17=6,18=5,40=1/2;
 3/5=4,6=6,7=111,11=9,16=1,25=1,30=1,71=1/1,2,3;
 4//1;
 5/5=2,38=5/2;
 8/6=4,10=90/1;
 9/15=2,16=-3/6;
 10/5=1/2;
 6/7=2,8=2,9=2,10=2/1;
 7/12=2/1,2,3,16;
 1/18=20,19=15/3(2);
 2/9=110/2;
 99//99;
 2/9=110/2;
 3/5=4,6=6,7=111,11=9,16=1,25=1,30=1,71=1/1,2,3;
 4/5=5,16=3,69=1/1;
 5/5=2,38=5/2;
 8/6=4,10=90/1;
 9/15=2,16=-3/6;
 10/5=1/2;
 7/12=2/1,2,3,16;
 1/18=20,19=15/3(-8);
 2/9=110/2;
 6/7=2,8=2,9=2,10=2/1;
 99//99;
 -------------------
 Title Card Required
 -------------------
 Symbolic Z-matrix:
 Charge =  0 Multiplicity = 1
 O
 H                    1    B1
 H                    1    B2       2    A1
 O                    1    B3       2    A2       3    D1       0
 H                    4    B4       1    A3       2    D2       0
 H                    4    B5       1    A4       2    D3       0
       Variables:
  B1                    0.96                     
  B2                    0.96                     
  B3                    2.36964                  
  B4                    0.96                     
  B5                    0.96                     
  A1                  109.5                      
  A2                    1.21094                  
  A3                  169.42556                  
  A4                   81.07444                  
  D1                    0.                       
  D2                  180.                       
  D3                    0.                       
 

 GradGradGradGradGradGradGradGradGradGradGradGradGradGradGradGradGradGrad
 Berny optimization.
 Initialization pass.
                           ----------------------------
                           !    Initial Parameters    !
                           ! (Angstroms and Degrees)  !
 --------------------------                            --------------------------
 ! Name  Definition              Value          Derivative Info.                !
 --------------------------------------------------------------------------------
 ! R1    R(1,2)                  0.96           estimate D2E/DX2                !
 ! R2    R(1,3)                  0.96           estimate D2E/DX2                !
 ! R3    R(2,4)                  1.41           estimate D2E/DX2                !
 ! R4    R(4,5)                  0.96           estimate D2E/DX2                !
 ! R5    R(4,6)                  0.96           estimate D2E/DX2                !
 ! A1    A(2,1,3)              109.5            estimate D2E/DX2                !
 ! A2    A(2,4,6)               80.25           estimate D2E/DX2                !
 ! A3    A(5,4,6)              109.5            estimate D2E/DX2                !
 ! A4    L(1,2,4,3,-1)         177.9646         estimate D2E/DX2                !
 ! A5    L(2,4,5,6,-1)         189.75           estimate D2E/DX2                !
 ! A6    L(1,2,4,3,-2)         180.0            estimate D2E/DX2                !
 ! A7    L(2,4,5,6,-2)         180.0            estimate D2E/DX2                !
 ! D1    D(3,1,4,6)            180.0            estimate D2E/DX2                !
 ! D2    D(2,4,5,6)            180.0            estimate D2E/DX2                !
 --------------------------------------------------------------------------------
 Trust Radius=3.00D-01 FncErr=1.00D-07 GrdErr=1.00D-07
 Number of steps in this run=     24 maximum allowed number of steps=    100.
 GradGradGradGradGradGradGradGradGradGradGradGradGradGradGradGradGradGrad

                          Input orientation:                          
 ---------------------------------------------------------------------
 Center     Atomic      Atomic             Coordinates (Angstroms)
 Number     Number       Type             X           Y           Z
 ---------------------------------------------------------------------
      1          8           0        0.000000    0.000000    0.000000
      2          1           0        0.000000    0.000000    0.960000
      3          1           0        0.904936    0.000000   -0.320455
      4          8           0        0.050078    0.000000    2.369110
      5          1           0        0.246155    0.000000    3.308873
      6          1           0       -0.901233    0.000000    2.240241
 ---------------------------------------------------------------------
                    Distance matrix (angstroms):
                    1          2          3          4          5
     1  O    0.000000
     2  H    0.960000   0.000000
     3  H    0.960000   1.567952   0.000000
     4  O    2.369640   1.410000   2.822152   0.000000
     5  H    3.318017   2.361736   3.688633   0.960000   0.000000
     6  H    2.414726   1.565643   3.133593   0.960000   1.567952
                    6
     6  H    0.000000
 Stoichiometry    H4O2
 Framework group  CS[SG(H4O2)]
 Deg. of freedom     9
 Full point group                 CS      NOp   2
 Largest Abelian subgroup         CS      NOp   2
 Largest concise Abelian subgroup C1      NOp   1
                         Standard orientation:                         
 ---------------------------------------------------------------------
 Center     Atomic      Atomic             Coordinates (Angstroms)
 Number     Number       Type             X           Y           Z
 ---------------------------------------------------------------------
      1          8           0       -0.005951   -1.257484    0.000000
      2          1           0       -0.026239   -0.297698    0.000000
      3          1           0        0.905555   -1.558742    0.000000
      4          8           0       -0.005951    1.112156    0.000000
      5          1           0        0.170221    2.055853    0.000000
      6          1           0       -0.954326    0.963211    0.000000
 ---------------------------------------------------------------------
 Rotational constants (GHZ):    297.5411786      9.5627892      9.2650172
 Standard basis: 6-311+G(d,p) (5D, 7F)
 There are    54 symmetry adapted cartesian basis functions of A'  symmetry.
 There are    16 symmetry adapted cartesian basis functions of A"  symmetry.
 There are    52 symmetry adapted basis functions of A'  symmetry.
 There are    16 symmetry adapted basis functions of A"  symmetry.
    68 basis functions,   104 primitive gaussians,    70 cartesian basis functions
    10 alpha electrons       10 beta electrons
       nuclear repulsion energy        41.0123592975 Hartrees.
 NAtoms=    6 NActive=    6 NUniq=    6 SFac= 1.00D+00 NAtFMM=   60 NAOKFM=F Big=F
 Integral buffers will be    131072 words long.
 Raffenetti 1 integral format.
 Two-electron integral symmetry is turned on.
 One-electron integrals computed using PRISM.
 NBasis=    68 RedAO= T EigKep=  1.54D-03  NBF=    52    16
 NBsUse=    68 1.00D-06 EigRej= -1.00D+00 NBFU=    52    16
 ExpMin= 8.45D-02 ExpMax= 8.59D+03 ExpMxC= 1.30D+03 IAcc=2 IRadAn=         4 AccDes= 0.00D+00
 Harris functional with IExCor=  205 and IRadAn=       4 diagonalized for initial guess.
 HarFok:  IExCor=  205 AccDes= 0.00D+00 IRadAn=         4 IDoV= 1 UseB2=F ITyADJ=14
 ICtDFT=  3500011 ScaDFX=  1.000000  1.000000  1.000000  1.000000
 FoFCou: FMM=F IPFlag=           0 FMFlag=      100000 FMFlg1=           0
         NFxFlg=           0 DoJE=T BraDBF=F KetDBF=T FulRan=T
         wScrn=  0.000000 ICntrl=     500 IOpCl=  0 I1Cent=   200000004 NGrid=           0
         NMat0=    1 NMatS0=      1 NMatT0=    0 NMatD0=    1 NMtDS0=    0 NMtDT0=    0
 Petite list used in FoFCou.
 Initial guess orbital symmetries:
       Occupied  (A') (A') (A') (A') (A') (A') (A') (A') (A") (A")
       Virtual   (A') (A') (A') (A") (A') (A') (A') (A") (A') (A')
                 (A') (A') (A') (A') (A') (A') (A') (A") (A') (A')
                 (A") (A') (A") (A') (A") (A') (A') (A") (A') (A")
                 (A') (A') (A') (A') (A') (A') (A') (A') (A') (A")
                 (A') (A") (A") (A") (A') (A') (A') (A') (A') (A')
                 (A") (A") (A') (A') (A') (A') (A') (A')
 The electronic state of the initial guess is 1-A'.
 Keep R1 ints in memory in symmetry-blocked form, NReq=4286288.
 Requested convergence on RMS density matrix=1.00D-08 within 128 cycles.
 Requested convergence on MAX density matrix=1.00D-06.
 Requested convergence on             energy=1.00D-06.
 No special actions if energy rises.
 SCF Done:  E(RHF) =  -152.085143677     A.U. after   11 cycles
            NFock= 11  Conv=0.52D-08     -V/T= 1.9997
 Range of M.O.s used for correlation:     1    68
 NBasis=    68 NAE=    10 NBE=    10 NFC=     0 NFV=     0
 NROrb=     68 NOA=    10 NOB=    10 NVA=    58 NVB=    58

 **** Warning!!: The largest alpha MO coefficient is  0.12993458D+02

 Fully direct method using O(ONN) memory.
 JobTyp=1 Pass  1:  I=   1 to  10 NPSUse=  2 ParTrn=T ParDer=T DoDerP=T.
 Spin components of T(2) and E(2):
     alpha-alpha T2 =       0.1439781349D-01 E2=     -0.6018487121D-01
     alpha-beta  T2 =       0.8194168995D-01 E2=     -0.3662918880D+00
     beta-beta   T2 =       0.1439781349D-01 E2=     -0.6018487121D-01
 ANorm=    0.1053915232D+01
 E2 =    -0.4866616305D+00 EUMP2 =    -0.15257180530748D+03
          IDoAtm=111111
          Differentiating once with respect to electric field.
                with respect to dipole field.
          Differentiating once with respect to nuclear coordinates.
 Keep R1 ints in memory in symmetry-blocked form, NReq=4253041.
          There are     1 degrees of freedom in the 1st order CPHF.  IDoFFX=0 NUNeed=     1.
 LinEq1:  Iter=  0 NonCon=     1 RMS=5.81D-03 Max=6.19D-02 NDo=     1
 AX will form     1 AO Fock derivatives at one time.
 LinEq1:  Iter=  1 NonCon=     1 RMS=5.58D-04 Max=3.84D-03 NDo=     1
 LinEq1:  Iter=  2 NonCon=     1 RMS=8.55D-05 Max=9.14D-04 NDo=     1
 LinEq1:  Iter=  3 NonCon=     1 RMS=2.31D-05 Max=1.40D-04 NDo=     1
 LinEq1:  Iter=  4 NonCon=     1 RMS=5.92D-06 Max=3.90D-05 NDo=     1
 LinEq1:  Iter=  5 NonCon=     1 RMS=1.44D-06 Max=8.43D-06 NDo=     1
 LinEq1:  Iter=  6 NonCon=     1 RMS=4.13D-07 Max=3.16D-06 NDo=     1
 LinEq1:  Iter=  7 NonCon=     1 RMS=1.68D-07 Max=9.13D-07 NDo=     1
 LinEq1:  Iter=  8 NonCon=     1 RMS=2.61D-08 Max=1.86D-07 NDo=     1
 LinEq1:  Iter=  9 NonCon=     1 RMS=4.78D-09 Max=3.34D-08 NDo=     1
 LinEq1:  Iter= 10 NonCon=     1 RMS=8.21D-10 Max=6.29D-09 NDo=     1
 LinEq1:  Iter= 11 NonCon=     1 RMS=1.06D-10 Max=5.35D-10 NDo=     1
 LinEq1:  Iter= 12 NonCon=     0 RMS=1.49D-11 Max=9.70D-11 NDo=     1
 Linear equations converged to 1.000D-10 1.000D-09 after    12 iterations.
 End of Minotr F.D. properties file   721 does not exist.
 End of Minotr F.D. properties file   722 does not exist.
 End of Minotr F.D. properties file   788 does not exist.

 **********************************************************************

            Population analysis using the SCF density.

 **********************************************************************

 Orbital symmetries:
       Occupied  (A') (A') (A') (A') (A') (A') (A') (A") (A') (A")
       Virtual   (A') (A') (A') (A') (A") (A') (A') (A") (A') (A')
                 (A') (A') (A') (A') (A') (A') (A') (A") (A') (A')
                 (A") (A') (A") (A') (A") (A') (A") (A') (A') (A")
                 (A') (A') (A') (A') (A') (A') (A') (A') (A') (A')
                 (A") (A") (A") (A') (A") (A') (A') (A') (A') (A')
                 (A") (A") (A') (A') (A') (A') (A') (A')
 The electronic state is 1-A'.
 Alpha  occ. eigenvalues --  -20.60426 -20.50713  -1.41008  -1.30262  -0.80425
 Alpha  occ. eigenvalues --   -0.69896  -0.61605  -0.55953  -0.51212  -0.45914
 Alpha virt. eigenvalues --    0.11593   0.16530   0.19727   0.22838   0.23009
 Alpha virt. eigenvalues --    0.25158   0.27204   0.29594   0.30038   0.35252
 Alpha virt. eigenvalues --    0.44260   0.54656   0.60926   0.68421   0.72916
 Alpha virt. eigenvalues --    0.86174   1.12352   1.18189   1.19840   1.26696
 Alpha virt. eigenvalues --    1.30970   1.32210   1.42552   1.50705   1.55159
 Alpha virt. eigenvalues --    1.63965   1.69274   1.69878   1.79495   1.85623
 Alpha virt. eigenvalues --    1.86471   2.09411   2.23626   2.37016   2.43383
 Alpha virt. eigenvalues --    2.56404   2.80413   2.87837   2.94874   3.25500
 Alpha virt. eigenvalues --    3.38100   3.47007   3.53734   3.64965   3.66106
 Alpha virt. eigenvalues --    3.79089   4.04563   4.14161   4.29008   4.68685
 Alpha virt. eigenvalues --    5.44821   5.55756   5.80977   5.98726   6.16623
 Alpha virt. eigenvalues --    6.60172  51.57127  51.70927
          Condensed to atoms (all electrons):
               1          2          3          4          5          6
     1  O    8.189996   0.215895   0.332860   0.035828   0.005873   0.002486
     2  H    0.215895   0.385817  -0.026236  -0.168441   0.005613   0.002707
     3  H    0.332860  -0.026236   0.426220   0.004873  -0.000917  -0.000187
     4  O    0.035828  -0.168441   0.004873   8.139742   0.336342   0.334971
     5  H    0.005873   0.005613  -0.000917   0.336342   0.332493  -0.019072
     6  H    0.002486   0.002707  -0.000187   0.334971  -0.019072   0.400546
 Mulliken charges:
               1
     1  O   -0.782938
     2  H    0.584646
     3  H    0.263388
     4  O   -0.683314
     5  H    0.339669
     6  H    0.278549
 Sum of Mulliken charges =   0.00000
 Mulliken charges with hydrogens summed into heavy atoms:
               1
     1  O    0.065096
     4  O   -0.065096
 Electronic spatial extent (au):  <R**2>=            140.3131
 Charge=              0.0000 electrons
 Dipole moment (field-independent basis, Debye):
    X=              0.2824    Y=              3.7895    Z=              0.0000  Tot=              3.8000
 Quadrupole moment (field-independent basis, Debye-Ang):
   XX=            -10.1056   YY=             -9.9573   ZZ=            -15.0621
   XY=             -3.8869   XZ=              0.0000   YZ=              0.0000
 Traceless Quadrupole moment (field-independent basis, Debye-Ang):
   XX=              1.6027   YY=              1.7510   ZZ=             -3.3538
   XY=             -3.8869   XZ=              0.0000   YZ=              0.0000
 Octapole moment (field-independent basis, Debye-Ang**2):
  XXX=             -0.2189  YYY=             19.0623  ZZZ=              0.0000  XYY=              5.8209
  XXY=              0.4455  XXZ=              0.0000  XZZ=              0.0774  YZZ=              1.1103
  YYZ=              0.0000  XYZ=              0.0000
 Hexadecapole moment (field-independent basis, Debye-Ang**3):
 XXXX=            -11.1483 YYYY=            -97.2327 ZZZZ=            -13.2107 XXXY=             -2.0371
 XXXZ=              0.0000 YYYX=             -3.3373 YYYZ=              0.0000 ZZZX=              0.0000
 ZZZY=              0.0000 XXYY=            -18.7049 XXZZ=             -4.7202 YYZZ=            -26.4253
 XXYZ=              0.0000 YYXZ=              0.0000 ZZXY=              0.7058
 N-N= 4.101235929753D+01 E-N=-4.433800021429D+02  KE= 1.521332715936D+02
 Symmetry A'   KE= 1.432324616446D+02
 Symmetry A"   KE= 8.900809949002D+00
 Calling FoFJK, ICntrl=  10002127 FMM=F ISym2X=1 I1Cent= 0 IOpClX= 0 NMat=1 NMatS=1 NMatT=0.
 ***** Axes restored to original set *****
 -------------------------------------------------------------------
 Center     Atomic                   Forces (Hartrees/Bohr)
 Number     Number              X              Y              Z
 -------------------------------------------------------------------
      1        8          -0.011908402    0.000000000   -0.035141863
      2        1           0.028574407    0.000000000   -0.024113420
      3        1          -0.003761667    0.000000000    0.008816419
      4        8          -0.003379856    0.000000000    0.034179960
      5        1          -0.004437059    0.000000000   -0.000423583
      6        1          -0.005087423    0.000000000    0.016682485
 -------------------------------------------------------------------
 Cartesian Forces:  Max     0.035141863 RMS     0.015581936

 GradGradGradGradGradGradGradGradGradGradGradGradGradGradGradGradGradGrad
 Berny optimization.
 FormGI is forming the generalized inverse of G from B-inverse, IUseBI=4.
 Internal  Forces:  Max     0.049948723 RMS     0.017272669
 Search for a local minimum.
 Step number   1 out of a maximum of   24
 All quantities printed in internal units (Hartrees-Bohrs-Radians)
 Mixed Optimization -- RFO/linear search
 Second derivative matrix not updated -- first step.
 The second derivative matrix:
                          R1        R2        R3        R4        R5
           R1           0.55473
           R2           0.00000   0.55473
           R3           0.00000   0.00000   0.14022
           R4           0.00000   0.00000   0.00000   0.55473
           R5           0.00000   0.00000   0.00000   0.00000   0.55473
           A1           0.00000   0.00000   0.00000   0.00000   0.00000
           A2           0.00000   0.00000   0.00000   0.00000   0.00000
           A3           0.00000   0.00000   0.00000   0.00000   0.00000
           A4           0.00000   0.00000   0.00000   0.00000   0.00000
           A5           0.00000   0.00000   0.00000   0.00000   0.00000
           A6           0.00000   0.00000   0.00000   0.00000   0.00000
           A7           0.00000   0.00000   0.00000   0.00000   0.00000
           D1           0.00000   0.00000   0.00000   0.00000   0.00000
           D2           0.00000   0.00000   0.00000   0.00000   0.00000
                          A1        A2        A3        A4        A5
           A1           0.16000
           A2           0.00000   0.16000
           A3           0.00000   0.00000   0.16000
           A4           0.00000   0.00000   0.00000   0.00230
           A5           0.00000   0.00000   0.00000   0.00000   0.01558
           A6           0.00000   0.00000   0.00000   0.00000   0.00000
           A7           0.00000   0.00000   0.00000   0.00000   0.00000
           D1           0.00000   0.00000   0.00000   0.00000   0.00000
           D2           0.00000   0.00000   0.00000   0.00000   0.00000
                          A6        A7        D1        D2
           A6           0.00230
           A7           0.00000   0.01558
           D1           0.00000   0.00000   0.00230
           D2           0.00000   0.00000   0.00000   0.01558
 ITU=  0
     Eigenvalues ---    0.00230   0.00230   0.00230   0.01558   0.06372
     Eigenvalues ---    0.14022   0.16000   0.16000   0.55473   0.55473
     Eigenvalues ---    0.55473   0.55473
 RFO step:  Lambda=-2.80642683D-02 EMin= 2.30000000D-03
 Linear search not attempted -- first point.
 Maximum step size (   0.300) exceeded in Quadratic search.
    -- Step size scaled by   0.488
 Iteration  1 RMS(Cart)=  0.09929300 RMS(Int)=  0.01613337
 Iteration  2 RMS(Cart)=  0.02454533 RMS(Int)=  0.00049674
 Iteration  3 RMS(Cart)=  0.00068091 RMS(Int)=  0.00000005
 Iteration  4 RMS(Cart)=  0.00000005 RMS(Int)=  0.00000000
 ClnCor:  largest displacement from symmetrization is 1.47D-11 for atom     3.
 Variable       Old X    -DE/DX   Delta X   Delta X   Delta X     New X
                                 (Linear)    (Quad)   (Total)
    R1        1.81414   0.02633   0.00000   0.02202   0.02202   1.83616
    R2        1.81414  -0.00649   0.00000  -0.00543  -0.00543   1.80871
    R3        2.66451   0.04995   0.00000   0.14472   0.14472   2.80924
    R4        1.81414  -0.00132   0.00000  -0.00111  -0.00111   1.81303
    R5        1.81414   0.00280   0.00000   0.00234   0.00234   1.81648
    A1        1.91114  -0.01280   0.00000  -0.03318  -0.03318   1.87795
    A2        1.40063   0.01825   0.00000   0.05446   0.05446   1.45508
    A3        1.91114  -0.01298   0.00000  -0.02651  -0.02651   1.88463
    A4        3.10607   0.01563   0.00000   0.25096   0.25096   3.35703
    A5        3.31176   0.00526   0.00000   0.02795   0.02795   3.33971
    A6        3.14159   0.00000   0.00000   0.00000   0.00000   3.14159
    A7        3.14159   0.00000   0.00000   0.00000   0.00000   3.14159
    D1        3.14159   0.00000   0.00000   0.00000   0.00000   3.14159
    D2        3.14159   0.00000   0.00000   0.00000   0.00000   3.14159
         Item               Value     Threshold  Converged?
 Maximum Force            0.049949     0.000450     NO 
 RMS     Force            0.017273     0.000300     NO 
 Maximum Displacement     0.263587     0.001800     NO 
 RMS     Displacement     0.114251     0.001200     NO 
 Predicted change in Energy=-1.161059D-02
 GradGradGradGradGradGradGradGradGradGradGradGradGradGradGradGradGradGrad

                          Input orientation:                          
 ---------------------------------------------------------------------
 Center     Atomic      Atomic             Coordinates (Angstroms)
 Number     Number       Type             X           Y           Z
 ---------------------------------------------------------------------
      1          8           0       -0.007325    0.000000   -0.015030
      2          1           0        0.139484    0.000000    0.945470
      3          1           0        0.850809    0.000000   -0.438940
      4          8           0        0.044752    0.000000    2.429033
      5          1           0        0.173264    0.000000    3.379802
      6          1           0       -0.901048    0.000000    2.257435
 ---------------------------------------------------------------------
                    Distance matrix (angstroms):
                    1          2          3          4          5
     1  O    0.000000
     2  H    0.971655   0.000000
     3  H    0.957127   1.556462   0.000000
     4  O    2.444618   1.486585   2.979094   0.000000
     5  H    3.399632   2.434567   3.878384   0.959415   0.000000
     6  H    2.441893   1.674503   3.215500   0.961240   1.553658
                    6
     6  H    0.000000
 Stoichiometry    H4O2
 Framework group  CS[SG(H4O2)]
 Deg. of freedom     9
 Full point group                 CS      NOp   2
 Largest Abelian subgroup         CS      NOp   2
 Largest concise Abelian subgroup C1      NOp   1
                         Standard orientation:                         
 ---------------------------------------------------------------------
 Center     Atomic      Atomic             Coordinates (Angstroms)
 Number     Number       Type             X           Y           Z
 ---------------------------------------------------------------------
      1          8           0       -0.007979   -1.288282    0.000000
      2          1           0        0.118335   -0.324873    0.000000
      3          1           0        0.858990   -1.693815    0.000000
      4          8           0       -0.007979    1.156336    0.000000
      5          1           0        0.100250    2.109627    0.000000
      6          1           0       -0.949909    0.964629    0.000000
 ---------------------------------------------------------------------
 Rotational constants (GHZ):    317.7990433      8.9586401      8.7130232
 Standard basis: 6-311+G(d,p) (5D, 7F)
 There are    54 symmetry adapted cartesian basis functions of A'  symmetry.
 There are    16 symmetry adapted cartesian basis functions of A"  symmetry.
 There are    52 symmetry adapted basis functions of A'  symmetry.
 There are    16 symmetry adapted basis functions of A"  symmetry.
    68 basis functions,   104 primitive gaussians,    70 cartesian basis functions
    10 alpha electrons       10 beta electrons
       nuclear repulsion energy        40.2131071968 Hartrees.
 NAtoms=    6 NActive=    6 NUniq=    6 SFac= 1.00D+00 NAtFMM=   60 NAOKFM=F Big=F
 Integral buffers will be    131072 words long.
 Raffenetti 1 integral format.
 Two-electron integral symmetry is turned on.
 One-electron integrals computed using PRISM.
 NBasis=    68 RedAO= T EigKep=  1.83D-03  NBF=    52    16
 NBsUse=    68 1.00D-06 EigRej= -1.00D+00 NBFU=    52    16
 Initial guess from the checkpoint file:  "H20Aggmp2.chk"
 B after Tr=     0.000000    0.000000    0.000000
         Rot=    1.000000    0.000000    0.000000    0.000102 Ang=   0.01 deg.
 Initial guess orbital symmetries:
       Occupied  (A') (A') (A') (A') (A') (A') (A') (A") (A') (A")
       Virtual   (A') (A') (A') (A') (A') (A') (A') (A') (A') (A')
                 (A') (A') (A') (A') (A') (A') (A') (A') (A') (A')
                 (A') (A') (A') (A') (A') (A') (A') (A') (A') (A')
                 (A') (A') (A') (A') (A') (A') (A') (A') (A') (A')
                 (A') (A') (A') (A') (A") (A") (A") (A") (A") (A")
                 (A") (A") (A") (A") (A") (A") (A") (A")
 ExpMin= 8.45D-02 ExpMax= 8.59D+03 ExpMxC= 1.30D+03 IAcc=2 IRadAn=         4 AccDes= 0.00D+00
 Harris functional with IExCor=  205 and IRadAn=       4 diagonalized for initial guess.
 HarFok:  IExCor=  205 AccDes= 0.00D+00 IRadAn=         4 IDoV= 1 UseB2=F ITyADJ=14
 ICtDFT=  3500011 ScaDFX=  1.000000  1.000000  1.000000  1.000000
 FoFCou: FMM=F IPFlag=           0 FMFlag=      100000 FMFlg1=           0
         NFxFlg=           0 DoJE=T BraDBF=F KetDBF=T FulRan=T
         wScrn=  0.000000 ICntrl=     500 IOpCl=  0 I1Cent=   200000004 NGrid=           0
         NMat0=    1 NMatS0=      1 NMatT0=    0 NMatD0=    1 NMtDS0=    0 NMtDT0=    0
 Petite list used in FoFCou.
 Keep R1 ints in memory in symmetry-blocked form, NReq=4286288.
 Requested convergence on RMS density matrix=1.00D-08 within 128 cycles.
 Requested convergence on MAX density matrix=1.00D-06.
 Requested convergence on             energy=1.00D-06.
 No special actions if energy rises.
 SCF Done:  E(RHF) =  -152.095698473     A.U. after   10 cycles
            NFock= 10  Conv=0.80D-08     -V/T= 2.0002
 Range of M.O.s used for correlation:     1    68
 NBasis=    68 NAE=    10 NBE=    10 NFC=     0 NFV=     0
 NROrb=     68 NOA=    10 NOB=    10 NVA=    58 NVB=    58

 **** Warning!!: The largest alpha MO coefficient is  0.11975508D+02

 Fully direct method using O(ONN) memory.
 JobTyp=1 Pass  1:  I=   1 to  10 NPSUse=  2 ParTrn=T ParDer=T DoDerP=T.
 Spin components of T(2) and E(2):
     alpha-alpha T2 =       0.1442412993D-01 E2=     -0.6002885778D-01
     alpha-beta  T2 =       0.8237281841D-01 E2=     -0.3663874706D+00
     beta-beta   T2 =       0.1442412993D-01 E2=     -0.6002885778D-01
 ANorm=    0.1054144714D+01
 E2 =    -0.4864451862D+00 EUMP2 =    -0.15258214365884D+03
          IDoAtm=111111
          Differentiating once with respect to electric field.
                with respect to dipole field.
          Differentiating once with respect to nuclear coordinates.
 Keep R1 ints in memory in symmetry-blocked form, NReq=4253041.
          There are     1 degrees of freedom in the 1st order CPHF.  IDoFFX=0 NUNeed=     1.
 LinEq1:  Iter=  0 NonCon=     1 RMS=5.81D-03 Max=6.20D-02 NDo=     1
 AX will form     1 AO Fock derivatives at one time.
 LinEq1:  Iter=  1 NonCon=     1 RMS=5.57D-04 Max=4.08D-03 NDo=     1
 LinEq1:  Iter=  2 NonCon=     1 RMS=8.28D-05 Max=8.41D-04 NDo=     1
 LinEq1:  Iter=  3 NonCon=     1 RMS=1.91D-05 Max=1.31D-04 NDo=     1
 LinEq1:  Iter=  4 NonCon=     1 RMS=5.61D-06 Max=3.82D-05 NDo=     1
 LinEq1:  Iter=  5 NonCon=     1 RMS=1.36D-06 Max=8.00D-06 NDo=     1
 LinEq1:  Iter=  6 NonCon=     1 RMS=3.38D-07 Max=2.29D-06 NDo=     1
 LinEq1:  Iter=  7 NonCon=     1 RMS=1.45D-07 Max=8.72D-07 NDo=     1
 LinEq1:  Iter=  8 NonCon=     1 RMS=2.51D-08 Max=1.90D-07 NDo=     1
 LinEq1:  Iter=  9 NonCon=     1 RMS=4.49D-09 Max=3.13D-08 NDo=     1
 LinEq1:  Iter= 10 NonCon=     1 RMS=7.36D-10 Max=6.93D-09 NDo=     1
 LinEq1:  Iter= 11 NonCon=     0 RMS=9.36D-11 Max=5.24D-10 NDo=     1
 Linear equations converged to 1.000D-10 1.000D-09 after    11 iterations.
 End of Minotr F.D. properties file   721 does not exist.
 End of Minotr F.D. properties file   722 does not exist.
 End of Minotr F.D. properties file   788 does not exist.
 Calling FoFJK, ICntrl=  10002127 FMM=F ISym2X=1 I1Cent= 0 IOpClX= 0 NMat=1 NMatS=1 NMatT=0.
 ***** Axes restored to original set *****
 -------------------------------------------------------------------
 Center     Atomic                   Forces (Hartrees/Bohr)
 Number     Number              X              Y              Z
 -------------------------------------------------------------------
      1        8          -0.007892970    0.000000000   -0.011545463
      2        1           0.017878195    0.000000000   -0.024573220
      3        1          -0.000000648    0.000000000    0.004321178
      4        8          -0.005283822    0.000000000    0.021868878
      5        1          -0.001789795    0.000000000   -0.000743548
      6        1          -0.002910960    0.000000000    0.010672177
 -------------------------------------------------------------------
 Cartesian Forces:  Max     0.024573220 RMS     0.009916412

 GradGradGradGradGradGradGradGradGradGradGradGradGradGradGradGradGradGrad
 Berny optimization.
 Using GEDIIS/GDIIS optimizer.
 FormGI is forming the generalized inverse of G from B-inverse, IUseBI=4.
 Internal  Forces:  Max     0.032369143 RMS     0.010116849
 Search for a local minimum.
 Step number   2 out of a maximum of   24
 All quantities printed in internal units (Hartrees-Bohrs-Radians)
 Mixed Optimization -- RFO/linear search
 Update second derivatives using D2CorX and points    1    2
 DE= -1.03D-02 DEPred=-1.16D-02 R= 8.90D-01
 TightC=F SS=  1.41D+00  RLast= 3.00D-01 DXNew= 5.0454D-01 9.0000D-01
 Trust test= 8.90D-01 RLast= 3.00D-01 DXMaxT set to 5.05D-01
 The second derivative matrix:
                          R1        R2        R3        R4        R5
           R1           0.57069
           R2          -0.00434   0.55591
           R3          -0.00903   0.00183   0.09050
           R4           0.00081  -0.00019   0.00203   0.55466
           R5           0.00149  -0.00041  -0.00116   0.00009   0.55487
           A1          -0.00108   0.00040   0.00964  -0.00046  -0.00005
           A2          -0.00860   0.00199  -0.02596   0.00096  -0.00098
           A3          -0.00281   0.00081   0.00580  -0.00033  -0.00024
           A4           0.02808  -0.00715   0.02628  -0.00048   0.00287
           A5           0.00048  -0.00013  -0.00040   0.00003   0.00004
           A6           0.00000   0.00000   0.00000   0.00000   0.00000
           A7           0.00000   0.00000   0.00000   0.00000   0.00000
           D1           0.00000   0.00000   0.00000   0.00000   0.00000
           D2           0.00000   0.00000   0.00000   0.00000   0.00000
                          A1        A2        A3        A4        A5
           A1           0.15859
           A2           0.00566   0.14730
           A3          -0.00050   0.00388   0.16017
           A4          -0.00885   0.00857  -0.00818   0.01929
           A5          -0.00001  -0.00033  -0.00008   0.00095   0.01559
           A6           0.00000   0.00000   0.00000   0.00000   0.00000
           A7           0.00000   0.00000   0.00000   0.00000   0.00000
           D1           0.00000   0.00000   0.00000   0.00000   0.00000
           D2           0.00000   0.00000   0.00000   0.00000   0.00000
                          A6        A7        D1        D2
           A6           0.00230
           A7           0.00000   0.01558
           D1           0.00000   0.00000   0.00230
           D2           0.00000   0.00000   0.00000   0.01558
 ITU=  1  0
 Use linear search instead of GDIIS.
 Linear search step of   0.600 exceeds DXMaxT=   0.505 but not scaled.
 Quartic linear search produced a step of  2.00000.
 Iteration  1 RMS(Cart)=  0.10230250 RMS(Int)=  0.08589301
 Iteration  2 RMS(Cart)=  0.08752612 RMS(Int)=  0.03130581
 New curvilinear step failed, DQL= 2.95D-02 SP=-7.48D-01.
 ITry= 1 IFail=1 DXMaxC= 4.36D-01 DCOld= 1.00D+10 DXMaxT= 5.05D-01 DXLimC= 3.00D+00 Rises=F
 Iteration  1 RMS(Cart)=  0.10230250 RMS(Int)=  0.08589301
 Iteration  2 RMS(Cart)=  0.08752612 RMS(Int)=  0.03130581
 New curvilinear step failed, DQL= 2.95D-02 SP=-7.48D-01.
 ITry= 2 IFail=1 DXMaxC= 4.36D-01 DCOld= 1.00D+10 DXMaxT= 5.05D-01 DXLimC= 3.00D+00 Rises=F
 Iteration  1 RMS(Cart)=  0.10230250 RMS(Int)=  0.08589301
 Iteration  2 RMS(Cart)=  0.08752612 RMS(Int)=  0.03130581
 New curvilinear step failed, DQL= 2.95D-02 SP=-7.48D-01.
 ITry= 3 IFail=1 DXMaxC= 4.36D-01 DCOld= 1.00D+10 DXMaxT= 5.05D-01 DXLimC= 3.00D+00 Rises=F
 Iteration  1 RMS(Cart)=  0.10230250 RMS(Int)=  0.08589301
 Iteration  2 RMS(Cart)=  0.08752612 RMS(Int)=  0.03130581
 New curvilinear step failed, DQL= 2.95D-02 SP=-7.48D-01.
 ITry= 4 IFail=1 DXMaxC= 4.36D-01 DCOld= 1.00D+10 DXMaxT= 5.05D-01 DXLimC= 3.00D+00 Rises=F
 Iteration  1 RMS(Cart)=  0.10230250 RMS(Int)=  0.08589301
 Iteration  2 RMS(Cart)=  0.08752612 RMS(Int)=  0.03130581
 New curvilinear step failed, DQL= 2.95D-02 SP=-7.48D-01.
 ITry= 5 IFail=1 DXMaxC= 4.36D-01 DCOld= 1.00D+10 DXMaxT= 5.05D-01 DXLimC= 3.00D+00 Rises=F
 Iteration  1 RMS(Cart)=  0.10230250 RMS(Int)=  0.08589301
 Iteration  2 RMS(Cart)=  0.08752612 RMS(Int)=  0.03130581
 New curvilinear step failed, DQL= 2.95D-02 SP=-7.48D-01.
 ITry= 6 IFail=1 DXMaxC= 4.36D-01 DCOld= 1.00D+10 DXMaxT= 5.05D-01 DXLimC= 3.00D+00 Rises=F
 Iteration  1 RMS(Cart)=  0.10230250 RMS(Int)=  0.08589301
 Iteration  2 RMS(Cart)=  0.08752612 RMS(Int)=  0.03130581
 New curvilinear step failed, DQL= 2.95D-02 SP=-7.48D-01.
 ITry= 7 IFail=1 DXMaxC= 4.36D-01 DCOld= 1.00D+10 DXMaxT= 5.05D-01 DXLimC= 3.00D+00 Rises=F
 Iteration  1 RMS(Cart)=  0.10230250 RMS(Int)=  0.08589301
 Iteration  2 RMS(Cart)=  0.08752612 RMS(Int)=  0.03130581
 New curvilinear step failed, DQL= 2.95D-02 SP=-7.48D-01.
 ITry= 8 IFail=1 DXMaxC= 4.36D-01 DCOld= 1.00D+10 DXMaxT= 5.05D-01 DXLimC= 3.00D+00 Rises=F
 Iteration  1 RMS(Cart)=  0.10230250 RMS(Int)=  0.08589301
 Iteration  2 RMS(Cart)=  0.08752612 RMS(Int)=  0.03130581
 New curvilinear step failed, DQL= 2.95D-02 SP=-7.48D-01.
 ITry= 9 IFail=1 DXMaxC= 4.36D-01 DCOld= 1.00D+10 DXMaxT= 5.05D-01 DXLimC= 3.00D+00 Rises=F
 Iteration  1 RMS(Cart)=  0.10230250 RMS(Int)=  0.08589301
 Iteration  2 RMS(Cart)=  0.08752612 RMS(Int)=  0.03130581
 New curvilinear step failed, DQL= 2.95D-02 SP=-7.48D-01.
 ITry=10 IFail=1 DXMaxC= 4.36D-01 DCOld= 1.00D+10 DXMaxT= 5.05D-01 DXLimC= 3.00D+00 Rises=F
 RedQX1 iteration     1 Try  1 RMS(Cart)=  0.04396515 RMS(Int)=  0.12829963 XScale=  4.99699000
 RedQX1 iteration     1 Try  2 RMS(Cart)=  0.04380857 RMS(Int)=  0.09644165 XScale=  2.49667779
 RedQX1 iteration     1 Try  3 RMS(Cart)=  0.04325923 RMS(Int)=  0.06516622 XScale=  1.66277945
 RedQX1 iteration     1 Try  4 RMS(Cart)=  0.04224689 RMS(Int)=  0.03535660 XScale=  1.24496059
 RedQX1 iteration     1 Try  5 RMS(Cart)=  0.04198438 RMS(Int)=  0.03968588 XScale=  1.19421246
 RedQX1 iteration     1 Try  6 RMS(Cart)=  0.06235248 RMS(Int)=  0.07587250 XScale=  1.38579508
 RedQX1 iteration     2 Try  1 RMS(Cart)=  0.02463873 RMS(Int)=  0.09068622 XScale=  1.43376082
 RedQX1 iteration     2 Try  2 RMS(Cart)=  0.03672256 RMS(Int)=  0.11288683 XScale=  1.45241613
 RedQX1 iteration     2 Try  3 RMS(Cart)=  0.06073205 RMS(Int)=  0.14992024 XScale=  1.33948089
 RedQX1 iteration     2 Try  4 RMS(Cart)=  0.12025318 RMS(Int)=  0.22463597 XScale=  0.94373938
 RedQX1 iteration     3 Try  1 RMS(Cart)=  0.04810127 RMS(Int)=  0.17932582 XScale=  1.18398503
 RedQX1 iteration     3 Try  2 RMS(Cart)=  0.07159410 RMS(Int)=  0.22353060 XScale=  0.95288790
 RedQX1 iteration     4 Try  1 RMS(Cart)=  0.05727528 RMS(Int)=  0.21457368 XScale=  0.99652444
 RedQX1 iteration     5 Try  1 RMS(Cart)=  0.01145506 RMS(Int)=  0.18630367 XScale=  1.14584151
 RedQX1 iteration     5 Try  2 RMS(Cart)=  0.01238411 RMS(Int)=  0.19385833 XScale=  1.10495287
 RedQX1 iteration     5 Try  3 RMS(Cart)=  0.01343171 RMS(Int)=  0.20206475 XScale=  1.06151112
 RedQX1 iteration     5 Try  4 RMS(Cart)=  0.01461899 RMS(Int)=  0.21101155 XScale=  1.01575925
 RedQX1 iteration     5 Try  5 RMS(Cart)=  0.01597204 RMS(Int)=  0.22080424 XScale=  0.96798459
 RedQX1 iteration     6 Try  1 RMS(Cart)=  0.01341652 RMS(Int)=  0.21923260 XScale=  0.97549774
 RedQX1 iteration     7 Try  1 RMS(Cart)=  0.00268330 RMS(Int)=  0.21265175 XScale=  1.00760342
 RedQX1 iteration     7 Try  2 RMS(Cart)=  0.00272532 RMS(Int)=  0.21431812 XScale=  0.99938740
 RedQX1 iteration     7 Try  3 RMS(Cart)=  0.00276833 RMS(Int)=  0.21601129 XScale=  0.99111287
 RedQX1 iteration     8 Try  1 RMS(Cart)=  0.00272403 RMS(Int)=  0.21598418 XScale=  0.99124482
 RedQX1 iteration     9 Try  1 RMS(Cart)=  0.00054481 RMS(Int)=  0.21465116 XScale=  0.99775462
 RedQX1 iteration    10 Try  1 RMS(Cart)=  0.00010896 RMS(Int)=  0.21438472 XScale=  0.99906067
 RedQX1 iteration    10 Try  2 RMS(Cart)=  0.00010903 RMS(Int)=  0.21445136 XScale=  0.99873386
 RedQX1 iteration    11 Try  1 RMS(Cart)=  0.00010899 RMS(Int)=  0.21445134 XScale=  0.99873396
 RedQX1 iteration    12 Try  1 RMS(Cart)=  0.00002180 RMS(Int)=  0.21439804 XScale=  0.99899533
 RedQX1 iteration    13 Try  1 RMS(Cart)=  0.00000436 RMS(Int)=  0.21438738 XScale=  0.99904760
 RedQX1 iteration    13 Try  2 RMS(Cart)=  0.00000436 RMS(Int)=  0.21439005 XScale=  0.99903453
 RedQX1 iteration    13 Try  3 RMS(Cart)=  0.00000436 RMS(Int)=  0.21439271 XScale=  0.99902146
 RedQX1 iteration    13 Try  4 RMS(Cart)=  0.00000436 RMS(Int)=  0.21439538 XScale=  0.99900839
 RedQX1 iteration    13 Try  5 RMS(Cart)=  0.00000436 RMS(Int)=  0.21439804 XScale=  0.99899532
 RedQX1 iteration    14 Try  1 RMS(Cart)=  0.00000436 RMS(Int)=  0.21439804 XScale=  0.99899532
 RedQX1 iteration    15 Try  1 RMS(Cart)=  0.00000087 RMS(Int)=  0.21439591 XScale=  0.99900578
 RedQX1 iteration    15 Try  2 RMS(Cart)=  0.00000087 RMS(Int)=  0.21439644 XScale=  0.99900317
 RedQX1 iteration    15 Try  3 RMS(Cart)=  0.00000087 RMS(Int)=  0.21439698 XScale=  0.99900055
 RedQX1 iteration    15 Try  4 RMS(Cart)=  0.00000087 RMS(Int)=  0.21439751 XScale=  0.99899794
 RedQX1 iteration    16 Try  1 RMS(Cart)=  0.00000087 RMS(Int)=  0.21439751 XScale=  0.99899794
 RedQX1 iteration    17 Try  1 RMS(Cart)=  0.00000017 RMS(Int)=  0.21439708 XScale=  0.99900003
 RedQX1 iteration    17 Try  2 RMS(Cart)=  0.00000017 RMS(Int)=  0.21439719 XScale=  0.99899951
 RedQX1 iteration    18 Try  1 RMS(Cart)=  0.00000017 RMS(Int)=  0.21439719 XScale=  0.99899951
 RedQX1 iteration    19 Try  1 RMS(Cart)=  0.00000003 RMS(Int)=  0.21439711 XScale=  0.99899992
 RedQX1 iteration    20 Try  1 RMS(Cart)=  0.00000001 RMS(Int)=  0.21439709 XScale=  0.99900001
 ClnCor:  largest displacement from symmetrization is 2.75D-15 for atom     3.
 TrRot=  0.000000  0.000000  0.000000  0.000000  0.000000  0.000000
 Variable       Old X    -DE/DX   Delta X   Delta X   Delta X     New X
                                 (Linear)    (Quad)   (Total)
    R1        1.83616   0.00833   0.04405   0.00000   0.29358   2.12974
    R2        1.80871  -0.00191  -0.01086   0.00000   0.20281   2.01152
    R3        2.80924   0.03237   0.28945   0.00000   0.40423   3.21347
    R4        1.81303  -0.00098  -0.00221   0.00000   0.05696   1.86999
    R5        1.81648   0.00096   0.00469   0.00000   0.05181   1.86829
    A1        1.87795  -0.00701  -0.06637   0.00000  -0.05744   1.82052
    A2        1.45508   0.01233   0.10892   0.00000   0.09592   1.55100
    A3        1.88463  -0.00768  -0.05302   0.00000  -0.05276   1.83187
    A4        3.35703   0.00532   0.50193   0.00000  -0.21661   3.14042
    A5        3.33971   0.00465   0.05590   0.00000   0.04316   3.38287
    A6        3.14159   0.00000   0.00000   0.00000   0.00000   3.14159
    A7        3.14159   0.00000   0.00000   0.00000   0.00000   3.14159
    D1        3.14159   0.00000   0.00000   0.00000   0.00000   3.14159
    D2        3.14159   0.00000   0.00000   0.00000   0.00000   3.14159
         Item               Value     Threshold  Converged?
 Maximum Force            0.032369     0.000450     NO 
 RMS     Force            0.010117     0.000300     NO 
 Maximum Displacement     1.230752     0.001800     NO 
 RMS     Displacement     0.472217     0.001200     NO 
 Predicted change in Energy=-2.363995D-02
 GradGradGradGradGradGradGradGradGradGradGradGradGradGradGradGradGradGrad

                          Input orientation:                          
 ---------------------------------------------------------------------
 Center     Atomic      Atomic             Coordinates (Angstroms)
 Number     Number       Type             X           Y           Z
 ---------------------------------------------------------------------
      1          8           0       -0.044136    0.000000    0.222552
      2          1           0        0.790770    0.000000    0.979578
      3          1           0        0.453809    0.000000   -0.718247
      4          8           0        0.060913    0.000000    2.515481
      5          1           0       -0.137943    0.000000    3.484850
      6          1           0       -0.823477    0.000000    2.073555
 ---------------------------------------------------------------------
                    Distance matrix (angstroms):
                    1          2          3          4          5
     1  O    0.000000
     2  H    1.127012   0.000000
     3  H    1.064449   1.730940   0.000000
     4  O    2.295334   1.700497   3.257508   0.000000
     5  H    3.263646   2.671871   4.244549   0.989556   0.000000
     6  H    2.008379   1.950021   3.070117   0.988658   1.568984
                    6
     6  H    0.000000
 Stoichiometry    H4O2
 Framework group  CS[SG(H4O2)]
 Deg. of freedom     9
 Full point group                 CS      NOp   2
 Largest Abelian subgroup         CS      NOp   2
 Largest concise Abelian subgroup C1      NOp   1
                         Standard orientation:                         
 ---------------------------------------------------------------------
 Center     Atomic      Atomic             Coordinates (Angstroms)
 Number     Number       Type             X           Y           Z
 ---------------------------------------------------------------------
      1          8           0       -0.011681   -1.165404    0.000000
      2          1           0        0.787704   -0.370960    0.000000
      3          1           0        0.528799   -2.082428    0.000000
      4          8           0       -0.011681    1.129930    0.000000
      5          1           0       -0.254693    2.089183    0.000000
      6          1           0       -0.874919    0.647992    0.000000
 ---------------------------------------------------------------------
 Rotational constants (GHZ):    311.7002996      9.7941439      9.4957709
 Standard basis: 6-311+G(d,p) (5D, 7F)
 There are    54 symmetry adapted cartesian basis functions of A'  symmetry.
 There are    16 symmetry adapted cartesian basis functions of A"  symmetry.
 There are    52 symmetry adapted basis functions of A'  symmetry.
 There are    16 symmetry adapted basis functions of A"  symmetry.
    68 basis functions,   104 primitive gaussians,    70 cartesian basis functions
    10 alpha electrons       10 beta electrons
       nuclear repulsion energy        39.6519468969 Hartrees.
 NAtoms=    6 NActive=    6 NUniq=    6 SFac= 1.00D+00 NAtFMM=   60 NAOKFM=F Big=F
 Integral buffers will be    131072 words long.
 Raffenetti 1 integral format.
 Two-electron integral symmetry is turned on.
 One-electron integrals computed using PRISM.
 NBasis=    68 RedAO= T EigKep=  2.61D-03  NBF=    52    16
 NBsUse=    68 1.00D-06 EigRej= -1.00D+00 NBFU=    52    16
 Initial guess from the checkpoint file:  "H20Aggmp2.chk"
 B after Tr=     0.000000    0.000000    0.000000
         Rot=    0.999990    0.000000    0.000000   -0.004370 Ang=  -0.50 deg.
 Initial guess orbital symmetries:
       Occupied  (A') (A') (A') (A') (A') (A') (A') (A") (A') (A")
       Virtual   (A') (A') (A') (A') (A') (A') (A') (A') (A') (A')
                 (A') (A') (A') (A') (A') (A') (A') (A') (A') (A')
                 (A') (A') (A') (A') (A') (A') (A') (A') (A') (A')
                 (A') (A') (A') (A') (A') (A') (A') (A') (A') (A')
                 (A') (A') (A') (A') (A") (A") (A") (A") (A") (A")
                 (A") (A") (A") (A") (A") (A") (A") (A")
 ExpMin= 8.45D-02 ExpMax= 8.59D+03 ExpMxC= 1.30D+03 IAcc=2 IRadAn=         4 AccDes= 0.00D+00
 Harris functional with IExCor=  205 and IRadAn=       4 diagonalized for initial guess.
 HarFok:  IExCor=  205 AccDes= 0.00D+00 IRadAn=         4 IDoV= 1 UseB2=F ITyADJ=14
 ICtDFT=  3500011 ScaDFX=  1.000000  1.000000  1.000000  1.000000
 FoFCou: FMM=F IPFlag=           0 FMFlag=      100000 FMFlg1=           0
         NFxFlg=           0 DoJE=T BraDBF=F KetDBF=T FulRan=T
         wScrn=  0.000000 ICntrl=     500 IOpCl=  0 I1Cent=   200000004 NGrid=           0
         NMat0=    1 NMatS0=      1 NMatT0=    0 NMatD0=    1 NMtDS0=    0 NMtDT0=    0
 Petite list used in FoFCou.
 Keep R1 ints in memory in symmetry-blocked form, NReq=4286288.
 Requested convergence on RMS density matrix=1.00D-08 within 128 cycles.
 Requested convergence on MAX density matrix=1.00D-06.
 Requested convergence on             energy=1.00D-06.
 No special actions if energy rises.
 SCF Done:  E(RHF) =  -152.057509980     A.U. after   12 cycles
            NFock= 12  Conv=0.49D-08     -V/T= 2.0032
 Range of M.O.s used for correlation:     1    68
 NBasis=    68 NAE=    10 NBE=    10 NFC=     0 NFV=     0
 NROrb=     68 NOA=    10 NOB=    10 NVA=    58 NVB=    58
 Fully direct method using O(ONN) memory.
 JobTyp=1 Pass  1:  I=   1 to  10 NPSUse=  2 ParTrn=T ParDer=T DoDerP=T.
 Spin components of T(2) and E(2):
     alpha-alpha T2 =       0.1576633695D-01 E2=     -0.6131566311D-01
     alpha-beta  T2 =       0.9185996863D-01 E2=     -0.3769515518D+00
     beta-beta   T2 =       0.1576633695D-01 E2=     -0.6131566311D-01
 ANorm=    0.1059902185D+01
 E2 =    -0.4995828780D+00 EUMP2 =    -0.15255709285834D+03
          IDoAtm=111111
          Differentiating once with respect to electric field.
                with respect to dipole field.
          Differentiating once with respect to nuclear coordinates.
 Keep R1 ints in memory in symmetry-blocked form, NReq=4253041.
          There are     1 degrees of freedom in the 1st order CPHF.  IDoFFX=0 NUNeed=     1.
 LinEq1:  Iter=  0 NonCon=     1 RMS=6.71D-03 Max=7.33D-02 NDo=     1
 AX will form     1 AO Fock derivatives at one time.
 LinEq1:  Iter=  1 NonCon=     1 RMS=7.58D-04 Max=4.83D-03 NDo=     1
 LinEq1:  Iter=  2 NonCon=     1 RMS=1.45D-04 Max=1.44D-03 NDo=     1
 LinEq1:  Iter=  3 NonCon=     1 RMS=5.70D-05 Max=3.66D-04 NDo=     1
 LinEq1:  Iter=  4 NonCon=     1 RMS=1.33D-05 Max=8.95D-05 NDo=     1
 LinEq1:  Iter=  5 NonCon=     1 RMS=3.35D-06 Max=1.92D-05 NDo=     1
 LinEq1:  Iter=  6 NonCon=     1 RMS=1.37D-06 Max=1.08D-05 NDo=     1
 LinEq1:  Iter=  7 NonCon=     1 RMS=3.41D-07 Max=1.97D-06 NDo=     1
 LinEq1:  Iter=  8 NonCon=     1 RMS=5.07D-08 Max=3.36D-07 NDo=     1
 LinEq1:  Iter=  9 NonCon=     1 RMS=9.03D-09 Max=4.78D-08 NDo=     1
 LinEq1:  Iter= 10 NonCon=     1 RMS=1.21D-09 Max=8.30D-09 NDo=     1
 LinEq1:  Iter= 11 NonCon=     1 RMS=1.92D-10 Max=9.82D-10 NDo=     1
 LinEq1:  Iter= 12 NonCon=     0 RMS=3.13D-11 Max=1.75D-10 NDo=     1
 Linear equations converged to 1.000D-10 1.000D-09 after    12 iterations.
 End of Minotr F.D. properties file   721 does not exist.
 End of Minotr F.D. properties file   722 does not exist.
 End of Minotr F.D. properties file   788 does not exist.
 Calling FoFJK, ICntrl=  10002127 FMM=F ISym2X=1 I1Cent= 0 IOpClX= 0 NMat=1 NMatS=1 NMatT=0.
 ***** Axes restored to original set *****
 -------------------------------------------------------------------
 Center     Atomic                   Forces (Hartrees/Bohr)
 Number     Number              X              Y              Z
 -------------------------------------------------------------------
      1        8           0.104603869    0.000000000   -0.028084965
      2        1          -0.069132996    0.000000000   -0.068501528
      3        1          -0.034623266    0.000000000    0.067391255
      4        8          -0.031240373    0.000000000    0.044566876
      5        1           0.007040472    0.000000000   -0.026587756
      6        1           0.023352294    0.000000000    0.011216118
 -------------------------------------------------------------------
 Cartesian Forces:  Max     0.104603869 RMS     0.041721758

 GradGradGradGradGradGradGradGradGradGradGradGradGradGradGradGradGradGrad
 Berny optimization.
 Using GEDIIS/GDIIS optimizer.
 FormGI is forming the generalized inverse of G from B-inverse, IUseBI=4.
 Internal  Forces:  Max     0.091172567 RMS     0.035279142
 Search for a local minimum.
 Step number   3 out of a maximum of   24
 All quantities printed in internal units (Hartrees-Bohrs-Radians)
 Mixed Optimization -- RFO/linear search
 Update second derivatives using D2CorX and points    1    3    2
 The second derivative matrix:
                          R1        R2        R3        R4        R5
           R1           0.35566
           R2          -0.11353   0.53504
           R3          -0.05151  -0.02538   0.08303
           R4          -0.02978  -0.00507  -0.00575   0.55360
           R5          -0.01895   0.00235  -0.00734   0.00123   0.55792
           A1          -0.05071  -0.06412   0.00625  -0.01964  -0.01970
           A2           0.00837   0.02213  -0.02449   0.00693   0.00501
           A3          -0.00514  -0.00673   0.00638  -0.00263  -0.00288
           A4          -0.04614  -0.08389   0.01798  -0.02308  -0.01902
           A5           0.00351   0.00401  -0.00023   0.00127   0.00132
           A6           0.00000   0.00000   0.00000   0.00000   0.00000
           A7           0.00000   0.00000   0.00000   0.00000   0.00000
           D1           0.00000   0.00000   0.00000   0.00000   0.00000
           D2           0.00000   0.00000   0.00000   0.00000   0.00000
                          A1        A2        A3        A4        A5
           A1           0.19183
           A2          -0.00352   0.14980
           A3           0.00619   0.00195   0.16131
           A4           0.01842   0.00142  -0.00181   0.03777
           A5          -0.00228   0.00030  -0.00052  -0.00095   0.01574
           A6           0.00000   0.00000   0.00000   0.00000   0.00000
           A7           0.00000   0.00000   0.00000   0.00000   0.00000
           D1           0.00000   0.00000   0.00000   0.00000   0.00000
           D2           0.00000   0.00000   0.00000   0.00000   0.00000
                          A6        A7        D1        D2
           A6           0.00230
           A7           0.00000   0.01558
           D1           0.00000   0.00000   0.00230
           D2           0.00000   0.00000   0.00000   0.01558
 ITU=  0  1  0
 Use linear search instead of GDIIS.
     Eigenvalues ---    0.00230   0.00230   0.00801   0.01558   0.05729
     Eigenvalues ---    0.06867   0.15119   0.16119   0.36671   0.55465
     Eigenvalues ---    0.55605   0.60754
 RFO step:  Lambda=-1.01763758D-02 EMin= 2.30000000D-03
 Quartic linear search produced a step of -0.88611.
 Iteration  1 RMS(Cart)=  0.11613312 RMS(Int)=  0.10484008
 Iteration  2 RMS(Cart)=  0.10291797 RMS(Int)=  0.05123457
 Iteration  3 RMS(Cart)=  0.00035338 RMS(Int)=  0.05104682
 Iteration  4 RMS(Cart)=  0.09583040 RMS(Int)=  0.83964820
 Iteration  5 RMS(Cart)=  0.00866941 RMS(Int)=  0.78663996
 Iteration  6 RMS(Cart)=  0.00280233 RMS(Int)=  0.73318505
 Iteration  7 RMS(Cart)=  0.00285814 RMS(Int)=  0.67973013
 Iteration  8 RMS(Cart)=  0.00292671 RMS(Int)=  0.62627525
 Iteration  9 RMS(Cart)=  0.00299648 RMS(Int)=  0.57282042
 Iteration 10 RMS(Cart)=  0.00305527 RMS(Int)=  0.51936564
 Iteration 11 RMS(Cart)=  0.00309356 RMS(Int)=  0.46591098
 Iteration 12 RMS(Cart)=  0.00310519 RMS(Int)=  0.41245633
 Iteration 13 RMS(Cart)=  0.00308780 RMS(Int)=  0.35900178
 Iteration 14 RMS(Cart)=  0.00304303 RMS(Int)=  0.30554729
 Iteration 15 RMS(Cart)=  0.00297573 RMS(Int)=  0.25209285
 Iteration 16 RMS(Cart)=  0.00289436 RMS(Int)=  0.19863842
 Iteration 17 RMS(Cart)=  0.00280952 RMS(Int)=  0.14518403
 Iteration 18 RMS(Cart)=  0.00273378 RMS(Int)=  0.09172971
 Iteration 19 RMS(Cart)=  0.00267904 RMS(Int)=  0.03827553
 Iteration 20 RMS(Cart)=  0.00189668 RMS(Int)=  0.00008533
 Iteration 21 RMS(Cart)=  0.00015563 RMS(Int)=  0.00000003
 Iteration 22 RMS(Cart)=  0.00000002 RMS(Int)=  0.00000000
 ClnCor:  largest displacement from symmetrization is 2.82D-03 for atom     6.
 Variable       Old X    -DE/DX   Delta X   Delta X   Delta X     New X
                                 (Linear)    (Quad)   (Total)
    R1        2.12974  -0.06369  -0.26015   0.07528  -0.18487   1.94488
    R2        2.01152  -0.09117  -0.17971   0.05149  -0.12823   1.88329
    R3        3.21347   0.02673  -0.35820   0.22532  -0.13288   3.08059
    R4        1.86999  -0.02746  -0.05047   0.01200  -0.03847   1.83152
    R5        1.86829  -0.02590  -0.04591   0.01138  -0.03454   1.83376
    A1        1.82052   0.03627   0.05089  -0.00615   0.04475   1.86526
    A2        1.55100   0.00046  -0.08499   0.08076  -0.00424   1.54677
    A3        1.83187   0.00122   0.04675  -0.02179   0.02496   1.85683
    A4        3.14042   0.03996   0.19194   0.40429   0.59623   3.73666
    A5        3.38287   0.00168  -0.03824   0.05897   0.02072   3.40359
    A6        3.14159   0.00000   0.00000   0.00000   0.00000   3.14159
    A7        3.14159   0.00000   0.00000   0.00000   0.00000   3.14159
    D1        3.14159   0.00000   0.00000   0.00000   0.00000   3.14159
    D2        3.14159   0.00000   0.00000   0.00000   0.00000   3.14159
         Item               Value     Threshold  Converged?
 Maximum Force            0.091173     0.000450     NO 
 RMS     Force            0.035279     0.000300     NO 
 Maximum Displacement     0.795020     0.001800     NO 
 RMS     Displacement     0.337398     0.001200     NO 
 Predicted change in Energy=-4.067370D-03
 GradGradGradGradGradGradGradGradGradGradGradGradGradGradGradGradGradGrad

                          Input orientation:                          
 ---------------------------------------------------------------------
 Center     Atomic      Atomic             Coordinates (Angstroms)
 Number     Number       Type             X           Y           Z
 ---------------------------------------------------------------------
      1          8           0       -0.013494    0.000000   -0.026405
      2          1           0        0.370063    0.000000    0.928637
      3          1           0        0.763705    0.000000   -0.650235
      4          8           0        0.025188    0.000000    2.521917
      5          1           0        0.072498    0.000000    3.489960
      6          1           0       -0.918024    0.000000    2.293897
 ---------------------------------------------------------------------
                    Distance matrix (angstroms):
                    1          2          3          4          5
     1  O    0.000000
     2  H    1.029185   0.000000
     3  H    0.996595   1.627203   0.000000
     4  O    2.548616   1.630178   3.256986   0.000000
     5  H    3.517417   2.578551   4.197498   0.969199   0.000000
     6  H    2.490377   1.876993   3.390593   0.970383   1.552965
                    6
     6  H    0.000000
 Stoichiometry    H4O2
 Framework group  CS[SG(H4O2)]
 Deg. of freedom     9
 Full point group                 CS      NOp   2
 Largest Abelian subgroup         CS      NOp   2
 Largest concise Abelian subgroup C1      NOp   1
                         Standard orientation:                         
 ---------------------------------------------------------------------
 Center     Atomic      Atomic             Coordinates (Angstroms)
 Number     Number       Type             X           Y           Z
 ---------------------------------------------------------------------
      1          8           0       -0.012428   -1.328065    0.000000
      2          1           0        0.356590   -0.367311    0.000000
      3          1           0        0.774149   -1.940027    0.000000
      4          8           0       -0.012428    1.220551    0.000000
      5          1           0        0.020183    2.189201    0.000000
      6          1           0       -0.952071    0.978241    0.000000
 ---------------------------------------------------------------------
 Rotational constants (GHZ):    327.2741356      8.1712146      7.9721695
 Standard basis: 6-311+G(d,p) (5D, 7F)
 There are    54 symmetry adapted cartesian basis functions of A'  symmetry.
 There are    16 symmetry adapted cartesian basis functions of A"  symmetry.
 There are    52 symmetry adapted basis functions of A'  symmetry.
 There are    16 symmetry adapted basis functions of A"  symmetry.
    68 basis functions,   104 primitive gaussians,    70 cartesian basis functions
    10 alpha electrons       10 beta electrons
       nuclear repulsion energy        38.6157823375 Hartrees.
 NAtoms=    6 NActive=    6 NUniq=    6 SFac= 1.00D+00 NAtFMM=   60 NAOKFM=F Big=F
 Integral buffers will be    131072 words long.
 Raffenetti 1 integral format.
 Two-electron integral symmetry is turned on.
 One-electron integrals computed using PRISM.
 NBasis=    68 RedAO= T EigKep=  2.70D-03  NBF=    52    16
 NBsUse=    68 1.00D-06 EigRej= -1.00D+00 NBFU=    52    16
 Lowest energy guess from the checkpoint file:  "H20Aggmp2.chk"
 B after Tr=     0.000000    0.000000    0.000000
         Rot=    0.999999    0.000000    0.000000    0.001730 Ang=   0.20 deg.
 B after Tr=     0.000000    0.000000    0.000000
         Rot=    0.999983    0.000000    0.000000    0.005871 Ang=   0.67 deg.
 Initial guess orbital symmetries:
       Occupied  (A') (A') (A') (A') (A') (A') (A") (A") (A') (A')
       Virtual   (A') (A') (A') (A') (A') (A') (A") (A") (A') (A')
                 (A') (A') (A') (A') (A') (A') (A') (A') (A') (A')
                 (A') (A') (A') (A') (A') (A') (A') (A') (A') (A')
                 (A') (A') (A') (A') (A') (A') (A') (A') (A') (A')
                 (A') (A') (A') (A') (A") (A") (A") (A") (A") (A")
                 (A") (A") (A") (A") (A") (A") (A") (A")
 Keep R1 ints in memory in symmetry-blocked form, NReq=4286288.
 Requested convergence on RMS density matrix=1.00D-08 within 128 cycles.
 Requested convergence on MAX density matrix=1.00D-06.
 Requested convergence on             energy=1.00D-06.
 No special actions if energy rises.
 An orbital has undefined symmetry, so N**3 symmetry is turned off.
 SCF Done:  E(RHF) =  -152.096096701     A.U. after   10 cycles
            NFock= 10  Conv=0.96D-08     -V/T= 2.0019
 Range of M.O.s used for correlation:     1    68
 NBasis=    68 NAE=    10 NBE=    10 NFC=     0 NFV=     0
 NROrb=     68 NOA=    10 NOB=    10 NVA=    58 NVB=    58
 Fully direct method using O(ONN) memory.
 JobTyp=1 Pass  1:  I=   1 to  10 NPSUse=  2 ParTrn=T ParDer=T DoDerP=T.
 Spin components of T(2) and E(2):
     alpha-alpha T2 =       0.1483626454D-01 E2=     -0.6017447042D-01
     alpha-beta  T2 =       0.8557334352D-01 E2=     -0.3694229553D+00
     beta-beta   T2 =       0.1483626454D-01 E2=     -0.6017447042D-01
 ANorm=    0.1056052022D+01
 E2 =    -0.4897718961D+00 EUMP2 =    -0.15258586859724D+03
          IDoAtm=111111
          Differentiating once with respect to electric field.
                with respect to dipole field.
          Differentiating once with respect to nuclear coordinates.
 Keep R1 ints in memory in canonical form, NReq=3610632.
          There are     1 degrees of freedom in the 1st order CPHF.  IDoFFX=0 NUNeed=     1.
 LinEq1:  Iter=  0 NonCon=     1 RMS=6.09D-03 Max=6.32D-02 NDo=     1
 AX will form     1 AO Fock derivatives at one time.
 LinEq1:  Iter=  1 NonCon=     1 RMS=6.15D-04 Max=4.08D-03 NDo=     1
 LinEq1:  Iter=  2 NonCon=     1 RMS=9.06D-05 Max=8.40D-04 NDo=     1
 LinEq1:  Iter=  3 NonCon=     1 RMS=1.88D-05 Max=1.19D-04 NDo=     1
 LinEq1:  Iter=  4 NonCon=     1 RMS=6.48D-06 Max=4.49D-05 NDo=     1
 LinEq1:  Iter=  5 NonCon=     1 RMS=1.63D-06 Max=9.29D-06 NDo=     1
 LinEq1:  Iter=  6 NonCon=     1 RMS=3.12D-07 Max=2.06D-06 NDo=     1
 LinEq1:  Iter=  7 NonCon=     1 RMS=1.01D-07 Max=7.10D-07 NDo=     1
 LinEq1:  Iter=  8 NonCon=     1 RMS=3.00D-08 Max=2.23D-07 NDo=     1
 LinEq1:  Iter=  9 NonCon=     1 RMS=6.00D-09 Max=5.40D-08 NDo=     1
 LinEq1:  Iter= 10 NonCon=     1 RMS=9.98D-10 Max=1.05D-08 NDo=     1
 LinEq1:  Iter= 11 NonCon=     1 RMS=1.29D-10 Max=7.08D-10 NDo=     1
 LinEq1:  Iter= 12 NonCon=     0 RMS=1.69D-11 Max=1.30D-10 NDo=     1
 Linear equations converged to 1.000D-10 1.000D-09 after    12 iterations.
 End of Minotr F.D. properties file   721 does not exist.
 End of Minotr F.D. properties file   722 does not exist.
 End of Minotr F.D. properties file   788 does not exist.
 Calling FoFJK, ICntrl=  10002127 FMM=F ISym2X=1 I1Cent= 0 IOpClX= 0 NMat=1 NMatS=1 NMatT=0.
 ***** Axes restored to original set *****
 -------------------------------------------------------------------
 Center     Atomic                   Forces (Hartrees/Bohr)
 Number     Number              X              Y              Z
 -------------------------------------------------------------------
      1        8           0.039810992    0.000000000    0.015247740
      2        1          -0.009162787    0.000000000   -0.055138280
      3        1          -0.026000556    0.000000000    0.026211356
      4        8          -0.011503729    0.000000000    0.018159354
      5        1          -0.000644169    0.000000000   -0.010788305
      6        1           0.007500248    0.000000000    0.006308135
 -------------------------------------------------------------------
 Cartesian Forces:  Max     0.055138280 RMS     0.019691518

 GradGradGradGradGradGradGradGradGradGradGradGradGradGradGradGradGradGrad
 Berny optimization.
 Using GEDIIS/GDIIS optimizer.
 FormGI is forming the generalized inverse of G from B-inverse, IUseBI=4.
 Internal  Forces:  Max     0.043619251 RMS     0.016385367
 Search for a local minimum.
 Step number   4 out of a maximum of   24
 All quantities printed in internal units (Hartrees-Bohrs-Radians)
 Mixed Optimization -- RFO/linear search
 Update second derivatives using D2CorX and points    2    4
 DE= -3.72D-03 DEPred=-4.07D-03 R= 9.16D-01
 TightC=F SS=  1.41D+00  RLast= 4.99D-01 DXNew= 8.4853D-01 1.4976D+00
 Trust test= 9.16D-01 RLast= 4.99D-01 DXMaxT set to 8.49D-01
 The second derivative matrix:
                          R1        R2        R3        R4        R5
           R1           0.51040
           R2          -0.01033   0.59687
           R3           0.00305   0.02857   0.05823
           R4          -0.00062   0.01204   0.01040   0.55831
           R5           0.01001   0.02122   0.00399   0.00654   0.56331
           A1          -0.04847  -0.06753   0.01935  -0.02086  -0.01959
           A2           0.02990   0.04603  -0.04084   0.01418   0.00964
           A3          -0.02008  -0.02086   0.01157  -0.00684  -0.00594
           A4          -0.02187  -0.06119   0.01021  -0.01633  -0.01406
           A5           0.00989   0.00954  -0.00117   0.00289   0.00260
           A6           0.00000   0.00000   0.00000   0.00000   0.00000
           A7           0.00000   0.00000   0.00000   0.00000   0.00000
           D1           0.00000   0.00000   0.00000   0.00000   0.00000
           D2           0.00000   0.00000   0.00000   0.00000   0.00000
                          A1        A2        A3        A4        A5
           A1           0.18842
           A2           0.00348   0.13978
           A3           0.00305   0.00555   0.16027
           A4           0.02333  -0.00408  -0.00027   0.03553
           A5          -0.00130  -0.00055  -0.00038  -0.00113   0.01578
           A6           0.00000   0.00000   0.00000   0.00000   0.00000
           A7           0.00000   0.00000   0.00000   0.00000   0.00000
           D1           0.00000   0.00000   0.00000   0.00000   0.00000
           D2           0.00000   0.00000   0.00000   0.00000   0.00000
                          A6        A7        D1        D2
           A6           0.00230
           A7           0.00000   0.01558
           D1           0.00000   0.00000   0.00230
           D2           0.00000   0.00000   0.00000   0.01558
 ITU=  1  0  1  0
 Use linear search instead of GDIIS.
     Eigenvalues ---    0.00230   0.00230   0.01558   0.01572   0.03638
     Eigenvalues ---    0.06991   0.15227   0.17612   0.51778   0.55456
     Eigenvalues ---    0.55737   0.63719
 RFO step:  Lambda=-1.97755411D-02 EMin= 2.30000000D-03
 Quartic linear search produced a step of -0.29758.
 Iteration  1 RMS(Cart)=  0.21007905 RMS(Int)=  0.07553551
 Iteration  2 RMS(Cart)=  0.09161173 RMS(Int)=  0.00534330
 Iteration  3 RMS(Cart)=  0.00406379 RMS(Int)=  0.00000677
 Iteration  4 RMS(Cart)=  0.00000853 RMS(Int)=  0.00000000
 Iteration  5 RMS(Cart)=  0.00000000 RMS(Int)=  0.00000000
 ClnCor:  largest displacement from symmetrization is 8.21D-10 for atom     3.
 Variable       Old X    -DE/DX   Delta X   Delta X   Delta X     New X
                                 (Linear)    (Quad)   (Total)
    R1        1.94488  -0.04362  -0.03235  -0.10002  -0.13237   1.81251
    R2        1.88329  -0.03668  -0.02219  -0.12773  -0.14993   1.73336
    R3        3.08059   0.01435  -0.08075   0.49642   0.41568   3.49627
    R4        1.83152  -0.01081  -0.00550  -0.03903  -0.04453   1.78699
    R5        1.83376  -0.00877  -0.00514  -0.02250  -0.02764   1.80612
    A1        1.86526  -0.00785   0.00378  -0.12666  -0.12288   1.74238
    A2        1.54677   0.00527  -0.02728   0.23292   0.20564   1.75241
    A3        1.85683  -0.00274   0.00827  -0.08633  -0.07806   1.77877
    A4        3.73666  -0.00272  -0.11297  -0.25127  -0.36424   3.37241
    A5        3.40359   0.00253  -0.01901   0.14659   0.12759   3.53118
    A6        3.14159   0.00000   0.00000   0.00000   0.00000   3.14159
    A7        3.14159   0.00000   0.00000   0.00000   0.00000   3.14159
    D1        3.14159   0.00000   0.00000   0.00000   0.00000   3.14159
    D2        3.14159   0.00000   0.00000   0.00000   0.00000   3.14159
         Item               Value     Threshold  Converged?
 Maximum Force            0.043619     0.000450     NO 
 RMS     Force            0.016385     0.000300     NO 
 Maximum Displacement     0.585601     0.001800     NO 
 RMS     Displacement     0.287946     0.001200     NO 
 Predicted change in Energy=-1.489203D-02
 GradGradGradGradGradGradGradGradGradGradGradGradGradGradGradGradGradGrad

                          Input orientation:                          
 ---------------------------------------------------------------------
 Center     Atomic      Atomic             Coordinates (Angstroms)
 Number     Number       Type             X           Y           Z
 ---------------------------------------------------------------------
      1          8           0        0.057700    0.000000   -0.246760
      2          1           0        0.165206    0.000000    0.706334
      3          1           0        0.938236    0.000000   -0.503693
      4          8           0       -0.053523    0.000000    2.543503
      5          1           0        0.199696    0.000000    3.454602
      6          1           0       -1.007378    0.000000    2.603784
 ---------------------------------------------------------------------
                    Distance matrix (angstroms):
                    1          2          3          4          5
     1  O    0.000000
     2  H    0.959138   0.000000
     3  H    0.917256   1.435876   0.000000
     4  O    2.792479   1.850144   3.204526   0.000000
     5  H    3.704085   2.748485   4.026605   0.945633   0.000000
     6  H    3.043023   2.230531   3.666309   0.955758   1.476794
                    6
     6  H    0.000000
 Stoichiometry    H4O2
 Framework group  CS[SG(H4O2)]
 Deg. of freedom     9
 Full point group                 CS      NOp   2
 Largest Abelian subgroup         CS      NOp   2
 Largest concise Abelian subgroup C1      NOp   1
                         Standard orientation:                         
 ---------------------------------------------------------------------
 Center     Atomic      Atomic             Coordinates (Angstroms)
 Number     Number       Type             X           Y           Z
 ---------------------------------------------------------------------
      1          8           0       -0.017680   -1.478978    0.000000
      2          1           0        0.127702   -0.530923    0.000000
      3          1           0        0.851924   -1.770778    0.000000
      4          8           0       -0.017680    1.313501    0.000000
      5          1           0        0.271627    2.213792    0.000000
      6          1           0       -0.968377    1.411725    0.000000
 ---------------------------------------------------------------------
 Rotational constants (GHZ):    297.3979785      6.9227418      6.7652620
 Standard basis: 6-311+G(d,p) (5D, 7F)
 There are    54 symmetry adapted cartesian basis functions of A'  symmetry.
 There are    16 symmetry adapted cartesian basis functions of A"  symmetry.
 There are    52 symmetry adapted basis functions of A'  symmetry.
 There are    16 symmetry adapted basis functions of A"  symmetry.
    68 basis functions,   104 primitive gaussians,    70 cartesian basis functions
    10 alpha electrons       10 beta electrons
       nuclear repulsion energy        37.6390531806 Hartrees.
 NAtoms=    6 NActive=    6 NUniq=    6 SFac= 1.00D+00 NAtFMM=   60 NAOKFM=F Big=F
 Integral buffers will be    131072 words long.
 Raffenetti 1 integral format.
 Two-electron integral symmetry is turned on.
 One-electron integrals computed using PRISM.
 NBasis=    68 RedAO= T EigKep=  2.33D-03  NBF=    52    16
 NBsUse=    68 1.00D-06 EigRej= -1.00D+00 NBFU=    52    16
 Initial guess from the checkpoint file:  "H20Aggmp2.chk"
 B after Tr=     0.000000    0.000000    0.000000
         Rot=    0.999949    0.000000    0.000000    0.010065 Ang=   1.15 deg.
 Initial guess orbital symmetries:
       Occupied  (A') (A') (A') (A') (A') (A') (A') (A") (A') (A")
       Virtual   (A') (A') (A') (A') (A') (A') (A') (A') (A') (A')
                 (A') (A') (A') (A') (A') (A') (A') (A') (A') (A')
                 (A') (A') (A') (A') (A') (A') (A') (A') (A') (A')
                 (A') (A') (A') (A') (A') (A') (A') (A') (A') (A')
                 (A') (A') (A') (A') (A") (A") (A") (A") (A") (A")
                 (A") (A") (A") (A") (A") (A") (A") (A")
 ExpMin= 8.45D-02 ExpMax= 8.59D+03 ExpMxC= 1.30D+03 IAcc=2 IRadAn=         4 AccDes= 0.00D+00
 Harris functional with IExCor=  205 and IRadAn=       4 diagonalized for initial guess.
 HarFok:  IExCor=  205 AccDes= 0.00D+00 IRadAn=         4 IDoV= 1 UseB2=F ITyADJ=14
 ICtDFT=  3500011 ScaDFX=  1.000000  1.000000  1.000000  1.000000
 FoFCou: FMM=F IPFlag=           0 FMFlag=      100000 FMFlg1=           0
         NFxFlg=           0 DoJE=T BraDBF=F KetDBF=T FulRan=T
         wScrn=  0.000000 ICntrl=     500 IOpCl=  0 I1Cent=   200000004 NGrid=           0
         NMat0=    1 NMatS0=      1 NMatT0=    0 NMatD0=    1 NMtDS0=    0 NMtDT0=    0
 Petite list used in FoFCou.
 Keep R1 ints in memory in symmetry-blocked form, NReq=4286288.
 Requested convergence on RMS density matrix=1.00D-08 within 128 cycles.
 Requested convergence on MAX density matrix=1.00D-06.
 Requested convergence on             energy=1.00D-06.
 No special actions if energy rises.
 SCF Done:  E(RHF) =  -152.109357796     A.U. after   12 cycles
            NFock= 12  Conv=0.20D-08     -V/T= 1.9998
 Range of M.O.s used for correlation:     1    68
 NBasis=    68 NAE=    10 NBE=    10 NFC=     0 NFV=     0
 NROrb=     68 NOA=    10 NOB=    10 NVA=    58 NVB=    58
 Fully direct method using O(ONN) memory.
 JobTyp=1 Pass  1:  I=   1 to  10 NPSUse=  2 ParTrn=T ParDer=T DoDerP=T.
 Spin components of T(2) and E(2):
     alpha-alpha T2 =       0.1415067785D-01 E2=     -0.5920880151D-01
     alpha-beta  T2 =       0.8152745123D-01 E2=     -0.3643732540D+00
     beta-beta   T2 =       0.1415067785D-01 E2=     -0.5920880151D-01
 ANorm=    0.1053484128D+01
 E2 =    -0.4827908570D+00 EUMP2 =    -0.15259214865270D+03
          IDoAtm=111111
          Differentiating once with respect to electric field.
                with respect to dipole field.
          Differentiating once with respect to nuclear coordinates.
 Keep R1 ints in memory in symmetry-blocked form, NReq=4253041.
          There are     1 degrees of freedom in the 1st order CPHF.  IDoFFX=0 NUNeed=     1.
 LinEq1:  Iter=  0 NonCon=     1 RMS=5.64D-03 Max=5.96D-02 NDo=     1
 AX will form     1 AO Fock derivatives at one time.
 LinEq1:  Iter=  1 NonCon=     1 RMS=5.51D-04 Max=4.43D-03 NDo=     1
 LinEq1:  Iter=  2 NonCon=     1 RMS=7.60D-05 Max=6.00D-04 NDo=     1
 LinEq1:  Iter=  3 NonCon=     1 RMS=1.03D-05 Max=9.00D-05 NDo=     1
 LinEq1:  Iter=  4 NonCon=     1 RMS=4.18D-06 Max=2.45D-05 NDo=     1
 LinEq1:  Iter=  5 NonCon=     1 RMS=1.00D-06 Max=5.70D-06 NDo=     1
 LinEq1:  Iter=  6 NonCon=     1 RMS=2.04D-07 Max=1.43D-06 NDo=     1
 LinEq1:  Iter=  7 NonCon=     1 RMS=4.93D-08 Max=3.17D-07 NDo=     1
 LinEq1:  Iter=  8 NonCon=     1 RMS=1.67D-08 Max=1.01D-07 NDo=     1
 LinEq1:  Iter=  9 NonCon=     1 RMS=3.25D-09 Max=2.37D-08 NDo=     1
 LinEq1:  Iter= 10 NonCon=     1 RMS=5.39D-10 Max=3.98D-09 NDo=     1
 LinEq1:  Iter= 11 NonCon=     0 RMS=6.25D-11 Max=3.71D-10 NDo=     1
 Linear equations converged to 1.000D-10 1.000D-09 after    11 iterations.
 End of Minotr F.D. properties file   721 does not exist.
 End of Minotr F.D. properties file   722 does not exist.
 End of Minotr F.D. properties file   788 does not exist.
 Calling FoFJK, ICntrl=  10002127 FMM=F ISym2X=1 I1Cent= 0 IOpClX= 0 NMat=1 NMatS=1 NMatT=0.
 ***** Axes restored to original set *****
 -------------------------------------------------------------------
 Center     Atomic                   Forces (Hartrees/Bohr)
 Number     Number              X              Y              Z
 -------------------------------------------------------------------
      1        8          -0.041715700    0.000000000    0.013269889
      2        1          -0.004047944    0.000000000    0.005110322
      3        1           0.047687455    0.000000000   -0.022056414
      4        8          -0.005409609    0.000000000   -0.006759038
      5        1           0.010118929    0.000000000    0.013732101
      6        1          -0.006633132    0.000000000   -0.003296860
 -------------------------------------------------------------------
 Cartesian Forces:  Max     0.047687455 RMS     0.016898634

 GradGradGradGradGradGradGradGradGradGradGradGradGradGradGradGradGradGrad
 Berny optimization.
 Using GEDIIS/GDIIS optimizer.
 FormGI is forming the generalized inverse of G from B-inverse, IUseBI=4.
 Internal  Forces:  Max     0.051956654 RMS     0.015397651
 Search for a local minimum.
 Step number   5 out of a maximum of   24
 All quantities printed in internal units (Hartrees-Bohrs-Radians)
 Mixed Optimization -- RFO/linear search
 Update second derivatives using D2CorX and points    4    5
 DE= -6.28D-03 DEPred=-1.49D-02 R= 4.22D-01
 Trust test= 4.22D-01 RLast= 6.54D-01 DXMaxT set to 8.49D-01
 The second derivative matrix:
                          R1        R2        R3        R4        R5
           R1           0.46136
           R2           0.02505   0.75538
           R3          -0.00326   0.00809   0.06083
           R4           0.01097   0.06062   0.00415   0.57318
           R5           0.00817   0.04190   0.00112   0.01296   0.56528
           A1          -0.03033  -0.02141   0.01363  -0.00683  -0.01269
           A2           0.02172   0.03039  -0.03896   0.00945   0.00707
           A3          -0.00806   0.00153   0.00889  -0.00006  -0.00222
           A4          -0.01370  -0.04906   0.00881  -0.01268  -0.01186
           A5           0.01099   0.01406  -0.00175   0.00428   0.00320
[...]
  XXX=              0.5119  YYY=             22.4225  ZZZ=              0.0000  XYY=              7.3213
  XXY=              2.9617  XXZ=              0.0000  XZZ=              0.2618  YZZ=              0.8794
  YYZ=              0.0000  XYZ=              0.0000
 Hexadecapole moment (field-independent basis, Debye-Ang**3):
 XXXX=            -11.6527 YYYY=           -149.1415 ZZZZ=            -13.3348 XXXY=             -2.5389
 XXXZ=              0.0000 YYYX=             -8.7490 YYYZ=              0.0000 ZZZX=              0.0000
 ZZZY=              0.0000 XXYY=            -21.1560 XXZZ=             -4.7725 YYZZ=            -37.9691
 XXYZ=              0.0000 YYXZ=              0.0000 ZZXY=              0.7154
 N-N= 3.633105360260D+01 E-N=-4.339813859036D+02  KE= 1.519775841547D+02
 Symmetry A'   KE= 1.430384322069D+02
 Symmetry A"   KE= 8.939151947748D+00
  Exact polarizability:  14.806  -0.548  16.911   0.000   0.000  13.488
 Approx polarizability:  11.774  -0.341  11.660   0.000   0.000   8.664
 Calling FoFJK, ICntrl=  10100127 FMM=F ISym2X=1 I1Cent= 0 IOpClX= 0 NMat=1 NMatS=1 NMatT=0.
 Full mass-weighted force constant matrix:
 Low frequencies --- -224.0985  -96.6657   -0.0673   -0.0013   -0.0008    0.0012
 Low frequencies ---    0.5332    3.3781  135.6639
 ******    2 imaginary frequencies (negative Signs) ****** 
 Diagonal vibrational polarizability:
       45.8197008      87.6215815     883.4324768
 Harmonic frequencies (cm**-1), IR intensities (KM/Mole), Raman scattering
 activities (A**4/AMU), depolarization ratios for plane and unpolarized
 incident light, reduced masses (AMU), force constants (mDyne/A),
 and normal coordinates:
                      1                      2                      3
                     A"                     A"                     A'
 Frequencies --   -224.0985               -96.6656               135.6639
 Red. masses --      1.1638                 1.0568                 1.3347
 Frc consts  --      0.0344                 0.0058                 0.0145
 IR Inten    --    146.7545               273.4586                60.6899
  Atom  AN      X      Y      Z        X      Y      Z        X      Y      Z
     1   8     0.00   0.00   0.04     0.00   0.00  -0.04     0.02  -0.11   0.00
     2   1     0.00   0.00   0.09     0.00   0.00  -0.10    -0.39  -0.06   0.00
     3   1     0.00   0.00  -0.31     0.00   0.00   0.71     0.18   0.29   0.00
     4   8     0.00   0.00  -0.10     0.00   0.00  -0.04    -0.05   0.08   0.00
     5   1     0.00   0.00   0.90     0.00   0.00  -0.02     0.43  -0.29   0.00
     6   1     0.00   0.00   0.29     0.00   0.00   0.70     0.19   0.63   0.00
                      4                      5                      6
                     A'                     A'                     A"
 Frequencies --    175.1409               402.7344               468.0660
 Red. masses --      2.8214                 1.0847                 1.0415
 Frc consts  --      0.0510                 0.1037                 0.1344
 IR Inten    --     25.6143               122.5995               140.3348
  Atom  AN      X      Y      Z        X      Y      Z        X      Y      Z
     1   8     0.01   0.23   0.00     0.02   0.03   0.00     0.00   0.00  -0.04
     2   1    -0.25   0.26   0.00     0.56  -0.03   0.00     0.00   0.00   0.99
     3   1     0.10   0.48   0.00    -0.22  -0.60   0.00     0.00   0.00   0.02
     4   8    -0.03  -0.26   0.00    -0.06   0.00   0.00     0.00   0.00  -0.02
     5   1     0.36  -0.56   0.00     0.26  -0.25   0.00     0.00   0.00  -0.11
     6   1     0.15   0.19   0.00     0.09   0.37   0.00     0.00   0.00   0.07
                      7                      8                      9
                     A'                     A'                     A'
 Frequencies --   1635.0079              1670.1632              3830.6404
 Red. masses --      1.0850                 1.0757                 1.0514
 Frc consts  --      1.7088                 1.7680                 9.0900
 IR Inten    --     69.4145                44.0668               217.1493
  Atom  AN      X      Y      Z        X      Y      Z        X      Y      Z
     1   8     0.00   0.00   0.00     0.06   0.03   0.00    -0.03  -0.05   0.00
     2   1     0.02   0.00   0.00    -0.75   0.09   0.00     0.07   0.91   0.00
     3   1     0.01   0.02   0.00    -0.23  -0.61   0.00     0.36  -0.17   0.00
     4   8    -0.02   0.07   0.00     0.00   0.00   0.00     0.00  -0.01   0.00
     5   1     0.56  -0.43   0.00     0.00   0.00   0.00     0.04   0.05   0.00
     6   1    -0.28  -0.65   0.00    -0.01  -0.04   0.00    -0.06   0.03   0.00
                     10                     11                     12
                     A'                     A'                     A'
 Frequencies --   3884.1166              3982.6821              4005.1244
 Red. masses --      1.0458                 1.0760                 1.0818
 Frc consts  --      9.2955                10.0560                10.2243
 IR Inten    --     12.4457               109.3015                94.0030
  Atom  AN      X      Y      Z        X      Y      Z        X      Y      Z
     1   8     0.00   0.00   0.00     0.05  -0.05   0.00     0.00   0.00   0.00
     2   1     0.00  -0.08   0.00     0.06   0.38   0.00     0.00  -0.01   0.00
     3   1    -0.05   0.02   0.00    -0.85   0.34   0.00     0.01   0.00   0.00
     4   8     0.01  -0.05   0.00     0.00   0.00   0.00     0.07   0.02   0.00
     5   1     0.45   0.51   0.00    -0.02  -0.02   0.00    -0.45  -0.57   0.00
     6   1    -0.68   0.25   0.00     0.01   0.00   0.00    -0.63   0.27   0.00

 -------------------
 - Thermochemistry -
 -------------------
 Temperature   298.150 Kelvin.  Pressure   1.00000 Atm.
 Atom     1 has atomic number  8 and mass  15.99491
 Atom     2 has atomic number  1 and mass   1.00783
 Atom     3 has atomic number  1 and mass   1.00783
 Atom     4 has atomic number  8 and mass  15.99491
 Atom     5 has atomic number  1 and mass   1.00783
 Atom     6 has atomic number  1 and mass   1.00783
 Molecular mass:    36.02113 amu.
 Principal axes and moments of inertia in atomic units:
                           1         2         3
     Eigenvalues --     6.75563 287.19457 293.95020
           X           -0.02600   0.99966   0.00000
           Y            0.99966   0.02600   0.00000
           Z            0.00000   0.00000   1.00000
 This molecule is an asymmetric top.
 Rotational symmetry number  1.
 Rotational temperatures (Kelvin)     12.82099     0.30159     0.29465
 Rotational constants (GHZ):         267.14633     6.28404     6.13962
    2 imaginary frequencies ignored.
 Zero-point vibrational energy     120759.1 (Joules/Mol)
                                   28.86211 (Kcal/Mol)
 Warning -- explicit consideration of   4 degrees of freedom as
           vibrations may cause significant error
 Vibrational temperatures:    195.19   251.99   579.44   673.44  2352.41
          (Kelvin)           2402.99  5511.43  5588.37  5730.18  5762.47
 
 Zero-point correction=                           0.045995 (Hartree/Particle)
 Thermal correction to Energy=                    0.050657
 Thermal correction to Enthalpy=                  0.051602
 Thermal correction to Gibbs Free Energy=         0.020909
 Sum of electronic and zero-point Energies=           -152.549963
 Sum of electronic and thermal Energies=              -152.545300
 Sum of electronic and thermal Enthalpies=            -152.544356
 Sum of electronic and thermal Free Energies=         -152.575049
 
                     E (Thermal)             CV                S
                      KCal/Mol        Cal/Mol-Kelvin    Cal/Mol-Kelvin
 Total                   31.788             12.625             64.598
 Electronic               0.000              0.000              0.000
 Translational            0.889              2.981             36.674
 Rotational               0.889              2.981             20.972
 Vibrational             30.010              6.663              6.952
 Vibration     1          0.613              1.918              2.864
 Vibration     2          0.627              1.873              2.380
 Vibration     3          0.768              1.464              0.953
 Vibration     4          0.825              1.321              0.743
                       Q            Log10(Q)             Ln(Q)
 Total Bot       0.241345D-09         -9.617362        -22.144795
 Total V=0       0.345689D+12         11.538686         26.568807
 Vib (Bot)       0.332233D-20        -20.478558        -47.153622
 Vib (Bot)    1  0.150055D+01          0.176250          0.405830
 Vib (Bot)    2  0.114869D+01          0.060204          0.138626
 Vib (Bot)    3  0.441678D+00         -0.354894         -0.817174
 Vib (Bot)    4  0.360951D+00         -0.442552         -1.019014
 Vib (V=0)       0.475873D+01          0.677491          1.559980
 Vib (V=0)    1  0.208166D+01          0.318409          0.733164
 Vib (V=0)    2  0.175280D+01          0.243731          0.561212
 Vib (V=0)    3  0.116714D+01          0.067124          0.154559
 Vib (V=0)    4  0.111667D+01          0.047926          0.110354
 Electronic      0.100000D+01          0.000000          0.000000
 Translational   0.849750D+07          6.929291         15.955283
 Rotational      0.854878D+04          3.931904          9.053544
 ***** Axes restored to original set *****
 -------------------------------------------------------------------
 Center     Atomic                   Forces (Hartrees/Bohr)
 Number     Number              X              Y              Z
 -------------------------------------------------------------------
      1        8           0.000000958    0.000000000    0.000000364
      2        1           0.000000693    0.000000000   -0.000001023
      3        1          -0.000001375    0.000000000    0.000000049
      4        8          -0.000000706    0.000000000    0.000002122
      5        1          -0.000000040    0.000000000   -0.000000666
      6        1           0.000000469    0.000000000   -0.000000846
 -------------------------------------------------------------------
 Cartesian Forces:  Max     0.000002122 RMS     0.000000777
 FormGI is forming the generalized inverse of G from B-inverse, IUseBI=4.

 GradGradGradGradGradGradGradGradGradGradGradGradGradGradGradGradGradGrad
 Berny optimization.
 Internal  Forces:  Max     0.000001344 RMS     0.000000650
 Search for a local minimum.
 Step number   1 out of a maximum of    2
 All quantities printed in internal units (Hartrees-Bohrs-Radians)
 Second derivative matrix not updated -- analytic derivatives used.
 The second derivative matrix:
                          R1        R2        R3        R4        R5
           R1           0.54114
           R2          -0.00727   0.56325
           R3           0.00828  -0.00051   0.00977
           R4          -0.00027  -0.00001   0.00060   0.56033
           R5          -0.00046   0.00001   0.00102  -0.00785   0.55820
           A1           0.02646   0.03052   0.00209   0.00050  -0.00002
           A2          -0.00016  -0.00025  -0.00061  -0.01016  -0.00778
           A3          -0.00184   0.00010   0.00147   0.01854   0.01781
           A4          -0.00167  -0.00094   0.00035  -0.00002   0.00045
           A5          -0.00200  -0.00015   0.00086   0.00839   0.01003
           A6           0.00000   0.00000   0.00000   0.00000   0.00000
           A7           0.00000   0.00000   0.00000   0.00000   0.00000
           D1           0.00000   0.00000   0.00000   0.00000   0.00000
           D2           0.00000   0.00000   0.00000   0.00000   0.00000
                          A1        A2        A3        A4        A5
           A1           0.14992
           A2          -0.00113   0.02140
           A3          -0.00039  -0.03537   0.07005
           A4          -0.00475   0.00339  -0.00074   0.00890
           A5          -0.00152  -0.01396   0.03468   0.00265   0.02072
           A6           0.00000   0.00000   0.00000   0.00000   0.00000
           A7           0.00000   0.00000   0.00000   0.00000   0.00000
           D1           0.00000   0.00000   0.00000   0.00000   0.00000
           D2           0.00000   0.00000   0.00000   0.00000   0.00000
                          A6        A7        D1        D2
           A6           0.00308
           A7          -0.00014  -0.00046
           D1          -0.00108  -0.00041  -0.00056
           D2           0.00019   0.00063   0.00057  -0.00086
 ITU=  0
     Eigenvalues ---   -0.00186  -0.00032   0.00338   0.00361   0.00949
     Eigenvalues ---    0.01226   0.10289   0.14604   0.54191   0.55357
     Eigenvalues ---    0.56669   0.56721
 Eigenvalue     1 is  -1.86D-03 should be greater than     0.000000 Eigenvector:
                          D2        D1        A7        A6        R3
   1                    0.64968  -0.56986  -0.47627  -0.16227   0.00000
                          A2        A5        A4        A3        R1
   1                    0.00000   0.00000   0.00000   0.00000   0.00000
 Eigenvalue     2 is  -3.15D-04 should be greater than     0.000000 Eigenvector:
                          D1        D2        A7        A6        R3
   1                   -0.77875  -0.47781   0.35028  -0.20626   0.00000
                          A2        A4        A5        A3        R4
   1                    0.00000   0.00000   0.00000   0.00000   0.00000
 Angle between quadratic step and forces=  54.18 degrees.
 Linear search not attempted -- first point.
 Iteration  1 RMS(Cart)=  0.00017426 RMS(Int)=  0.00000002
 Iteration  2 RMS(Cart)=  0.00000002 RMS(Int)=  0.00000000
 ClnCor:  largest displacement from symmetrization is 1.39D-12 for atom     4.
 Variable       Old X    -DE/DX   Delta X   Delta X   Delta X     New X
                                 (Linear)    (Quad)   (Total)
    R1        1.82193   0.00000   0.00000   0.00000   0.00000   1.82192
    R2        1.81024   0.00000   0.00000   0.00000   0.00000   1.81024
    R3        3.72955   0.00000   0.00000   0.00006   0.00006   3.72961
    R4        1.81226   0.00000   0.00000   0.00000   0.00000   1.81225
    R5        1.81348   0.00000   0.00000   0.00000   0.00000   1.81348
    A1        1.81000   0.00000   0.00000   0.00001   0.00001   1.81001
    A2        2.02989   0.00000   0.00000  -0.00015  -0.00015   2.02974
    A3        1.82877   0.00000   0.00000   0.00001   0.00001   1.82878
    A4        3.31658   0.00000   0.00000   0.00025   0.00025   3.31683
    A5        3.85866   0.00000   0.00000  -0.00015  -0.00015   3.85851
    A6        3.14159   0.00000   0.00000   0.00000   0.00000   3.14159
    A7        3.14159   0.00000   0.00000   0.00000   0.00000   3.14159
    D1        3.14159   0.00000   0.00000   0.00000   0.00000   3.14159
    D2        3.14159   0.00000   0.00000   0.00000   0.00000   3.14159
         Item               Value     Threshold  Converged?
 Maximum Force            0.000001     0.000450     YES
 RMS     Force            0.000001     0.000300     YES
 Maximum Displacement     0.000298     0.001800     YES
 RMS     Displacement     0.000174     0.001200     YES
 Predicted change in Energy=-2.392630D-10
 Optimization completed.
    -- Stationary point found.
                           ----------------------------
                           !   Optimized Parameters   !
                           ! (Angstroms and Degrees)  !
 --------------------------                            --------------------------
 ! Name  Definition              Value          Derivative Info.                !
 --------------------------------------------------------------------------------
 ! R1    R(1,2)                  0.9641         -DE/DX =    0.0                 !
 ! R2    R(1,3)                  0.9579         -DE/DX =    0.0                 !
 ! R3    R(2,4)                  1.9736         -DE/DX =    0.0                 !
 ! R4    R(4,5)                  0.959          -DE/DX =    0.0                 !
 ! R5    R(4,6)                  0.9597         -DE/DX =    0.0                 !
 ! A1    A(2,1,3)              103.7056         -DE/DX =    0.0                 !
 ! A2    A(2,4,6)              116.3042         -DE/DX =    0.0                 !
 ! A3    A(5,4,6)              104.781          -DE/DX =    0.0                 !
 ! A4    L(1,2,4,3,-1)         190.0262         -DE/DX =    0.0                 !
 ! A5    L(2,4,5,6,-1)         221.0851         -DE/DX =    0.0                 !
 ! A6    L(1,2,4,3,-2)         180.0            -DE/DX =    0.0                 !
 ! A7    L(2,4,5,6,-2)         180.0            -DE/DX =    0.0                 !
 ! D1    D(3,1,4,6)            180.0            -DE/DX =    0.0                 !
 ! D2    D(2,4,5,6)            180.0            -DE/DX =    0.0                 !
 --------------------------------------------------------------------------------
 GradGradGradGradGradGradGradGradGradGradGradGradGradGradGradGradGradGrad

 1\1\GINC-TC-NODE157\Freq\RMP2-Full\6-311+G(d,p)\H4O2\MAXB2\09-Oct-2016
 \0\\#N Geom=AllCheck Guess=TCheck SCRF=Check GenChk RMP2-Full/6-311+G(
 d,p) Freq\\Title Card Required\\0,1\O,0.1199107626,0.,-0.3329023923\H,
 0.1296878623,0.,0.6311698116\H,1.0482245895,0.,-0.569296008\O,-0.19418
 46383,0.,2.5780076637\H,0.3088902742,0.,3.3944666619\H,-1.1125928803,0
 .,2.8563241336\\Version=ES64L-G09RevD.01\State=1-A'\HF=-152.1119996\MP
 2=-152.5959578\RMSD=7.087e-10\RMSF=7.765e-07\ZeroPoint=0.0459947\Therm
 al=0.0506573\Dipole=0.3431221,0.,1.486378\DipoleDeriv=-0.4135011,0.,0.
 0978554,0.,-0.7630969,0.,0.111508,0.,-0.6872022,0.2416359,0.,-0.136172
 7,0.,0.3549945,0.,-0.0797783,0.,0.516624,0.127793,0.,0.002997,0.,0.370
 7224,0.,-0.0614489,0.,0.2885633,-0.5239975,0.,-0.0293529,0.,-0.7318771
 ,0.,-0.023685,0.,-0.5329782,0.3089426,0.,0.0119918,0.,0.388459,0.,-0.0
 105229,0.,0.1744634,0.2591271,0.,0.0526814,0.,0.3807982,0.,0.0639271,0
 .,0.2405297\Polar=14.9467456,0.,13.4880489,-0.759914,0.,16.7697482\PG=
 CS [SG(H4O2)]\NImag=2\\0.56357887,0.,0.00337649,-0.11004758,0.,0.60098
 114,-0.04805792,0.,-0.04040413,0.05939826,0.,-0.00574910,0.,0.,0.00790
 869,0.01891257,0.,-0.52134688,-0.01007560,0.,0.53422098,-0.51840373,0.
 ,0.14916397,-0.00547664,0.,-0.00984546,0.52367461,0.,0.00033764,0.,0.,
 0.00020821,0.,0.,-0.00032582,0.08898340,0.,-0.07245404,0.05055319,0.,-
 0.01170507,-0.13856447,0.,0.08532981,0.00390466,0.,0.00046199,-0.00747
 044,0.,0.00225501,0.00019251,0.,-0.00138940,0.68489932,0.,0.00274723,0
 .,0.,-0.00189142,0.,0.,-0.00065909,0.,0.,-0.00342952,0.00254032,0.,-0.
 00582452,-0.00146438,0.,-0.00389871,-0.00049720,0.,-0.00089870,0.07886
 069,0.,0.51501297,-0.00087966,0.,0.00160245,0.00179396,0.,-0.00321559,
 0.00006114,0.,0.00034684,-0.18122504,0.,-0.19034605,0.20280465,0.,-0.0
 0019184,0.,0.,-0.00102160,0.,0.,0.00044692,0.,0.,0.00248893,0.,0.,-0.0
 0122828,0.00097034,0.,-0.00036353,-0.00188123,0.,0.00088240,-0.0001285
 8,0.,-0.00052725,-0.25144638,0.,-0.41263193,0.23515232,0.,0.40627616,-
 0.00014222,0.,-0.00077670,-0.00018721,0.,0.00196908,-0.00004789,0.,0.0
 0007043,-0.50030101,0.,0.11090661,-0.02255506,0.,0.01733353,0.52323339
 ,0.,-0.00052041,0.,0.,0.00054523,0.,0.,-0.00000785,0.,0.,0.00074388,0.
 ,0.,-0.00049412,0.,0.,-0.00026672,-0.00135905,0.,-0.00099217,0.0032721
 6,0.,0.00184727,-0.00012826,0.,0.00025526,0.17125809,0.,-0.09175911,-0
 .04353998,0.,0.00636413,-0.12950295,0.,0.08428462\\-0.00000096,0.,-0.0
 0000036,-0.00000069,0.,0.00000102,0.00000137,0.,-0.00000005,0.00000071
 ,0.,-0.00000212,0.00000004,0.,0.00000067,-0.00000047,0.,0.00000085\\\@


 DON'T WORRY CHARLIE BROWN...WE LEARN MORE FROM LOSING  THAN WE DO FROM WINNING.
 THEN THAT MAKES ME THE SMARTEST PERSON IN THE WORLD...
 CHARLES SCHULZ 'PEANUTS'
 Job cpu time:       0 days  0 hours  0 minutes 32.0 seconds.
 File lengths (MBytes):  RWF=    157 Int=      0 D2E=      0 Chk=      2 Scr=      1
 Normal termination of Gaussian 09 at Sun Oct  9 22:28:35 2016.
