 Entering Gaussian System, Link 0=g09
 Initial command:
 /cluster/software/gaussian/gaussian-09-D.01/g09/l1.exe "/local/scratch/maxb2/Gau-28262.inp" -scrdir="/local/scratch/maxb2/"
 Entering Link 1 = /cluster/software/gaussian/gaussian-09-D.01/g09/l1.exe PID=     28263.
  
 Copyright (c) 1988,1990,1992,1993,1995,1998,2003,2009,2013,
            Gaussian, Inc.  All Rights Reserved.
  
 This is part of the Gaussian(R) 09 program.  It is based on
 the Gaussian(R) 03 system (copyright 2003, Gaussian, Inc.),
 the Gaussian(R) 98 system (copyright 1998, Gaussian, Inc.),
 the Gaussian(R) 94 system (copyright 1995, Gaussian, Inc.),
 the Gaussian 92(TM) system (copyright 1992, Gaussian, Inc.),
 the Gaussian 90(TM) system (copyright 1990, Gaussian, Inc.),
 the Gaussian 88(TM) system (copyright 1988, Gaussian, Inc.),
 the Gaussian 86(TM) system (copyright 1986, Carnegie Mellon
 University), and the Gaussian 82(TM) system (copyright 1983,
 Carnegie Mellon University). Gaussian is a federally registered
 trademark of Gaussian, Inc.
  
 This software contains proprietary and confidential information,
 including trade secrets, belonging to Gaussian, Inc.
  
 This software is provided under written license and may be
 used, copied, transmitted, or stored only in accord with that
 written license.
  
 The following legend is applicable only to US Government
 contracts under FAR:
  
                    RESTRICTED RIGHTS LEGEND
  
 Use, reproduction and disclosure by the US Government is
 subject to restrictions as set forth in subparagraphs (a)
 and (c) of the Commercial Computer Software - Restricted
 Rights clause in FAR 52.227-19.
  
 Gaussian, Inc.
 340 Quinnipiac St., Bldg. 40, Wallingford CT 06492
  
  
 ---------------------------------------------------------------
 Warning -- This program may not be used in any manner that
 competes with the business of Gaussian, Inc. or will provide
 assistance to any competitor of Gaussian, Inc.  The licensee
 of this program is prohibited from giving any competitor of
 Gaussian, Inc. access to this program.  By using this program,
 the user acknowledges that Gaussian, Inc. is engaged in the
 business of creating and licensing software in the field of
 computational chemistry and represents and warrants to the
 licensee that it is not a competitor of Gaussian, Inc. and that
 it will not use this program in any manner prohibited above.
 ---------------------------------------------------------------
  

 Cite this work as:
 Gaussian 09, Revision D.01,
 M. J. Frisch, G. W. Trucks, H. B. Schlegel, G. E. Scuseria, 
 M. A. Robb, J. R. Cheeseman, G. Scalmani, V. Barone, B. Mennucci, 
 G. A. Petersson, H. Nakatsuji, M. Caricato, X. Li, H. P. Hratchian, 
 A. F. Izmaylov, J. Bloino, G. Zheng, J. L. Sonnenberg, M. Hada, 
 M. Ehara, K. Toyota, R. Fukuda, J. Hasegawa, M. Ishida, T. Nakajima, 
 Y. Honda, O. Kitao, H. Nakai, T. Vreven, J. A. Montgomery, Jr., 
 J. E. Peralta, F. Ogliaro, M. Bearpark, J. J. Heyd, E. Brothers, 
 K. N. Kudin, V. N. Staroverov, T. Keith, R. Kobayashi, J. Normand, 
 K. Raghavachari, A. Rendell, J. C. Burant, S. S. Iyengar, J. Tomasi, 
 M. Cossi, N. Rega, J. M. Millam, M. Klene, J. E. Knox, J. B. Cross, 
 V. Bakken, C. Adamo, J. Jaramillo, R. Gomperts, R. E. Stratmann, 
 O. Yazyev, A. J. Austin, R. Cammi, C. Pomelli, J. W. Ochterski, 
 R. L. Martin, K. Morokuma, V. G. Zakrzewski, G. A. Voth, 
 P. Salvador, J. J. Dannenberg, S. Dapprich, A. D. Daniels, 
 O. Farkas, J. B. Foresman, J. V. Ortiz, J. Cioslowski, 
 and D. J. Fox, Gaussian, Inc., Wallingford CT, 2013.
 
 ******************************************
 Gaussian 09:  ES64L-G09RevD.01 24-Apr-2013
                10-Oct-2016 
 ******************************************
 %mem=6GB
 %nprocshared=2
 Will use up to    2 processors via shared memory.
 %chk=Li+OH2rhf
 ------------------------------------------
 # opt freq rhf/6-311+g** geom=connectivity
 ------------------------------------------
 1/18=20,19=15,38=1,57=2/1,3;
 2/9=110,12=2,17=6,18=5,40=1/2;
 3/5=4,6=6,7=111,11=1,16=1,25=1,30=1,71=1,116=1/1,2,3;
 4//1;
 5/5=2,38=5/2;
 6/7=2,8=2,9=2,10=2,28=1/1;
 7//1,2,3,16;
 1/18=20,19=15/3(2);
 2/9=110/2;
 99//99;
 2/9=110/2;
 3/5=4,6=6,7=111,11=1,16=1,25=1,30=1,71=1,116=1/1,2,3;
 4/5=5,16=3,69=1/1;
 5/5=2,38=5/2;
 7//1,2,3,16;
 1/18=20,19=15/3(-5);
 2/9=110/2;
 6/7=2,8=2,9=2,10=2,19=2,28=1/1;
 99/9=1/99;
 -------------------
 Title Card Required
 -------------------
 Symbolic Z-matrix:
 Charge =  1 Multiplicity = 1
 O
 H                    1    B1
 H                    1    B2       2    A1
 Li                   1    B3       2    A2       3    D1       0
       Variables:
  B1                    0.96                     
  B2                    0.96                     
  B3                    1.33794                  
  A1                  109.5                      
  A2                  129.74452                  
  D1                  180.                       
 

 GradGradGradGradGradGradGradGradGradGradGradGradGradGradGradGradGradGrad
 Berny optimization.
 Initialization pass.
                           ----------------------------
                           !    Initial Parameters    !
                           ! (Angstroms and Degrees)  !
 --------------------------                            --------------------------
 ! Name  Definition              Value          Derivative Info.                !
 --------------------------------------------------------------------------------
 ! R1    R(1,2)                  0.96           estimate D2E/DX2                !
 ! R2    R(1,3)                  0.96           estimate D2E/DX2                !
 ! R3    R(1,4)                  1.3379         estimate D2E/DX2                !
 ! A1    A(2,1,3)              109.5            estimate D2E/DX2                !
 ! A2    A(2,1,4)              129.7445         estimate D2E/DX2                !
 ! A3    A(3,1,4)              120.7555         estimate D2E/DX2                !
 ! D1    D(2,1,4,3)            180.0            estimate D2E/DX2                !
 --------------------------------------------------------------------------------
 Trust Radius=3.00D-01 FncErr=1.00D-07 GrdErr=1.00D-07
 Number of steps in this run=     20 maximum allowed number of steps=    100.
 GradGradGradGradGradGradGradGradGradGradGradGradGradGradGradGradGradGrad

                          Input orientation:                          
 ---------------------------------------------------------------------
 Center     Atomic      Atomic             Coordinates (Angstroms)
 Number     Number       Type             X           Y           Z
 ---------------------------------------------------------------------
      1          8           0        0.000000    0.000000    0.000000
      2          1           0        0.000000    0.000000    0.960000
      3          1           0        0.904936    0.000000   -0.320455
      4          3           0       -1.028744    0.000000   -0.855431
 ---------------------------------------------------------------------
                    Distance matrix (angstroms):
                    1          2          3          4
     1  O    0.000000
     2  H    0.960000   0.000000
     3  H    0.960000   1.567952   0.000000
     4  Li   1.337938   2.086649   2.006320   0.000000
 Stoichiometry    H2LiO(1+)
 Framework group  CS[SG(H2LiO)]
 Deg. of freedom     5
 Full point group                 CS      NOp   2
 Largest Abelian subgroup         CS      NOp   2
 Largest concise Abelian subgroup C1      NOp   1
                         Standard orientation:                         
 ---------------------------------------------------------------------
 Center     Atomic      Atomic             Coordinates (Angstroms)
 Number     Number       Type             X           Y           Z
 ---------------------------------------------------------------------
      1          8           0        0.006680   -0.223777    0.000000
      2          1           0        0.744827   -0.837568    0.000000
      3          1           0       -0.818303   -0.714697    0.000000
      4          3           0        0.006680    1.114161    0.000000
 ---------------------------------------------------------------------
 Rotational constants (GHZ):    409.3132016     48.3773607     43.2639299
 Standard basis: 6-311+G(d,p) (5D, 7F)
 There are    44 symmetry adapted cartesian basis functions of A'  symmetry.
 There are    14 symmetry adapted cartesian basis functions of A"  symmetry.
 There are    42 symmetry adapted basis functions of A'  symmetry.
 There are    14 symmetry adapted basis functions of A"  symmetry.
    56 basis functions,    88 primitive gaussians,    58 cartesian basis functions
     6 alpha electrons        6 beta electrons
       nuclear repulsion energy        20.2015958528 Hartrees.
 NAtoms=    4 NActive=    4 NUniq=    4 SFac= 1.00D+00 NAtFMM=   60 NAOKFM=F Big=F
 Integral buffers will be    131072 words long.
 Raffenetti 1 integral format.
 Two-electron integral symmetry is turned on.
 One-electron integrals computed using PRISM.
 NBasis=    56 RedAO= T EigKep=  2.04D-03  NBF=    42    14
 NBsUse=    56 1.00D-06 EigRej= -1.00D+00 NBFU=    42    14
 ExpMin= 7.40D-03 ExpMax= 8.59D+03 ExpMxC= 1.30D+03 IAcc=3 IRadAn=         5 AccDes= 0.00D+00
 Harris functional with IExCor=  205 and IRadAn=       5 diagonalized for initial guess.
 HarFok:  IExCor=  205 AccDes= 0.00D+00 IRadAn=         5 IDoV= 1 UseB2=F ITyADJ=14
 ICtDFT=  3500011 ScaDFX=  1.000000  1.000000  1.000000  1.000000
 FoFCou: FMM=F IPFlag=           0 FMFlag=      100000 FMFlg1=           0
         NFxFlg=           0 DoJE=T BraDBF=F KetDBF=T FulRan=T
         wScrn=  0.000000 ICntrl=     500 IOpCl=  0 I1Cent=   200000004 NGrid=           0
         NMat0=    1 NMatS0=      1 NMatT0=    0 NMatD0=    1 NMtDS0=    0 NMtDT0=    0
 Petite list used in FoFCou.
 Initial guess orbital symmetries:
       Occupied  (A') (A') (A') (A') (A') (A")
       Virtual   (A') (A') (A') (A") (A') (A') (A') (A") (A') (A')
                 (A") (A') (A') (A') (A") (A') (A') (A') (A') (A")
                 (A") (A') (A') (A') (A') (A") (A') (A') (A") (A')
                 (A') (A") (A') (A') (A") (A') (A') (A') (A') (A')
                 (A") (A") (A') (A') (A') (A') (A") (A') (A') (A')
 The electronic state of the initial guess is 1-A'.
 Keep R1 ints in memory in symmetry-blocked form, NReq=2145807.
 Requested convergence on RMS density matrix=1.00D-08 within 128 cycles.
 Requested convergence on MAX density matrix=1.00D-06.
 Requested convergence on             energy=1.00D-06.
 No special actions if energy rises.
 SCF Done:  E(RHF) =  -83.2730513162     A.U. after   10 cycles
            NFock= 10  Conv=0.24D-08     -V/T= 1.9936

 **********************************************************************

            Population analysis using the SCF density.

 **********************************************************************

 Orbital symmetries:
       Occupied  (A') (A') (A') (A') (A') (A")
       Virtual   (A') (A') (A') (A") (A') (A') (A') (A") (A') (A')
                 (A") (A') (A') (A') (A') (A") (A') (A') (A') (A")
                 (A") (A') (A') (A') (A') (A") (A') (A') (A') (A")
                 (A') (A") (A') (A') (A") (A') (A') (A') (A') (A')
                 (A") (A") (A') (A') (A') (A') (A") (A') (A') (A')
 The electronic state is 1-A'.
 Alpha  occ. eigenvalues --  -20.83669  -2.68665  -1.65164  -1.02543  -0.91764
 Alpha  occ. eigenvalues --   -0.81689
 Alpha virt. eigenvalues --   -0.15222  -0.10428  -0.09889  -0.09068  -0.06200
 Alpha virt. eigenvalues --   -0.04887  -0.04717  -0.04490  -0.00738   0.01294
 Alpha virt. eigenvalues --    0.01826   0.03501   0.04322   0.05611   0.08596
 Alpha virt. eigenvalues --    0.09289   0.13816   0.26660   0.35122   0.35425
 Alpha virt. eigenvalues --    0.39118   0.40534   0.43828   0.48057   0.48539
 Alpha virt. eigenvalues --    0.49797   0.63314   0.65165   1.00472   1.03365
 Alpha virt. eigenvalues --    1.12208   1.25403   1.48258   1.52438   1.70433
 Alpha virt. eigenvalues --    1.71935   2.08700   2.18822   2.48133   2.71736
 Alpha virt. eigenvalues --    3.17289   3.25584   3.29676   3.84189   4.03207
 Alpha virt. eigenvalues --    4.59498   5.24534   5.68582   5.95207  51.36148
          Condensed to atoms (all electrons):
               1          2          3          4
     1  O    7.379617   0.359308   0.354605   0.229129
     2  H    0.359308   0.303043  -0.014936  -0.018976
     3  H    0.354605  -0.014936   0.317408  -0.019039
     4  Li   0.229129  -0.018976  -0.019039   2.219748
 Mulliken charges:
               1
     1  O   -0.322659
     2  H    0.371560
     3  H    0.361961
     4  Li   0.589137
 Sum of Mulliken charges =   1.00000
 Mulliken charges with hydrogens summed into heavy atoms:
               1
     1  O    0.410863
     4  Li   0.589137
 Electronic spatial extent (au):  <R**2>=             30.8810
 Charge=              1.0000 electrons
 Dipole moment (field-independent basis, Debye):
    X=             -0.1349    Y=              2.3029    Z=              0.0000  Tot=              2.3068
 Quadrupole moment (field-independent basis, Debye-Ang):
   XX=             -3.8061   YY=              1.4580   ZZ=             -7.6699
   XY=             -0.0998   XZ=              0.0000   YZ=              0.0000
 Traceless Quadrupole moment (field-independent basis, Debye-Ang):
   XX=             -0.4667   YY=              4.7973   ZZ=             -4.3306
   XY=             -0.0998   XZ=              0.0000   YZ=              0.0000
 Octapole moment (field-independent basis, Debye-Ang**2):
  XXX=             -0.3692  YYY=              7.9577  ZZZ=              0.0000  XYY=              0.3318
  XXY=             -1.2201  XXZ=              0.0000  XZZ=             -0.0152  YZZ=              1.3245
  YYZ=              0.0000  XYZ=              0.0000
 Hexadecapole moment (field-independent basis, Debye-Ang**3):
 XXXX=             -4.7016 YYYY=             -3.5036 ZZZZ=             -6.1820 XXXY=              0.1323
 XXXZ=              0.0000 YYYX=             -0.3394 YYYZ=              0.0000 ZZZX=              0.0000
 ZZZY=              0.0000 XXYY=             -1.1236 XXZZ=             -2.2181 YYZZ=             -3.0943
 XXYZ=              0.0000 YYXZ=              0.0000 ZZXY=              0.0088
 N-N= 2.020159585276D+01 E-N=-2.348873905594D+02  KE= 8.380800059719D+01
 Symmetry A'   KE= 7.936051927834D+01
 Symmetry A"   KE= 4.447481318855D+00
 Calling FoFJK, ICntrl=      2127 FMM=F ISym2X=1 I1Cent= 0 IOpClX= 0 NMat=1 NMatS=1 NMatT=0.
 ***** Axes restored to original set *****
 -------------------------------------------------------------------
 Center     Atomic                   Forces (Hartrees/Bohr)
 Number     Number              X              Y              Z
 -------------------------------------------------------------------
      1        8           0.175960038    0.000000000    0.145398257
      2        1           0.010178334    0.000000000   -0.009840117
      3        1          -0.003819145    0.000000000    0.014222587
      4        3          -0.182319226    0.000000000   -0.149780727
 -------------------------------------------------------------------
 Cartesian Forces:  Max     0.182319226 RMS     0.094953694

 GradGradGradGradGradGradGradGradGradGradGradGradGradGradGradGradGradGrad
 Berny optimization.
 FormGI is forming the generalized inverse of G from B-inverse, IUseBI=4.
 Internal  Forces:  Max     0.235950422 RMS     0.089537236
 Search for a local minimum.
 Step number   1 out of a maximum of   20
 All quantities printed in internal units (Hartrees-Bohrs-Radians)
 Mixed Optimization -- RFO/linear search
 Second derivative matrix not updated -- first step.
 The second derivative matrix:
                          R1        R2        R3        A1        A2
           R1           0.55473
           R2           0.00000   0.55473
           R3           0.00000   0.00000   0.57670
           A1           0.00000   0.00000   0.00000   0.16000
           A2           0.00000   0.00000   0.00000   0.00000   0.16000
           A3           0.00000   0.00000   0.00000   0.00000   0.00000
           D1           0.00000   0.00000   0.00000   0.00000   0.00000
                          A3        D1
           A3           0.16000
           D1           0.00000   0.08203
 ITU=  0
     Eigenvalues ---    0.08203   0.16000   0.16000   0.55473   0.55473
     Eigenvalues ---    0.57670
 RFO step:  Lambda=-8.54739065D-02 EMin= 8.20272705D-02
 Linear search not attempted -- first point.
 Maximum step size (   0.300) exceeded in Quadratic search.
    -- Step size scaled by   0.826
 Iteration  1 RMS(Cart)=  0.07407328 RMS(Int)=  0.03562179
 Iteration  2 RMS(Cart)=  0.03074481 RMS(Int)=  0.00000719
 Iteration  3 RMS(Cart)=  0.00000730 RMS(Int)=  0.00000000
 Iteration  4 RMS(Cart)=  0.00000000 RMS(Int)=  0.00000000
 ClnCor:  largest displacement from symmetrization is 1.51D-09 for atom     1.
 Variable       Old X    -DE/DX   Delta X   Delta X   Delta X     New X
                                 (Linear)    (Quad)   (Total)
    R1        1.81414  -0.00984   0.00000  -0.01269  -0.01269   1.80145
    R2        1.81414  -0.00835   0.00000  -0.01077  -0.01077   1.80337
    R3        2.52834   0.23595   0.00000   0.29422   0.29422   2.82255
    A1        1.91114  -0.01349   0.00000  -0.04538  -0.04538   1.86576
    A2        2.26447   0.00497   0.00000   0.01673   0.01673   2.28120
    A3        2.10758   0.00852   0.00000   0.02865   0.02865   2.13623
    D1        3.14159   0.00000   0.00000   0.00000   0.00000   3.14159
         Item               Value     Threshold  Converged?
 Maximum Force            0.235950     0.000450     NO 
 RMS     Force            0.089537     0.000300     NO 
 Maximum Displacement     0.184931     0.001800     NO 
 RMS     Displacement     0.104025     0.001200     NO 
 Predicted change in Energy=-4.528470D-02
 GradGradGradGradGradGradGradGradGradGradGradGradGradGradGradGradGradGrad

                          Input orientation:                          
 ---------------------------------------------------------------------
 Center     Atomic      Atomic             Coordinates (Angstroms)
 Number     Number       Type             X           Y           Z
 ---------------------------------------------------------------------
      1          8           0        0.025366    0.000000    0.019441
      2          1           0        0.044829    0.000000    0.972526
      3          1           0        0.932602    0.000000   -0.276561
      4          3           0       -1.126606    0.000000   -0.931292
 ---------------------------------------------------------------------
                    Distance matrix (angstroms):
                    1          2          3          4
     1  O    0.000000
     2  H    0.953284   0.000000
     3  H    0.954303   1.532436   0.000000
     4  Li   1.493630   2.235348   2.160789   0.000000
 Stoichiometry    H2LiO(1+)
 Framework group  CS[SG(H2LiO)]
 Deg. of freedom     5
 Full point group                 CS      NOp   2
 Largest Abelian subgroup         CS      NOp   2
 Largest concise Abelian subgroup C1      NOp   1
                         Standard orientation:                         
 ---------------------------------------------------------------------
 Center     Atomic      Atomic             Coordinates (Angstroms)
 Number     Number       Type             X           Y           Z
 ---------------------------------------------------------------------
      1          8           0        0.006391   -0.257532    0.000000
      2          1           0        0.729076   -0.879206    0.000000
      3          1           0       -0.799380   -0.768831    0.000000
      4          3           0        0.006391    1.236098    0.000000
 ---------------------------------------------------------------------
 Rotational constants (GHZ):    428.1336317     39.4169545     36.0938995
 Standard basis: 6-311+G(d,p) (5D, 7F)
 There are    44 symmetry adapted cartesian basis functions of A'  symmetry.
 There are    14 symmetry adapted cartesian basis functions of A"  symmetry.
 There are    42 symmetry adapted basis functions of A'  symmetry.
 There are    14 symmetry adapted basis functions of A"  symmetry.
    56 basis functions,    88 primitive gaussians,    58 cartesian basis functions
     6 alpha electrons        6 beta electrons
       nuclear repulsion energy        19.1701698629 Hartrees.
 NAtoms=    4 NActive=    4 NUniq=    4 SFac= 1.00D+00 NAtFMM=   60 NAOKFM=F Big=F
 Integral buffers will be    131072 words long.
 Raffenetti 1 integral format.
 Two-electron integral symmetry is turned on.
 One-electron integrals computed using PRISM.
 NBasis=    56 RedAO= T EigKep=  2.71D-03  NBF=    42    14
 NBsUse=    56 1.00D-06 EigRej= -1.00D+00 NBFU=    42    14
 Initial guess from the checkpoint file:  "Li+OH2rhf.chk"
 B after Tr=     0.000000    0.000000    0.000000
         Rot=    0.999999    0.000000    0.000000   -0.001039 Ang=  -0.12 deg.
 Initial guess orbital symmetries:
       Occupied  (A') (A') (A') (A') (A') (A")
       Virtual   (A') (A') (A') (A') (A') (A') (A') (A') (A') (A')
                 (A') (A') (A') (A') (A') (A') (A') (A') (A') (A')
                 (A') (A') (A') (A') (A') (A') (A') (A') (A') (A')
                 (A') (A') (A') (A') (A') (A') (A') (A") (A") (A")
                 (A") (A") (A") (A") (A") (A") (A") (A") (A") (A")
 ExpMin= 7.40D-03 ExpMax= 8.59D+03 ExpMxC= 1.30D+03 IAcc=3 IRadAn=         5 AccDes= 0.00D+00
 Harris functional with IExCor=  205 and IRadAn=       5 diagonalized for initial guess.
 HarFok:  IExCor=  205 AccDes= 0.00D+00 IRadAn=         5 IDoV= 1 UseB2=F ITyADJ=14
 ICtDFT=  3500011 ScaDFX=  1.000000  1.000000  1.000000  1.000000
 FoFCou: FMM=F IPFlag=           0 FMFlag=      100000 FMFlg1=           0
         NFxFlg=           0 DoJE=T BraDBF=F KetDBF=T FulRan=T
         wScrn=  0.000000 ICntrl=     500 IOpCl=  0 I1Cent=   200000004 NGrid=           0
         NMat0=    1 NMatS0=      1 NMatT0=    0 NMatD0=    1 NMtDS0=    0 NMtDT0=    0
 Petite list used in FoFCou.
 Keep R1 ints in memory in symmetry-blocked form, NReq=2145731.
 Requested convergence on RMS density matrix=1.00D-08 within 128 cycles.
 Requested convergence on MAX density matrix=1.00D-06.
 Requested convergence on             energy=1.00D-06.
 No special actions if energy rises.
 SCF Done:  E(RHF) =  -83.3215267215     A.U. after    9 cycles
            NFock=  9  Conv=0.41D-08     -V/T= 1.9971
 Calling FoFJK, ICntrl=      2127 FMM=F ISym2X=1 I1Cent= 0 IOpClX= 0 NMat=1 NMatS=1 NMatT=0.
 ***** Axes restored to original set *****
 -------------------------------------------------------------------
 Center     Atomic                   Forces (Hartrees/Bohr)
 Number     Number              X              Y              Z
 -------------------------------------------------------------------
      1        8           0.080309581    0.000000000    0.062599047
      2        1           0.002571596    0.000000000   -0.004045368
      3        1          -0.002251753    0.000000000    0.006022242
      4        3          -0.080629424    0.000000000   -0.064575921
 -------------------------------------------------------------------
 Cartesian Forces:  Max     0.080629424 RMS     0.041936201

 GradGradGradGradGradGradGradGradGradGradGradGradGradGradGradGradGradGrad
 Berny optimization.
 Using GEDIIS/GDIIS optimizer.
 FormGI is forming the generalized inverse of G from B-inverse, IUseBI=4.
 Internal  Forces:  Max     0.103290122 RMS     0.039173577
 Search for a local minimum.
 Step number   2 out of a maximum of   20
 All quantities printed in internal units (Hartrees-Bohrs-Radians)
 Mixed Optimization -- RFO/linear search
 Update second derivatives using D2CorX and points    1    2
 DE= -4.85D-02 DEPred=-4.53D-02 R= 1.07D+00
 TightC=F SS=  1.41D+00  RLast= 3.00D-01 DXNew= 5.0454D-01 9.0000D-01
 Trust test= 1.07D+00 RLast= 3.00D-01 DXMaxT set to 5.05D-01
 The second derivative matrix:
                          R1        R2        R3        A1        A2
           R1           0.55461
           R2          -0.00019   0.55450
           R3           0.00410   0.00555   0.45024
           A1           0.00030   0.00011  -0.00526   0.16094
           A2          -0.00033  -0.00021   0.00707  -0.00069   0.16044
           A3           0.00004   0.00010  -0.00180  -0.00025   0.00025
           D1           0.00000   0.00000   0.00000   0.00000   0.00000
                          A3        D1
           A3           0.16000
           D1           0.00000   0.08203
 ITU=  1  0
 Use linear search instead of GDIIS.
 Linear search step of   0.600 exceeds DXMaxT=   0.505 but not scaled.
 Quartic linear search produced a step of  2.00000.
 Iteration  1 RMS(Cart)=  0.08657129 RMS(Int)=  0.14690521
 Iteration  2 RMS(Cart)=  0.06505929 RMS(Int)=  0.07130751
 Iteration  3 RMS(Cart)=  0.06175147 RMS(Int)=  0.00001241
 Iteration  4 RMS(Cart)=  0.00001331 RMS(Int)=  0.00000000
 Iteration  5 RMS(Cart)=  0.00000000 RMS(Int)=  0.00000000
 ClnCor:  largest displacement from symmetrization is 2.40D-09 for atom     1.
 Variable       Old X    -DE/DX   Delta X   Delta X   Delta X     New X
                                 (Linear)    (Quad)   (Total)
    R1        1.80145  -0.00399  -0.02538   0.00000  -0.02538   1.77606
    R2        1.80337  -0.00401  -0.02153   0.00000  -0.02153   1.78184
    R3        2.82255   0.10329   0.58843   0.00000   0.58843   3.41098
    A1        1.86576  -0.00462  -0.09076   0.00000  -0.09076   1.77500
    A2        2.28120   0.00017   0.03346   0.00000   0.03346   2.31466
    A3        2.13623   0.00445   0.05730   0.00000   0.05730   2.19353
    D1        3.14159   0.00000   0.00000   0.00000   0.00000   3.14159
         Item               Value     Threshold  Converged?
 Maximum Force            0.103290     0.000450     NO 
 RMS     Force            0.039174     0.000300     NO 
 Maximum Displacement     0.369841     0.001800     NO 
 RMS     Displacement     0.207495     0.001200     NO 
 Predicted change in Energy=-1.785674D-02
 GradGradGradGradGradGradGradGradGradGradGradGradGradGradGradGradGradGrad

                          Input orientation:                          
 ---------------------------------------------------------------------
 Center     Atomic      Atomic             Coordinates (Angstroms)
 Number     Number       Type             X           Y           Z
 ---------------------------------------------------------------------
      1          8           0        0.077236    0.000000    0.058104
      2          1           0        0.133935    0.000000    0.996244
      3          1           0        0.987338    0.000000   -0.188456
      4          3           0       -1.322317    0.000000   -1.081778
 ---------------------------------------------------------------------
                    Distance matrix (angstroms):
                    1          2          3          4
     1  O    0.000000
     2  H    0.939853   0.000000
     3  H    0.942908   1.460072   0.000000
     4  Li   1.805015   2.537488   2.476394   0.000000
 Stoichiometry    H2LiO(1+)
 Framework group  CS[SG(H2LiO)]
 Deg. of freedom     5
 Full point group                 CS      NOp   2
 Largest Abelian subgroup         CS      NOp   2
 Largest concise Abelian subgroup C1      NOp   1
                         Standard orientation:                         
 ---------------------------------------------------------------------
 Center     Atomic      Atomic             Coordinates (Angstroms)
 Number     Number       Type             X           Y           Z
 ---------------------------------------------------------------------
      1          8           0        0.005716   -0.325283    0.000000
      2          1           0        0.697316   -0.961689    0.000000
      3          1           0       -0.760195   -0.875243    0.000000
      4          3           0        0.005716    1.479732    0.000000
 ---------------------------------------------------------------------
 Rotational constants (GHZ):    470.9850558     27.5916428     26.0646987
 Standard basis: 6-311+G(d,p) (5D, 7F)
 There are    44 symmetry adapted cartesian basis functions of A'  symmetry.
 There are    14 symmetry adapted cartesian basis functions of A"  symmetry.
 There are    42 symmetry adapted basis functions of A'  symmetry.
 There are    14 symmetry adapted basis functions of A"  symmetry.
    56 basis functions,    88 primitive gaussians,    58 cartesian basis functions
     6 alpha electrons        6 beta electrons
       nuclear repulsion energy        17.6593090768 Hartrees.
 NAtoms=    4 NActive=    4 NUniq=    4 SFac= 1.00D+00 NAtFMM=   60 NAOKFM=F Big=F
 Integral buffers will be    131072 words long.
 Raffenetti 1 integral format.
 Two-electron integral symmetry is turned on.
 One-electron integrals computed using PRISM.
 NBasis=    56 RedAO= T EigKep=  3.51D-03  NBF=    42    14
 NBsUse=    56 1.00D-06 EigRej= -1.00D+00 NBFU=    42    14
 Initial guess from the checkpoint file:  "Li+OH2rhf.chk"
 B after Tr=     0.000000    0.000000    0.000000
         Rot=    0.999999    0.000000    0.000000   -0.001675 Ang=  -0.19 deg.
 Initial guess orbital symmetries:
       Occupied  (A') (A') (A') (A') (A') (A")
       Virtual   (A') (A') (A') (A') (A') (A') (A') (A') (A') (A')
                 (A') (A') (A') (A') (A') (A') (A') (A') (A') (A')
                 (A') (A') (A') (A') (A') (A') (A') (A') (A') (A')
                 (A') (A') (A') (A') (A') (A') (A') (A") (A") (A")
                 (A") (A") (A") (A") (A") (A") (A") (A") (A") (A")
 ExpMin= 7.40D-03 ExpMax= 8.59D+03 ExpMxC= 1.30D+03 IAcc=3 IRadAn=         5 AccDes= 0.00D+00
 Harris functional with IExCor=  205 and IRadAn=       5 diagonalized for initial guess.
 HarFok:  IExCor=  205 AccDes= 0.00D+00 IRadAn=         5 IDoV= 1 UseB2=F ITyADJ=14
 ICtDFT=  3500011 ScaDFX=  1.000000  1.000000  1.000000  1.000000
 FoFCou: FMM=F IPFlag=           0 FMFlag=      100000 FMFlg1=           0
         NFxFlg=           0 DoJE=T BraDBF=F KetDBF=T FulRan=T
         wScrn=  0.000000 ICntrl=     500 IOpCl=  0 I1Cent=   200000004 NGrid=           0
         NMat0=    1 NMatS0=      1 NMatT0=    0 NMatD0=    1 NMtDS0=    0 NMtDT0=    0
 Petite list used in FoFCou.
 Keep R1 ints in memory in symmetry-blocked form, NReq=2145599.
 Requested convergence on RMS density matrix=1.00D-08 within 128 cycles.
 Requested convergence on MAX density matrix=1.00D-06.
 Requested convergence on             energy=1.00D-06.
 No special actions if energy rises.
 SCF Done:  E(RHF) =  -83.3460708691     A.U. after    9 cycles
            NFock=  9  Conv=0.46D-08     -V/T= 1.9997
 Calling FoFJK, ICntrl=      2127 FMM=F ISym2X=1 I1Cent= 0 IOpClX= 0 NMat=1 NMatS=1 NMatT=0.
 ***** Axes restored to original set *****
 -------------------------------------------------------------------
 Center     Atomic                   Forces (Hartrees/Bohr)
 Number     Number              X              Y              Z
 -------------------------------------------------------------------
      1        8           0.008186703    0.000000000    0.000316125
      2        1          -0.009461609    0.000000000    0.011793683
      3        1           0.005647520    0.000000000   -0.009915558
      4        3          -0.004372613    0.000000000   -0.002194251
 -------------------------------------------------------------------
 Cartesian Forces:  Max     0.011793683 RMS     0.006122924

 GradGradGradGradGradGradGradGradGradGradGradGradGradGradGradGradGradGrad
 Berny optimization.
 Using GEDIIS/GDIIS optimizer.
 FormGI is forming the generalized inverse of G from B-inverse, IUseBI=4.
 Internal  Forces:  Max     0.011201410 RMS     0.007513065
 Search for a local minimum.
 Step number   3 out of a maximum of   20
 All quantities printed in internal units (Hartrees-Bohrs-Radians)
 Mixed Optimization -- RFO/linear search
 Update second derivatives using D2CorX and points    2    3
 The second derivative matrix:
                          R1        R2        R3        A1        A2
           R1           0.55756
           R2           0.00218   0.55642
           R3          -0.00103   0.00048   0.16734
           A1           0.00285   0.00221  -0.00068   0.16288
           A2          -0.00147  -0.00115   0.00300  -0.00149   0.16076
           A3          -0.00138  -0.00106  -0.00231  -0.00139   0.00074
           D1           0.00000   0.00000   0.00000   0.00000   0.00000
                          A3        D1
           A3           0.16065
           D1           0.00000   0.08203
 ITU=  0  1  0
 Use linear search instead of GDIIS.
     Eigenvalues ---    0.08203   0.15838   0.16415   0.16905   0.55473
     Eigenvalues ---    0.55930
 RFO step:  Lambda=-1.56911926D-03 EMin= 8.20272705D-02
 Quartic linear search produced a step of  0.03855.
 Iteration  1 RMS(Cart)=  0.02913758 RMS(Int)=  0.00060928
 Iteration  2 RMS(Cart)=  0.00050051 RMS(Int)=  0.00000019
 Iteration  3 RMS(Cart)=  0.00000018 RMS(Int)=  0.00000000
 ClnCor:  largest displacement from symmetrization is 6.23D-11 for atom     1.
 Variable       Old X    -DE/DX   Delta X   Delta X   Delta X     New X
                                 (Linear)    (Quad)   (Total)
    R1        1.77606   0.01120  -0.00098   0.02037   0.01940   1.79546
    R2        1.78184   0.00804  -0.00083   0.01460   0.01377   1.79561
    R3        3.41098   0.00478   0.02268   0.02037   0.04305   3.45403
    A1        1.77500   0.01082  -0.00350   0.06619   0.06269   1.83768
    A2        2.31466  -0.00722   0.00129  -0.04479  -0.04350   2.27116
    A3        2.19353  -0.00360   0.00221  -0.02140  -0.01919   2.17434
    D1        3.14159   0.00000   0.00000   0.00000   0.00000   3.14159
         Item               Value     Threshold  Converged?
 Maximum Force            0.011201     0.000450     NO 
 RMS     Force            0.007513     0.000300     NO 
 Maximum Displacement     0.039943     0.001800     NO 
 RMS     Displacement     0.029046     0.001200     NO 
 Predicted change in Energy=-7.716789D-04
 GradGradGradGradGradGradGradGradGradGradGradGradGradGradGradGradGradGrad

                          Input orientation:                          
 ---------------------------------------------------------------------
 Center     Atomic      Atomic             Coordinates (Angstroms)
 Number     Number       Type             X           Y           Z
 ---------------------------------------------------------------------
      1          8           0        0.091898    0.000000    0.062975
      2          1           0        0.112798    0.000000    1.012862
      3          1           0        1.002721    0.000000   -0.207722
      4          3           0       -1.331225    0.000000   -1.084001
 ---------------------------------------------------------------------
                    Distance matrix (angstroms):
                    1          2          3          4
     1  O    0.000000
     2  H    0.950117   0.000000
     3  H    0.950198   1.510559   0.000000
     4  Li   1.827795   2.545985   2.493024   0.000000
 Stoichiometry    H2LiO(1+)
 Framework group  CS[SG(H2LiO)]
 Deg. of freedom     5
 Full point group                 CS      NOp   2
 Largest Abelian subgroup         CS      NOp   2
 Largest concise Abelian subgroup C1      NOp   1
                         Standard orientation:                         
 ---------------------------------------------------------------------
 Center     Atomic      Atomic             Coordinates (Angstroms)
 Number     Number       Type             X           Y           Z
 ---------------------------------------------------------------------
      1          8           0        0.004297   -0.333211    0.000000
      2          1           0        0.730764   -0.945556    0.000000
      3          1           0       -0.778028   -0.872510    0.000000
      4          3           0        0.004297    1.494584    0.000000
 ---------------------------------------------------------------------
 Rotational constants (GHZ):    440.0040553     27.0618884     25.4939175
 Standard basis: 6-311+G(d,p) (5D, 7F)
 There are    44 symmetry adapted cartesian basis functions of A'  symmetry.
 There are    14 symmetry adapted cartesian basis functions of A"  symmetry.
 There are    42 symmetry adapted basis functions of A'  symmetry.
 There are    14 symmetry adapted basis functions of A"  symmetry.
    56 basis functions,    88 primitive gaussians,    58 cartesian basis functions
     6 alpha electrons        6 beta electrons
       nuclear repulsion energy        17.4700364785 Hartrees.
 NAtoms=    4 NActive=    4 NUniq=    4 SFac= 1.00D+00 NAtFMM=   60 NAOKFM=F Big=F
 Integral buffers will be    131072 words long.
 Raffenetti 1 integral format.
 Two-electron integral symmetry is turned on.
 One-electron integrals computed using PRISM.
 NBasis=    56 RedAO= T EigKep=  3.83D-03  NBF=    42    14
 NBsUse=    56 1.00D-06 EigRej= -1.00D+00 NBFU=    42    14
 Initial guess from the checkpoint file:  "Li+OH2rhf.chk"
 B after Tr=     0.000000    0.000000    0.000000
         Rot=    0.999999    0.000000    0.000000   -0.001374 Ang=  -0.16 deg.
 Initial guess orbital symmetries:
       Occupied  (A') (A') (A') (A') (A') (A")
       Virtual   (A') (A') (A') (A') (A') (A') (A') (A') (A') (A')
                 (A') (A') (A') (A') (A') (A') (A') (A') (A') (A')
                 (A') (A') (A') (A') (A') (A') (A') (A') (A') (A')
                 (A') (A') (A') (A') (A') (A') (A') (A") (A") (A")
                 (A") (A") (A") (A") (A") (A") (A") (A") (A") (A")
 ExpMin= 7.40D-03 ExpMax= 8.59D+03 ExpMxC= 1.30D+03 IAcc=3 IRadAn=         5 AccDes= 0.00D+00
 Harris functional with IExCor=  205 and IRadAn=       5 diagonalized for initial guess.
 HarFok:  IExCor=  205 AccDes= 0.00D+00 IRadAn=         5 IDoV= 1 UseB2=F ITyADJ=14
 ICtDFT=  3500011 ScaDFX=  1.000000  1.000000  1.000000  1.000000
 FoFCou: FMM=F IPFlag=           0 FMFlag=      100000 FMFlg1=           0
         NFxFlg=           0 DoJE=T BraDBF=F KetDBF=T FulRan=T
         wScrn=  0.000000 ICntrl=     500 IOpCl=  0 I1Cent=   200000004 NGrid=           0
         NMat0=    1 NMatS0=      1 NMatT0=    0 NMatD0=    1 NMtDS0=    0 NMtDT0=    0
 Petite list used in FoFCou.
 Keep R1 ints in memory in symmetry-blocked form, NReq=2145599.
 Requested convergence on RMS density matrix=1.00D-08 within 128 cycles.
 Requested convergence on MAX density matrix=1.00D-06.
 Requested convergence on             energy=1.00D-06.
 No special actions if energy rises.
 SCF Done:  E(RHF) =  -83.3469942208     A.U. after    8 cycles
            NFock=  8  Conv=0.91D-08     -V/T= 2.0003
 Calling FoFJK, ICntrl=      2127 FMM=F ISym2X=1 I1Cent= 0 IOpClX= 0 NMat=1 NMatS=1 NMatT=0.
 ***** Axes restored to original set *****
 -------------------------------------------------------------------
 Center     Atomic                   Forces (Hartrees/Bohr)
 Number     Number              X              Y              Z
 -------------------------------------------------------------------
      1        8           0.007290046    0.000000000    0.003311909
      2        1          -0.002866783    0.000000000   -0.002316385
      3        1          -0.002369834    0.000000000   -0.000469042
      4        3          -0.002053429    0.000000000   -0.000526482
 -------------------------------------------------------------------
 Cartesian Forces:  Max     0.007290046 RMS     0.002708435

 GradGradGradGradGradGradGradGradGradGradGradGradGradGradGradGradGradGrad
 Berny optimization.
 Using GEDIIS/GDIIS optimizer.
 FormGI is forming the generalized inverse of G from B-inverse, IUseBI=4.
 Internal  Forces:  Max     0.002696445 RMS     0.001960230
 Search for a local minimum.
 Step number   4 out of a maximum of   20
 All quantities printed in internal units (Hartrees-Bohrs-Radians)
 Mixed Optimization -- RFO/linear search
 Update second derivatives using D2CorX and points    3    4
 DE= -9.23D-04 DEPred=-7.72D-04 R= 1.20D+00
 TightC=F SS=  1.41D+00  RLast= 9.28D-02 DXNew= 8.4853D-01 2.7836D-01
 Trust test= 1.20D+00 RLast= 9.28D-02 DXMaxT set to 5.05D-01
 The second derivative matrix:
                          R1        R2        R3        A1        A2
           R1           0.62192
           R2           0.05288   0.59618
           R3          -0.01941  -0.01174   0.14316
           A1           0.01969   0.01711  -0.02698   0.15160
           A2          -0.00052  -0.00198   0.02340   0.01385   0.14625
           A3          -0.01917  -0.01514   0.00358  -0.00545  -0.00010
           D1           0.00000   0.00000   0.00000   0.00000   0.00000
                          A3        D1
           A3           0.16555
           D1           0.00000   0.08203
 ITU=  1  0  1  0
 Use linear search instead of GDIIS.
     Eigenvalues ---    0.08203   0.10324   0.16421   0.17543   0.55465
     Eigenvalues ---    0.66712
 RFO step:  Lambda=-1.24307730D-04 EMin= 8.20272705D-02
 Quartic linear search produced a step of  0.20833.
 Iteration  1 RMS(Cart)=  0.01120013 RMS(Int)=  0.00012814
 Iteration  2 RMS(Cart)=  0.00012150 RMS(Int)=  0.00000000
 Iteration  3 RMS(Cart)=  0.00000000 RMS(Int)=  0.00000000
 ClnCor:  largest displacement from symmetrization is 5.37D-13 for atom     1.
 Variable       Old X    -DE/DX   Delta X   Delta X   Delta X     New X
                                 (Linear)    (Quad)   (Total)
    R1        1.79546  -0.00238   0.00404  -0.00756  -0.00352   1.79194
    R2        1.79561  -0.00214   0.00287  -0.00640  -0.00353   1.79209
    R3        3.45403   0.00193   0.00897   0.01240   0.02137   3.47540
    A1        1.83768   0.00236   0.01306   0.00995   0.02301   1.86069
    A2        2.27116  -0.00270  -0.00906  -0.01539  -0.02445   2.24670
    A3        2.17434   0.00034  -0.00400   0.00544   0.00145   2.17579
    D1        3.14159   0.00000   0.00000   0.00000   0.00000   3.14159
         Item               Value     Threshold  Converged?
 Maximum Force            0.002696     0.000450     NO 
 RMS     Force            0.001960     0.000300     NO 
 Maximum Displacement     0.017550     0.001800     NO 
 RMS     Displacement     0.011203     0.001200     NO 
 Predicted change in Energy=-8.692073D-05
 GradGradGradGradGradGradGradGradGradGradGradGradGradGradGradGradGradGrad

                          Input orientation:                          
 ---------------------------------------------------------------------
 Center     Atomic      Atomic             Coordinates (Angstroms)
 Number     Number       Type             X           Y           Z
 ---------------------------------------------------------------------
      1          8           0        0.100876    0.000000    0.064009
      2          1           0        0.103511    0.000000    1.012258
      3          1           0        1.008879    0.000000   -0.209599
      4          3           0       -1.337074    0.000000   -1.082554
 ---------------------------------------------------------------------
                    Distance matrix (angstroms):
                    1          2          3          4
     1  O    0.000000
     2  H    0.948253   0.000000
     3  H    0.948331   1.520732   0.000000
     4  Li   1.839104   2.542346   2.503107   0.000000
 Stoichiometry    H2LiO(1+)
 Framework group  CS[SG(H2LiO)]
 Deg. of freedom     5
 Full point group                 CS      NOp   2
 Largest Abelian subgroup         CS      NOp   2
 Largest concise Abelian subgroup C1      NOp   1
                         Standard orientation:                         
 ---------------------------------------------------------------------
 Center     Atomic      Atomic             Coordinates (Angstroms)
 Number     Number       Type             X           Y           Z
 ---------------------------------------------------------------------
      1          8           0        0.003095   -0.337286    0.000000
      2          1           0        0.742865   -0.930518    0.000000
      3          1           0       -0.776913   -0.876654    0.000000
      4          3           0        0.003095    1.501819    0.000000
 ---------------------------------------------------------------------
 Rotational constants (GHZ):    433.9321175     26.8098297     25.2498090
 Standard basis: 6-311+G(d,p) (5D, 7F)
 There are    44 symmetry adapted cartesian basis functions of A'  symmetry.
 There are    14 symmetry adapted cartesian basis functions of A"  symmetry.
 There are    42 symmetry adapted basis functions of A'  symmetry.
 There are    14 symmetry adapted basis functions of A"  symmetry.
    56 basis functions,    88 primitive gaussians,    58 cartesian basis functions
     6 alpha electrons        6 beta electrons
       nuclear repulsion energy        17.4408180666 Hartrees.
 NAtoms=    4 NActive=    4 NUniq=    4 SFac= 1.00D+00 NAtFMM=   60 NAOKFM=F Big=F
 Integral buffers will be    131072 words long.
 Raffenetti 1 integral format.
 Two-electron integral symmetry is turned on.
 One-electron integrals computed using PRISM.
 NBasis=    56 RedAO= T EigKep=  3.89D-03  NBF=    42    14
 NBsUse=    56 1.00D-06 EigRej= -1.00D+00 NBFU=    42    14
 Initial guess from the checkpoint file:  "Li+OH2rhf.chk"
 B after Tr=     0.000000    0.000000    0.000000
         Rot=    0.999999    0.000000    0.000000   -0.001380 Ang=  -0.16 deg.
 Initial guess orbital symmetries:
       Occupied  (A') (A') (A') (A') (A') (A")
       Virtual   (A') (A') (A') (A') (A') (A') (A') (A') (A') (A')
                 (A') (A') (A') (A') (A') (A') (A') (A') (A') (A')
                 (A') (A') (A') (A') (A') (A') (A') (A') (A') (A')
                 (A') (A') (A') (A') (A') (A') (A') (A") (A") (A")
                 (A") (A") (A") (A") (A") (A") (A") (A") (A") (A")
 Keep R1 ints in memory in symmetry-blocked form, NReq=2145599.
 Requested convergence on RMS density matrix=1.00D-08 within 128 cycles.
 Requested convergence on MAX density matrix=1.00D-06.
 Requested convergence on             energy=1.00D-06.
 No special actions if energy rises.
 SCF Done:  E(RHF) =  -83.3471015291     A.U. after    8 cycles
            NFock=  8  Conv=0.33D-08     -V/T= 2.0003
 Calling FoFJK, ICntrl=      2127 FMM=F ISym2X=1 I1Cent= 0 IOpClX= 0 NMat=1 NMatS=1 NMatT=0.
 ***** Axes restored to original set *****
 -------------------------------------------------------------------
 Center     Atomic                   Forces (Hartrees/Bohr)
 Number     Number              X              Y              Z
 -------------------------------------------------------------------
      1        8           0.001641402    0.000000000   -0.000364514
      2        1          -0.000354507    0.000000000   -0.000783450
      3        1          -0.000359052    0.000000000    0.001056581
      4        3          -0.000927844    0.000000000    0.000091383
 -------------------------------------------------------------------
 Cartesian Forces:  Max     0.001641402 RMS     0.000688057

 GradGradGradGradGradGradGradGradGradGradGradGradGradGradGradGradGradGrad
 Berny optimization.
 Using GEDIIS/GDIIS optimizer.
 FormGI is forming the generalized inverse of G from B-inverse, IUseBI=4.
 Internal  Forces:  Max     0.001295328 RMS     0.000774508
 Search for a local minimum.
 Step number   5 out of a maximum of   20
 All quantities printed in internal units (Hartrees-Bohrs-Radians)
 Mixed Optimization -- En-DIIS/RFO-DIIS
 Update second derivatives using D2CorX and points    3    4    5
 DE= -1.07D-04 DEPred=-8.69D-05 R= 1.23D+00
 TightC=F SS=  1.41D+00  RLast= 4.01D-02 DXNew= 8.4853D-01 1.2042D-01
 Trust test= 1.23D+00 RLast= 4.01D-02 DXMaxT set to 5.05D-01
 The second derivative matrix:
                          R1        R2        R3        A1        A2
           R1           0.61690
           R2           0.04785   0.59137
           R3          -0.01053  -0.00391   0.13292
           A1           0.02938   0.02372  -0.03021   0.17477
           A2          -0.01306  -0.01302   0.03782   0.01842   0.12593
           A3          -0.01632  -0.01070  -0.00760  -0.03319   0.01565
           D1           0.00000   0.00000   0.00000   0.00000   0.00000
                          A3        D1
           A3           0.17755
           D1           0.00000   0.08203
 ITU=  1  1  0  1  0
 Use linear search instead of GDIIS.
     Eigenvalues ---    0.07166   0.08203   0.16565   0.20891   0.55465
     Eigenvalues ---    0.65857
 RFO step:  Lambda=-2.12917453D-05 EMin= 7.16600067D-02
 Quartic linear search produced a step of  0.26637.
 Iteration  1 RMS(Cart)=  0.00699935 RMS(Int)=  0.00002730
 Iteration  2 RMS(Cart)=  0.00002766 RMS(Int)=  0.00000000
 Iteration  3 RMS(Cart)=  0.00000000 RMS(Int)=  0.00000000
 ClnCor:  largest displacement from symmetrization is 9.78D-13 for atom     1.
 Variable       Old X    -DE/DX   Delta X   Delta X   Delta X     New X
                                 (Linear)    (Quad)   (Total)
    R1        1.79194  -0.00078  -0.00094  -0.00025  -0.00119   1.79075
    R2        1.79209  -0.00065  -0.00094  -0.00024  -0.00118   1.79091
    R3        3.47540   0.00067   0.00569   0.00406   0.00975   3.48516
    A1        1.86069  -0.00033   0.00613  -0.00288   0.00325   1.86394
    A2        2.24670  -0.00096  -0.00651  -0.00597  -0.01249   2.23422
    A3        2.17579   0.00130   0.00039   0.00886   0.00924   2.18503
    D1        3.14159   0.00000   0.00000   0.00000   0.00000   3.14159
         Item               Value     Threshold  Converged?
 Maximum Force            0.001295     0.000450     NO 
 RMS     Force            0.000775     0.000300     NO 
 Maximum Displacement     0.009403     0.001800     NO 
 RMS     Displacement     0.007003     0.001200     NO 
 Predicted change in Energy=-1.550463D-05
 GradGradGradGradGradGradGradGradGradGradGradGradGradGradGradGradGradGrad

                          Input orientation:                          
 ---------------------------------------------------------------------
 Center     Atomic      Atomic             Coordinates (Angstroms)
 Number     Number       Type             X           Y           Z
 ---------------------------------------------------------------------
      1          8           0        0.104872    0.000000    0.062253
      2          1           0        0.099751    0.000000    1.009863
      3          1           0        1.013618    0.000000   -0.206693
      4          3           0       -1.342050    0.000000   -1.081309
 ---------------------------------------------------------------------
                    Distance matrix (angstroms):
                    1          2          3          4
     1  O    0.000000
     2  H    0.947624   0.000000
     3  H    0.947709   1.521565   0.000000
     4  Li   1.844266   2.540038   2.512792   0.000000
 Stoichiometry    H2LiO(1+)
 Framework group  CS[SG(H2LiO)]
 Deg. of freedom     5
 Full point group                 CS      NOp   2
 Largest Abelian subgroup         CS      NOp   2
 Largest concise Abelian subgroup C1      NOp   1
                         Standard orientation:                         
 ---------------------------------------------------------------------
 Center     Atomic      Atomic             Coordinates (Angstroms)
 Number     Number       Type             X           Y           Z
 ---------------------------------------------------------------------
      1          8           0        0.002143   -0.338696    0.000000
      2          1           0        0.748767   -0.922257    0.000000
      3          1           0       -0.772340   -0.884890    0.000000
      4          3           0        0.002143    1.505570    0.000000
 ---------------------------------------------------------------------
 Rotational constants (GHZ):    433.3201594     26.6787877     25.1314848
 Standard basis: 6-311+G(d,p) (5D, 7F)
 There are    44 symmetry adapted cartesian basis functions of A'  symmetry.
 There are    14 symmetry adapted cartesian basis functions of A"  symmetry.
 There are    42 symmetry adapted basis functions of A'  symmetry.
 There are    14 symmetry adapted basis functions of A"  symmetry.
    56 basis functions,    88 primitive gaussians,    58 cartesian basis functions
     6 alpha electrons        6 beta electrons
       nuclear repulsion energy        17.4253192110 Hartrees.
 NAtoms=    4 NActive=    4 NUniq=    4 SFac= 1.00D+00 NAtFMM=   60 NAOKFM=F Big=F
 Integral buffers will be    131072 words long.
 Raffenetti 1 integral format.
 Two-electron integral symmetry is turned on.
 One-electron integrals computed using PRISM.
 NBasis=    56 RedAO= T EigKep=  3.90D-03  NBF=    42    14
 NBsUse=    56 1.00D-06 EigRej= -1.00D+00 NBFU=    42    14
 Initial guess from the checkpoint file:  "Li+OH2rhf.chk"
 B after Tr=     0.000000    0.000000    0.000000
         Rot=    0.999999    0.000000    0.000000   -0.001133 Ang=  -0.13 deg.
 Initial guess orbital symmetries:
       Occupied  (A') (A') (A') (A') (A') (A")
       Virtual   (A') (A') (A') (A') (A') (A') (A') (A') (A') (A')
                 (A') (A') (A') (A') (A') (A') (A') (A') (A') (A')
                 (A') (A') (A') (A') (A') (A') (A') (A') (A') (A')
                 (A') (A') (A') (A') (A') (A') (A') (A") (A") (A")
                 (A") (A") (A") (A") (A") (A") (A") (A") (A") (A")
 Keep R1 ints in memory in symmetry-blocked form, NReq=2145599.
 Requested convergence on RMS density matrix=1.00D-08 within 128 cycles.
 Requested convergence on MAX density matrix=1.00D-06.
 Requested convergence on             energy=1.00D-06.
 No special actions if energy rises.
 SCF Done:  E(RHF) =  -83.3471245442     A.U. after    7 cycles
            NFock=  7  Conv=0.95D-08     -V/T= 2.0003
 Calling FoFJK, ICntrl=      2127 FMM=F ISym2X=1 I1Cent= 0 IOpClX= 0 NMat=1 NMatS=1 NMatT=0.
 ***** Axes restored to original set *****
 -------------------------------------------------------------------
 Center     Atomic                   Forces (Hartrees/Bohr)
 Number     Number              X              Y              Z
 -------------------------------------------------------------------
      1        8           0.000019232    0.000000000   -0.001144249
      2        1           0.000119800    0.000000000   -0.000129994
      3        1           0.000209237    0.000000000    0.000975763
      4        3          -0.000348269    0.000000000    0.000298480
 -------------------------------------------------------------------
 Cartesian Forces:  Max     0.001144249 RMS     0.000460724

 GradGradGradGradGradGradGradGradGradGradGradGradGradGradGradGradGradGrad
 Berny optimization.
 Using GEDIIS/GDIIS optimizer.
 FormGI is forming the generalized inverse of G from B-inverse, IUseBI=4.
 Internal  Forces:  Max     0.001116914 RMS     0.000524356
 Search for a local minimum.
 Step number   6 out of a maximum of   20
 All quantities printed in internal units (Hartrees-Bohrs-Radians)
 Mixed Optimization -- En-DIIS/RFO-DIIS
 Swapping is turned off.
 Update second derivatives using D2CorX and points    3    4    5    6
 DE= -2.30D-05 DEPred=-1.55D-05 R= 1.48D+00
 TightC=F SS=  1.41D+00  RLast= 1.87D-02 DXNew= 8.4853D-01 5.6110D-02
 Trust test= 1.48D+00 RLast= 1.87D-02 DXMaxT set to 5.05D-01
 The second derivative matrix:
                          R1        R2        R3        A1        A2
           R1           0.62280
           R2           0.05506   0.59931
           R3          -0.01900  -0.01224   0.14024
           A1          -0.00814  -0.00810  -0.00749   0.18693
           A2          -0.01327  -0.01235   0.04001  -0.00133   0.11131
           A3           0.02141   0.02045  -0.03253  -0.02560   0.05002
           D1           0.00000   0.00000   0.00000   0.00000   0.00000
                          A3        D1
           A3           0.13558
           D1           0.00000   0.08203
 ITU=  1  1  1  0  1  0
     Eigenvalues ---    0.04184   0.08203   0.16550   0.20311   0.55478
     Eigenvalues ---    0.67094
 En-DIIS/RFO-DIIS IScMMF=        0 using points:     6    5
 RFO step:  Lambda=-6.47719582D-06.
 DidBck=F Rises=F RFO-DIIS coefs:    1.91871   -0.91871
 Iteration  1 RMS(Cart)=  0.00911733 RMS(Int)=  0.00004414
 Iteration  2 RMS(Cart)=  0.00004334 RMS(Int)=  0.00000000
 Iteration  3 RMS(Cart)=  0.00000000 RMS(Int)=  0.00000000
 ClnCor:  largest displacement from symmetrization is 3.63D-12 for atom     1.
 Variable       Old X    -DE/DX   Delta X   Delta X   Delta X     New X
                                 (Linear)    (Quad)   (Total)
    R1        1.79075  -0.00013  -0.00109   0.00035  -0.00074   1.79001
    R2        1.79091  -0.00008  -0.00108   0.00036  -0.00072   1.79019
    R3        3.48516   0.00009   0.00896  -0.00105   0.00791   3.49307
    A1        1.86394  -0.00067   0.00298  -0.00430  -0.00131   1.86263
    A2        2.23422  -0.00045  -0.01147  -0.00247  -0.01395   2.22027
    A3        2.18503   0.00112   0.00849   0.00677   0.01526   2.20029
    D1        3.14159   0.00000   0.00000   0.00000   0.00000   3.14159
         Item               Value     Threshold  Converged?
 Maximum Force            0.001117     0.000450     NO 
 RMS     Force            0.000524     0.000300     NO 
 Maximum Displacement     0.011365     0.001800     NO 
 RMS     Displacement     0.009115     0.001200     NO 
 Predicted change in Energy=-1.253420D-05
 GradGradGradGradGradGradGradGradGradGradGradGradGradGradGradGradGradGrad

                          Input orientation:                          
 ---------------------------------------------------------------------
 Center     Atomic      Atomic             Coordinates (Angstroms)
 Number     Number       Type             X           Y           Z
 ---------------------------------------------------------------------
      1          8           0        0.108737    0.000000    0.058740
      2          1           0        0.095856    0.000000    1.005883
      3          1           0        1.019633    0.000000   -0.201447
      4          3           0       -1.348035    0.000000   -1.079062
 ---------------------------------------------------------------------
                    Distance matrix (angstroms):
                    1          2          3          4
     1  O    0.000000
     2  H    0.947230   0.000000
     3  H    0.947326   1.520200   0.000000
     4  Li   1.848453   2.536103   2.525086   0.000000
 Stoichiometry    H2LiO(1+)
 Framework group  CS[SG(H2LiO)]
 Deg. of freedom     5
 Full point group                 CS      NOp   2
 Largest Abelian subgroup         CS      NOp   2
 Largest concise Abelian subgroup C1      NOp   1
                         Standard orientation:                         
 ---------------------------------------------------------------------
 Center     Atomic      Atomic             Coordinates (Angstroms)
 Number     Number       Type             X           Y           Z
 ---------------------------------------------------------------------
      1          8           0        0.000875   -0.339599    0.000000
      2          1           0        0.755250   -0.912454    0.000000
      3          1           0       -0.764874   -0.897322    0.000000
      4          3           0        0.000875    1.508855    0.000000
 ---------------------------------------------------------------------
 Rotational constants (GHZ):    433.9917591     26.5639747     25.0318154
 Standard basis: 6-311+G(d,p) (5D, 7F)
 There are    44 symmetry adapted cartesian basis functions of A'  symmetry.
 There are    14 symmetry adapted cartesian basis functions of A"  symmetry.
 There are    42 symmetry adapted basis functions of A'  symmetry.
 There are    14 symmetry adapted basis functions of A"  symmetry.
    56 basis functions,    88 primitive gaussians,    58 cartesian basis functions
     6 alpha electrons        6 beta electrons
       nuclear repulsion energy        17.4115866159 Hartrees.
 NAtoms=    4 NActive=    4 NUniq=    4 SFac= 1.00D+00 NAtFMM=   60 NAOKFM=F Big=F
 Integral buffers will be    131072 words long.
 Raffenetti 1 integral format.
 Two-electron integral symmetry is turned on.
 One-electron integrals computed using PRISM.
 NBasis=    56 RedAO= T EigKep=  3.90D-03  NBF=    42    14
 NBsUse=    56 1.00D-06 EigRej= -1.00D+00 NBFU=    42    14
 Initial guess from the checkpoint file:  "Li+OH2rhf.chk"
 B after Tr=     0.000000    0.000000    0.000000
         Rot=    0.999999    0.000000    0.000000   -0.001512 Ang=  -0.17 deg.
 Initial guess orbital symmetries:
       Occupied  (A') (A') (A') (A') (A') (A")
       Virtual   (A') (A') (A') (A') (A') (A') (A') (A') (A') (A')
                 (A') (A') (A') (A') (A') (A') (A') (A') (A') (A')
                 (A') (A') (A') (A') (A') (A') (A') (A') (A') (A')
                 (A') (A') (A') (A') (A') (A') (A') (A") (A") (A")
                 (A") (A") (A") (A") (A") (A") (A") (A") (A") (A")
 Keep R1 ints in memory in symmetry-blocked form, NReq=2145585.
 Requested convergence on RMS density matrix=1.00D-08 within 128 cycles.
 Requested convergence on MAX density matrix=1.00D-06.
 Requested convergence on             energy=1.00D-06.
 No special actions if energy rises.
 SCF Done:  E(RHF) =  -83.3471403767     A.U. after    8 cycles
            NFock=  8  Conv=0.13D-08     -V/T= 2.0003
 Calling FoFJK, ICntrl=      2127 FMM=F ISym2X=1 I1Cent= 0 IOpClX= 0 NMat=1 NMatS=1 NMatT=0.
 ***** Axes restored to original set *****
 -------------------------------------------------------------------
 Center     Atomic                   Forces (Hartrees/Bohr)
 Number     Number              X              Y              Z
 -------------------------------------------------------------------
      1        8          -0.000852550    0.000000000   -0.001202627
      2        1           0.000199692    0.000000000    0.000370870
      3        1           0.000460586    0.000000000    0.000450649
      4        3           0.000192272    0.000000000    0.000381108
 -------------------------------------------------------------------
 Cartesian Forces:  Max     0.001202627 RMS     0.000495648

 GradGradGradGradGradGradGradGradGradGradGradGradGradGradGradGradGradGrad
 Berny optimization.
 Using GEDIIS/GDIIS optimizer.
 FormGI is forming the generalized inverse of G from B-inverse, IUseBI=4.
 Internal  Forces:  Max     0.000545975 RMS     0.000358708
 Search for a local minimum.
 Step number   7 out of a maximum of   20
 All quantities printed in internal units (Hartrees-Bohrs-Radians)
 Mixed Optimization -- En-DIIS/RFO-DIIS
 Swapping is turned off.
 Update second derivatives using D2CorX and points    3    4    5    6    7
 DE= -1.58D-05 DEPred=-1.25D-05 R= 1.26D+00
 TightC=F SS=  1.41D+00  RLast= 2.22D-02 DXNew= 8.4853D-01 6.6592D-02
 Trust test= 1.26D+00 RLast= 2.22D-02 DXMaxT set to 5.05D-01
 The second derivative matrix:
                          R1        R2        R3        A1        A2
           R1           0.67989
           R2           0.10079   0.63574
           R3          -0.03928  -0.02796   0.15353
           A1          -0.00517  -0.00322  -0.01604   0.15178
           A2          -0.01043  -0.01052   0.03615   0.00048   0.10605
           A3           0.01560   0.01374  -0.02011   0.00774   0.05347
           D1           0.00000   0.00000   0.00000   0.00000   0.00000
                          A3        D1
           A3           0.09879
           D1           0.00000   0.08203
 ITU=  1  1  1  1  0  1  0
     Eigenvalues ---    0.03542   0.08203   0.13246   0.17729   0.55466
     Eigenvalues ---    0.76595
 En-DIIS/RFO-DIIS IScMMF=        0 using points:     7    6    5
 RFO step:  Lambda=-2.23605682D-06.
 DidBck=F Rises=F RFO-DIIS coefs:    2.18863   -2.21490    1.02627
 Iteration  1 RMS(Cart)=  0.00464893 RMS(Int)=  0.00001613
 Iteration  2 RMS(Cart)=  0.00001522 RMS(Int)=  0.00000000
 Iteration  3 RMS(Cart)=  0.00000000 RMS(Int)=  0.00000000
 ClnCor:  largest displacement from symmetrization is 3.76D-10 for atom     1.
 Variable       Old X    -DE/DX   Delta X   Delta X   Delta X     New X
                                 (Linear)    (Quad)   (Total)
    R1        1.79001   0.00037   0.00034   0.00027   0.00060   1.79061
    R2        1.79019   0.00032   0.00035   0.00016   0.00051   1.79069
    R3        3.49307  -0.00039  -0.00061  -0.00164  -0.00224   3.49083
    A1        1.86263  -0.00046  -0.00489   0.00068  -0.00421   1.85841
    A2        2.22027  -0.00009  -0.00376  -0.00161  -0.00537   2.21490
    A3        2.20029   0.00055   0.00865   0.00093   0.00959   2.20987
    D1        3.14159   0.00000   0.00000   0.00000   0.00000   3.14159
         Item               Value     Threshold  Converged?
 Maximum Force            0.000546     0.000450     NO 
 RMS     Force            0.000359     0.000300     NO 
 Maximum Displacement     0.005983     0.001800     NO 
 RMS     Displacement     0.004646     0.001200     NO 
 Predicted change in Energy=-2.863540D-06
 GradGradGradGradGradGradGradGradGradGradGradGradGradGradGradGradGradGrad

                          Input orientation:                          
 ---------------------------------------------------------------------
 Center     Atomic      Atomic             Coordinates (Angstroms)
 Number     Number       Type             X           Y           Z
 ---------------------------------------------------------------------
      1          8           0        0.109423    0.000000    0.055918
      2          1           0        0.094233    0.000000    1.003347
      3          1           0        1.022285    0.000000   -0.198280
      4          3           0       -1.349749    0.000000   -1.076870
 ---------------------------------------------------------------------
                    Distance matrix (angstroms):
                    1          2          3          4
     1  O    0.000000
     2  H    0.947550   0.000000
     3  H    0.947594   1.518285   0.000000
     4  Li   1.847266   2.532269   2.529519   0.000000
 Stoichiometry    H2LiO(1+)
 Framework group  CS[SG(H2LiO)]
 Deg. of freedom     5
 Full point group                 CS      NOp   2
 Largest Abelian subgroup         CS      NOp   2
 Largest concise Abelian subgroup C1      NOp   1
                         Standard orientation:                         
 ---------------------------------------------------------------------
 Center     Atomic      Atomic             Coordinates (Angstroms)
 Number     Number       Type             X           Y           Z
 ---------------------------------------------------------------------
      1          8           0        0.000222   -0.339047    0.000000
      2          1           0        0.757919   -0.908035    0.000000
      3          1           0       -0.760361   -0.904245    0.000000
      4          3           0        0.000222    1.508219    0.000000
 ---------------------------------------------------------------------
 Rotational constants (GHZ):    435.0678414     26.5855859     25.0545816
 Standard basis: 6-311+G(d,p) (5D, 7F)
 There are    44 symmetry adapted cartesian basis functions of A'  symmetry.
 There are    14 symmetry adapted cartesian basis functions of A"  symmetry.
 There are    42 symmetry adapted basis functions of A'  symmetry.
 There are    14 symmetry adapted basis functions of A"  symmetry.
    56 basis functions,    88 primitive gaussians,    58 cartesian basis functions
     6 alpha electrons        6 beta electrons
       nuclear repulsion energy        17.4135138761 Hartrees.
 NAtoms=    4 NActive=    4 NUniq=    4 SFac= 1.00D+00 NAtFMM=   60 NAOKFM=F Big=F
 Integral buffers will be    131072 words long.
 Raffenetti 1 integral format.
 Two-electron integral symmetry is turned on.
 One-electron integrals computed using PRISM.
 NBasis=    56 RedAO= T EigKep=  3.89D-03  NBF=    42    14
 NBsUse=    56 1.00D-06 EigRej= -1.00D+00 NBFU=    42    14
 Initial guess from the checkpoint file:  "Li+OH2rhf.chk"
 B after Tr=     0.000000    0.000000    0.000000
         Rot=    1.000000    0.000000    0.000000   -0.000773 Ang=  -0.09 deg.
 Initial guess orbital symmetries:
       Occupied  (A') (A') (A') (A') (A') (A")
       Virtual   (A') (A') (A') (A') (A') (A') (A') (A') (A') (A')
                 (A') (A') (A') (A') (A') (A') (A') (A') (A') (A')
                 (A') (A') (A') (A') (A') (A') (A') (A') (A') (A')
                 (A') (A') (A') (A') (A') (A') (A') (A") (A") (A")
                 (A") (A") (A") (A") (A") (A") (A") (A") (A") (A")
 Keep R1 ints in memory in symmetry-blocked form, NReq=2145585.
 Requested convergence on RMS density matrix=1.00D-08 within 128 cycles.
 Requested convergence on MAX density matrix=1.00D-06.
 Requested convergence on             energy=1.00D-06.
 No special actions if energy rises.
 SCF Done:  E(RHF) =  -83.3471456370     A.U. after    7 cycles
            NFock=  7  Conv=0.71D-08     -V/T= 2.0003
 Calling FoFJK, ICntrl=      2127 FMM=F ISym2X=1 I1Cent= 0 IOpClX= 0 NMat=1 NMatS=1 NMatT=0.
 ***** Axes restored to original set *****
 -------------------------------------------------------------------
 Center     Atomic                   Forces (Hartrees/Bohr)
 Number     Number              X              Y              Z
 -------------------------------------------------------------------
      1        8          -0.000188333    0.000000000   -0.000306200
      2        1          -0.000083674    0.000000000    0.000120203
      3        1           0.000085772    0.000000000   -0.000016365
      4        3           0.000186235    0.000000000    0.000202362
 -------------------------------------------------------------------
 Cartesian Forces:  Max     0.000306200 RMS     0.000139623

 GradGradGradGradGradGradGradGradGradGradGradGradGradGradGradGradGradGrad
 Berny optimization.
 Using GEDIIS/GDIIS optimizer.
 FormGI is forming the generalized inverse of G from B-inverse, IUseBI=4.
 Internal  Forces:  Max     0.000271202 RMS     0.000126237
 Search for a local minimum.
 Step number   8 out of a maximum of   20
 All quantities printed in internal units (Hartrees-Bohrs-Radians)
 Mixed Optimization -- En-DIIS/RFO-DIIS
 Swapping is turned off.
 Update second derivatives using D2CorX and points    3    4    5    6    7
                                                      8
 DE= -5.26D-06 DEPred=-2.86D-06 R= 1.84D+00
 TightC=F SS=  1.41D+00  RLast= 1.20D-02 DXNew= 8.4853D-01 3.6017D-02
 Trust test= 1.84D+00 RLast= 1.20D-02 DXMaxT set to 5.05D-01
 The second derivative matrix:
                          R1        R2        R3        A1        A2
           R1           0.67298
           R2           0.09305   0.62788
           R3          -0.01544  -0.00726   0.13336
           A1           0.03107   0.02456  -0.04633   0.16317
           A2          -0.01249  -0.01209   0.02957  -0.00550   0.10146
           A3          -0.01858  -0.01248   0.01677   0.00233   0.06404
           D1           0.00000   0.00000   0.00000   0.00000   0.00000
                          A3        D1
           A3           0.09363
           D1           0.00000   0.08203
 ITU=  1  1  1  1  1  0  1  0
     Eigenvalues ---    0.03260   0.08203   0.08990   0.20431   0.55473
     Eigenvalues ---    0.75094
 En-DIIS/RFO-DIIS IScMMF=        0 using points:     8    7    6    5
 RFO step:  Lambda=-2.86313449D-07.
 DidBck=F Rises=F RFO-DIIS coefs:    2.58694   -3.27311    3.07238   -1.38621
 Iteration  1 RMS(Cart)=  0.00195107 RMS(Int)=  0.00000131
 Iteration  2 RMS(Cart)=  0.00000131 RMS(Int)=  0.00000000
 Iteration  3 RMS(Cart)=  0.00000000 RMS(Int)=  0.00000000
 ClnCor:  largest displacement from symmetrization is 7.37D-10 for atom     1.
 Variable       Old X    -DE/DX   Delta X   Delta X   Delta X     New X
                                 (Linear)    (Quad)   (Total)
    R1        1.79061   0.00012   0.00056  -0.00029   0.00027   1.79088
    R2        1.79069   0.00009   0.00039  -0.00021   0.00018   1.79087
    R3        3.49083  -0.00027  -0.00338  -0.00072  -0.00410   3.48673
    A1        1.85841   0.00004   0.00003   0.00003   0.00006   1.85847
    A2        2.21490  -0.00010  -0.00232  -0.00014  -0.00246   2.21244
    A3        2.20987   0.00006   0.00229   0.00011   0.00241   2.21228
    D1        3.14159   0.00000   0.00000   0.00000   0.00000   3.14159
         Item               Value     Threshold  Converged?
 Maximum Force            0.000271     0.000450     YES
 RMS     Force            0.000126     0.000300     YES
 Maximum Displacement     0.003199     0.001800     NO 
 RMS     Displacement     0.001951     0.001200     NO 
 Predicted change in Energy=-2.753954D-08
 GradGradGradGradGradGradGradGradGradGradGradGradGradGradGradGradGradGrad

                          Input orientation:                          
 ---------------------------------------------------------------------
 Center     Atomic      Atomic             Coordinates (Angstroms)
 Number     Number       Type             X           Y           Z
 ---------------------------------------------------------------------
      1          8           0        0.109508    0.000000    0.054882
      2          1           0        0.092890    0.000000    1.002431
      3          1           0        1.022829    0.000000   -0.198021
      4          3           0       -1.349036    0.000000   -1.075177
 ---------------------------------------------------------------------
                    Distance matrix (angstroms):
                    1          2          3          4
     1  O    0.000000
     2  H    0.947694   0.000000
     3  H    0.947689   1.518510   0.000000
     4  Li   1.845097   2.528953   2.528862   0.000000
 Stoichiometry    H2LiO(1+)
 Framework group  CS[SG(H2LiO)]
 Deg. of freedom     5
 Full point group                 CS      NOp   2
 Largest Abelian subgroup         CS      NOp   2
 Largest concise Abelian subgroup C1      NOp   1
                         Standard orientation:                         
 ---------------------------------------------------------------------
 Center     Atomic      Atomic             Coordinates (Angstroms)
 Number     Number       Type             X           Y           Z
 ---------------------------------------------------------------------
      1          8           0        0.000007   -0.338539    0.000000
      2          1           0        0.759219   -0.905743    0.000000
      3          1           0       -0.759291   -0.905622    0.000000
      4          3           0        0.000007    1.506558    0.000000
 ---------------------------------------------------------------------
 Rotational constants (GHZ):    434.9376618     26.6439231     25.1059531
 Standard basis: 6-311+G(d,p) (5D, 7F)
 There are    44 symmetry adapted cartesian basis functions of A'  symmetry.
 There are    14 symmetry adapted cartesian basis functions of A"  symmetry.
 There are    42 symmetry adapted basis functions of A'  symmetry.
 There are    14 symmetry adapted basis functions of A"  symmetry.
    56 basis functions,    88 primitive gaussians,    58 cartesian basis functions
     6 alpha electrons        6 beta electrons
       nuclear repulsion energy        17.4214013016 Hartrees.
 NAtoms=    4 NActive=    4 NUniq=    4 SFac= 1.00D+00 NAtFMM=   60 NAOKFM=F Big=F
 Integral buffers will be    131072 words long.
 Raffenetti 1 integral format.
 Two-electron integral symmetry is turned on.
 One-electron integrals computed using PRISM.
 NBasis=    56 RedAO= T EigKep=  3.89D-03  NBF=    42    14
 NBsUse=    56 1.00D-06 EigRej= -1.00D+00 NBFU=    42    14
 Initial guess from the checkpoint file:  "Li+OH2rhf.chk"
 B after Tr=     0.000000    0.000000    0.000000
         Rot=    1.000000    0.000000    0.000000   -0.000253 Ang=  -0.03 deg.
 Initial guess orbital symmetries:
       Occupied  (A') (A') (A') (A') (A') (A")
       Virtual   (A') (A') (A') (A') (A') (A') (A') (A') (A') (A')
                 (A') (A') (A') (A') (A') (A') (A') (A') (A') (A')
                 (A') (A') (A') (A') (A') (A') (A') (A') (A') (A')
                 (A') (A') (A') (A') (A') (A') (A') (A") (A") (A")
                 (A") (A") (A") (A") (A") (A") (A") (A") (A") (A")
 Keep R1 ints in memory in symmetry-blocked form, NReq=2145599.
 Requested convergence on RMS density matrix=1.00D-08 within 128 cycles.
 Requested convergence on MAX density matrix=1.00D-06.
 Requested convergence on             energy=1.00D-06.
 No special actions if energy rises.
 SCF Done:  E(RHF) =  -83.3471464730     A.U. after    7 cycles
            NFock=  7  Conv=0.22D-08     -V/T= 2.0003
 Calling FoFJK, ICntrl=      2127 FMM=F ISym2X=1 I1Cent= 0 IOpClX= 0 NMat=1 NMatS=1 NMatT=0.
 ***** Axes restored to original set *****
 -------------------------------------------------------------------
 Center     Atomic                   Forces (Hartrees/Bohr)
 Number     Number              X              Y              Z
 -------------------------------------------------------------------
      1        8           0.000020053    0.000000000    0.000017669
      2        1          -0.000019132    0.000000000   -0.000024434
      3        1          -0.000021923    0.000000000   -0.000011324
      4        3           0.000021001    0.000000000    0.000018088
 -------------------------------------------------------------------
 Cartesian Forces:  Max     0.000024434 RMS     0.000015954

 GradGradGradGradGradGradGradGradGradGradGradGradGradGradGradGradGradGrad
 Berny optimization.
 Using GEDIIS/GDIIS optimizer.
 FormGI is forming the generalized inverse of G from B-inverse, IUseBI=4.
 Internal  Forces:  Max     0.000027680 RMS     0.000018486
 Search for a local minimum.
 Step number   9 out of a maximum of   20
 All quantities printed in internal units (Hartrees-Bohrs-Radians)
 Mixed Optimization -- En-DIIS/RFO-DIIS
 Swapping is turned off.
 Update second derivatives using D2CorX and points    3    4    5    6    7
                                                      8    9
 DE= -8.36D-07 DEPred=-2.75D-08 R= 3.04D+01
 Trust test= 3.04D+01 RLast= 5.36D-03 DXMaxT set to 5.05D-01
 The second derivative matrix:
                          R1        R2        R3        A1        A2
           R1           0.63979
           R2           0.06828   0.60934
           R3           0.01337   0.01183   0.06295
           A1           0.00590   0.00553  -0.00870   0.16050
           A2          -0.00574  -0.00783   0.00240   0.00486   0.09225
           A3          -0.00016   0.00230   0.00630  -0.00537   0.06289
           D1           0.00000   0.00000   0.00000   0.00000   0.00000
                          A3        D1
           A3           0.10248
           D1           0.00000   0.08203
 ITU=  0  1  1  1  1  1  0  1
     Eigenvalues ---    0.03362   0.06133   0.08203   0.16245   0.55463
     Eigenvalues ---    0.69528
 En-DIIS/RFO-DIIS IScMMF=        0 using points:     9    8    7    6    5
 RFO step:  Lambda= 0.00000000D+00.
 DidBck=F Rises=F RFO-DIIS coefs:    1.24711   -0.51117    0.50814   -0.43986    0.19578
 Iteration  1 RMS(Cart)=  0.00017608 RMS(Int)=  0.00000001
 Iteration  2 RMS(Cart)=  0.00000001 RMS(Int)=  0.00000000
 ClnCor:  largest displacement from symmetrization is 8.19D-14 for atom     1.
 Variable       Old X    -DE/DX   Delta X   Delta X   Delta X     New X
                                 (Linear)    (Quad)   (Total)
    R1        1.79088  -0.00002  -0.00004   0.00000  -0.00004   1.79084
    R2        1.79087  -0.00002  -0.00004   0.00000  -0.00003   1.79084
    R3        3.48673  -0.00003  -0.00040   0.00000  -0.00040   3.48633
    A1        1.85847   0.00002   0.00017   0.00000   0.00017   1.85864
    A2        2.21244  -0.00001  -0.00015   0.00000  -0.00015   2.21229
[...]
      3 vectors produced by pass  2 Test12= 1.00D-14 3.33D-08 XBig12= 5.63D-03 2.52D-02.
      3 vectors produced by pass  3 Test12= 1.00D-14 3.33D-08 XBig12= 3.01D-04 7.16D-03.
      3 vectors produced by pass  4 Test12= 1.00D-14 3.33D-08 XBig12= 3.91D-06 7.19D-04.
      3 vectors produced by pass  5 Test12= 1.00D-14 3.33D-08 XBig12= 7.93D-08 9.36D-05.
      3 vectors produced by pass  6 Test12= 1.00D-14 3.33D-08 XBig12= 5.28D-10 7.86D-06.
      3 vectors produced by pass  7 Test12= 1.00D-14 3.33D-08 XBig12= 4.53D-12 6.79D-07.
      1 vectors produced by pass  8 Test12= 1.00D-14 3.33D-08 XBig12= 2.62D-14 6.96D-08.
 InvSVY:  IOpt=1 It=  1 EMax= 4.44D-16
 Solved reduced A of dimension    25 with     3 vectors.
 End of Minotr F.D. properties file   721 does not exist.
 End of Minotr F.D. properties file   722 does not exist.
 End of Minotr F.D. properties file   788 does not exist.
 Symmetrizing basis deriv contribution to polar:
 IMax=3 JMax=2 DiffMx= 0.00D+00
 G2DrvN: will do     5 centers at a time, making    1 passes.
 PxScal for G2LodP:  IOpCl= 0 ISclPx=1 IMOff=     1 NMtTot=     4 NTT=    1596 ScalPx= 2.52D+00
 Calling FoFCou, ICntrl=  3107 FMM=F I1Cent=   0 AccDes= 0.00D+00.
 End of G2Drv F.D. properties file   721 does not exist.
 End of G2Drv F.D. properties file   722 does not exist.
 End of G2Drv F.D. properties file   788 does not exist.
          IDoAtm=1111
          Differentiating once with respect to electric field.
                with respect to dipole field.
          Differentiating once with respect to nuclear coordinates.
 Keep R1 ints in memory in symmetry-blocked form, NReq=2124976.
          There are    15 degrees of freedom in the 1st order CPHF.  IDoFFX=5 NUNeed=    15.
 Will reuse    3 saved solutions.
      9 vectors produced by pass  0 Test12= 2.00D-15 6.67D-09 XBig12= 2.71D-02 6.39D-02.
 AX will form     9 AO Fock derivatives at one time.
      9 vectors produced by pass  1 Test12= 2.00D-15 6.67D-09 XBig12= 1.42D-03 1.33D-02.
      9 vectors produced by pass  2 Test12= 2.00D-15 6.67D-09 XBig12= 2.77D-05 1.99D-03.
      9 vectors produced by pass  3 Test12= 2.00D-15 6.67D-09 XBig12= 3.28D-07 2.56D-04.
      9 vectors produced by pass  4 Test12= 2.00D-15 6.67D-09 XBig12= 2.32D-09 1.78D-05.
      9 vectors produced by pass  5 Test12= 2.00D-15 6.67D-09 XBig12= 7.74D-12 8.67D-07.
      5 vectors produced by pass  6 Test12= 2.00D-15 6.67D-09 XBig12= 4.32D-14 7.88D-08.
 InvSVY:  IOpt=1 It=  1 EMax= 4.44D-16
 Solved reduced A of dimension    59 with     9 vectors.
 Isotropic polarizability for W=    0.000000        6.65 Bohr**3.
 End of Minotr F.D. properties file   721 does not exist.
 End of Minotr F.D. properties file   722 does not exist.
 End of Minotr F.D. properties file   788 does not exist.

 **********************************************************************

            Population analysis using the SCF density.

 **********************************************************************

 Orbital symmetries:
       Occupied  (A') (A') (A') (A') (A') (A")
       Virtual   (A') (A') (A') (A") (A') (A') (A") (A') (A') (A')
                 (A") (A') (A') (A') (A") (A') (A') (A') (A") (A')
                 (A') (A") (A') (A") (A') (A') (A') (A') (A') (A')
                 (A") (A") (A') (A') (A") (A') (A') (A') (A') (A')
                 (A") (A") (A') (A') (A') (A') (A") (A') (A') (A')
 The electronic state is 1-A'.
 Alpha  occ. eigenvalues --  -20.81092  -2.70499  -1.60942  -0.97639  -0.86864
 Alpha  occ. eigenvalues --   -0.76427
 Alpha virt. eigenvalues --   -0.15389  -0.10222  -0.09937  -0.09582  -0.06212
 Alpha virt. eigenvalues --   -0.05098  -0.04837  -0.04519   0.00451   0.01033
 Alpha virt. eigenvalues --    0.01563   0.04135   0.06091   0.06132   0.09451
 Alpha virt. eigenvalues --    0.09996   0.12615   0.22017   0.36274   0.37163
 Alpha virt. eigenvalues --    0.37509   0.38314   0.38660   0.44010   0.47440
 Alpha virt. eigenvalues --    0.52359   0.57603   0.67226   1.00744   1.02310
 Alpha virt. eigenvalues --    1.05159   1.28412   1.48322   1.56885   1.61870
 Alpha virt. eigenvalues --    1.77118   2.11008   2.24856   2.47446   2.68841
 Alpha virt. eigenvalues --    3.22942   3.30299   3.46437   3.75537   3.94249
 Alpha virt. eigenvalues --    4.09400   5.27228   5.72203   6.00499  51.36748
          Condensed to atoms (all electrons):
               1          2          3          4
     1  O    7.774459   0.342280   0.342283   0.116847
     2  H    0.342280   0.315782  -0.009346  -0.004190
     3  H    0.342283  -0.009346   0.315794  -0.004190
     4  Li   0.116847  -0.004190  -0.004190   2.026597
 Mulliken charges:
               1
     1  O   -0.575869
     2  H    0.355475
     3  H    0.355459
     4  Li   0.864936
 Sum of Mulliken charges =   1.00000
 Mulliken charges with hydrogens summed into heavy atoms:
               1
     1  O    0.135064
     4  Li   0.864936
 APT charges:
               1
     1  O   -0.746526
     2  H    0.398822
     3  H    0.398811
     4  Li   0.948893
 Sum of APT charges =   1.00000
 APT charges with hydrogens summed into heavy atoms:
               1
     1  O    0.051107
     4  Li   0.948893
 Electronic spatial extent (au):  <R**2>=             41.3680
 Charge=              1.0000 electrons
 Dipole moment (field-independent basis, Debye):
    X=             -0.0001    Y=              4.1264    Z=              0.0000  Tot=              4.1264
 Quadrupole moment (field-independent basis, Debye-Ang):
   XX=             -4.1954   YY=              6.8943   ZZ=             -7.8131
   XY=             -0.0001   XZ=              0.0000   YZ=              0.0000
 Traceless Quadrupole moment (field-independent basis, Debye-Ang):
   XX=             -2.4907   YY=              8.5991   ZZ=             -6.1084
   XY=             -0.0001   XZ=              0.0000   YZ=              0.0000
 Octapole moment (field-independent basis, Debye-Ang**2):
  XXX=             -0.0003  YYY=             18.6087  ZZZ=              0.0000  XYY=              0.0004
  XXY=             -0.8060  XXZ=              0.0000  XZZ=              0.0000  YZZ=              2.0285
  YYZ=              0.0000  XYZ=              0.0000
 Hexadecapole moment (field-independent basis, Debye-Ang**3):
 XXXX=             -4.9675 YYYY=              9.7637 ZZZZ=             -6.2520 XXXY=              0.0002
 XXXZ=              0.0000 YYYX=             -0.0004 YYYZ=              0.0000 ZZZX=              0.0000
 ZZZY=              0.0000 XXYY=             -1.5907 XXZZ=             -2.2167 YYZZ=             -4.1089
 XXYZ=              0.0000 YYXZ=              0.0000 ZZXY=              0.0000
 N-N= 1.742140130163D+01 E-N=-2.293873383392D+02  KE= 8.331952367926D+01
 Symmetry A'   KE= 7.882429352170D+01
 Symmetry A"   KE= 4.495230157551D+00
  Exact polarizability:   7.055   0.000   7.103   0.000   0.000   5.779
 Approx polarizability:   5.979   0.000   5.837   0.000   0.000   4.562
 Calling FoFJK, ICntrl=    100127 FMM=F ISym2X=1 I1Cent= 0 IOpClX= 0 NMat=1 NMatS=1 NMatT=0.
 Full mass-weighted force constant matrix:
 Low frequencies ---   -0.0006    0.0020    0.0021    7.5533    7.9523   10.6547
 Low frequencies ---  477.8988  560.5649  563.0831
 Diagonal vibrational polarizability:
       14.1174754      10.9319251      50.4537755
 Diagonal vibrational hyperpolarizability:
        0.0002699       5.4920220       0.0000000
 Harmonic frequencies (cm**-1), IR intensities (KM/Mole), Raman scattering
 activities (A**4/AMU), depolarization ratios for plane and unpolarized
 incident light, reduced masses (AMU), force constants (mDyne/A),
 and normal coordinates:
                      1                      2                      3
                     A"                     A'                     A'
 Frequencies --    477.8988               560.5649               563.0831
 Red. masses --      1.2308                 6.6576                 1.1939
 Frc consts  --      0.1656                 1.2326                 0.2230
 IR Inten    --    428.1859               111.1338               161.3283
 Raman Activ --      0.2156                 0.1988                 0.1399
 Depolar (P) --      0.7500                 0.1424                 0.7500
 Depolar (U) --      0.8571                 0.2493                 0.8571
  Atom  AN      X      Y      Z        X      Y      Z        X      Y      Z
     1   8     0.00   0.00   0.12     0.00   0.32   0.00     0.09   0.00   0.00
     2   1     0.00   0.00  -0.70     0.01   0.33   0.00    -0.36  -0.60   0.00
     3   1     0.00   0.00  -0.70    -0.01   0.33   0.00    -0.36   0.60   0.00
     4   3     0.00   0.00  -0.06     0.00  -0.83   0.00    -0.10   0.00   0.00
                      4                      5                      6
                     A'                     A'                     A'
 Frequencies --   1801.3052              4070.2724              4141.3265
 Red. masses --      1.0829                 1.0460                 1.0836
 Frc consts  --      2.0702                10.2099                10.9493
 IR Inten    --    145.4372               128.1046               270.5172
 Raman Activ --      1.9704                55.1287                19.7347
 Depolar (P) --      0.7182                 0.0926                 0.7500
 Depolar (U) --      0.8360                 0.1695                 0.8571
  Atom  AN      X      Y      Z        X      Y      Z        X      Y      Z
     1   8     0.00  -0.07   0.00     0.00   0.05   0.00     0.07   0.00   0.00
     2   1     0.43   0.56   0.00     0.58  -0.40   0.00    -0.56   0.42   0.00
     3   1    -0.43   0.56   0.00    -0.58  -0.40   0.00    -0.56  -0.42   0.00
     4   3     0.00   0.00   0.00     0.00   0.00   0.00     0.00   0.00   0.00

 -------------------
 - Thermochemistry -
 -------------------
 Temperature   298.150 Kelvin.  Pressure   1.00000 Atm.
 Atom     1 has atomic number  8 and mass  15.99491
 Atom     2 has atomic number  1 and mass   1.00783
 Atom     3 has atomic number  1 and mass   1.00783
 Atom     4 has atomic number  3 and mass   7.01600
 Molecular mass:    25.02657 amu.
 Principal axes and moments of inertia in atomic units:
                           1         2         3
     Eigenvalues --     4.14942  67.73557  71.88499
           X            0.00000   1.00000   0.00000
           Y            1.00000   0.00000   0.00000
           Z            0.00000   0.00000   1.00000
 This molecule is an asymmetric top.
 Rotational symmetry number  1.
 Rotational temperatures (Kelvin)     20.87369     1.27871     1.20489
 Rotational constants (GHZ):         434.93766    26.64392    25.10595
 Zero-point vibrational energy      69469.8 (Joules/Mol)
                                   16.60369 (Kcal/Mol)
 Warning -- explicit consideration of   3 degrees of freedom as
           vibrations may cause significant error
 Vibrational temperatures:    687.59   806.53   810.15  2591.67  5856.21
          (Kelvin)           5958.44
 
 Zero-point correction=                           0.026460 (Hartree/Particle)
 Thermal correction to Energy=                    0.029899
 Thermal correction to Enthalpy=                  0.030843
 Thermal correction to Gibbs Free Energy=         0.004710
 Sum of electronic and zero-point Energies=            -83.320687
 Sum of electronic and thermal Energies=               -83.317247
 Sum of electronic and thermal Enthalpies=             -83.316303
 Sum of electronic and thermal Free Energies=          -83.342436
 
                     E (Thermal)             CV                S
                      KCal/Mol        Cal/Mol-Kelvin    Cal/Mol-Kelvin
 Total                   18.762              9.514             55.001
 Electronic               0.000              0.000              0.000
 Translational            0.889              2.981             35.589
 Rotational               0.889              2.981             17.653
 Vibrational             16.984              3.552              1.759
 Vibration     1          0.834              1.299              0.716
 Vibration     2          0.916              1.117              0.523
 Vibration     3          0.919              1.111              0.518
                       Q            Log10(Q)             Ln(Q)
 Total Bot       0.681460D-02         -2.166560         -4.988688
 Total V=0       0.100929D+11         10.004016         23.035098
 Vib (Bot)       0.860628D-12        -12.065185        -27.781114
 Vib (Bot)    1  0.350592D+00         -0.455197         -1.048131
 Vib (Bot)    2  0.277108D+00         -0.557351         -1.283349
 Vib (Bot)    3  0.275191D+00         -0.560366         -1.290290
 Vib (V=0)       0.127465D+01          0.105391          0.242671
 Vib (V=0)    1  0.111067D+01          0.045584          0.104961
 Vib (V=0)    2  0.107165D+01          0.030055          0.069204
 Vib (V=0)    3  0.107073D+01          0.029679          0.068339
 Electronic      0.100000D+01          0.000000          0.000000
 Translational   0.492104D+07          6.692057         15.409031
 Rotational      0.160904D+04          3.206568          7.383395
 ***** Axes restored to original set *****
 -------------------------------------------------------------------
 Center     Atomic                   Forces (Hartrees/Bohr)
 Number     Number              X              Y              Z
 -------------------------------------------------------------------
      1        8           0.000020054    0.000000000    0.000017669
      2        1          -0.000019132    0.000000000   -0.000024434
      3        1          -0.000021923    0.000000000   -0.000011324
      4        3           0.000021002    0.000000000    0.000018088
 -------------------------------------------------------------------
 Cartesian Forces:  Max     0.000024434 RMS     0.000015954
 FormGI is forming the generalized inverse of G from B-inverse, IUseBI=4.

 GradGradGradGradGradGradGradGradGradGradGradGradGradGradGradGradGradGrad
 Berny optimization.
 Internal  Forces:  Max     0.000027680 RMS     0.000018487
 Search for a local minimum.
 Step number   1 out of a maximum of    2
 All quantities printed in internal units (Hartrees-Bohrs-Radians)
 Second derivative matrix not updated -- analytic derivatives used.
 The second derivative matrix:
                          R1        R2        R3        A1        A2
           R1           0.60602
           R2           0.00061   0.60604
           R3           0.00322   0.00322   0.06006
           A1           0.01445   0.01445  -0.00223   0.08239
           A2          -0.00567  -0.00878   0.00112  -0.04119   0.03648
           A3          -0.00878  -0.00567   0.00112  -0.04119   0.00471
           D1           0.00000   0.00000   0.00000   0.00000   0.00000
                          A3        D1
           A3           0.03648
           D1           0.00000   0.00720
 ITU=  0
     Eigenvalues ---    0.00720   0.03175   0.05988   0.12243   0.60544
     Eigenvalues ---    0.60797
 Angle between quadratic step and forces=  36.32 degrees.
 Linear search not attempted -- first point.
 Iteration  1 RMS(Cart)=  0.00019386 RMS(Int)=  0.00000001
 Iteration  2 RMS(Cart)=  0.00000001 RMS(Int)=  0.00000000
 ClnCor:  largest displacement from symmetrization is 1.02D-13 for atom     1.
 Variable       Old X    -DE/DX   Delta X   Delta X   Delta X     New X
                                 (Linear)    (Quad)   (Total)
    R1        1.79088  -0.00002   0.00000  -0.00004  -0.00004   1.79084
    R2        1.79087  -0.00002   0.00000  -0.00003  -0.00003   1.79084
    R3        3.48673  -0.00003   0.00000  -0.00045  -0.00045   3.48628
    A1        1.85847   0.00002   0.00000   0.00018   0.00018   1.85865
    A2        2.21244  -0.00001   0.00000  -0.00017  -0.00017   2.21227
    A3        2.21228  -0.00001   0.00000  -0.00001  -0.00001   2.21227
    D1        3.14159   0.00000   0.00000   0.00000   0.00000   3.14159
         Item               Value     Threshold  Converged?
 Maximum Force            0.000028     0.000450     YES
 RMS     Force            0.000018     0.000300     YES
 Maximum Displacement     0.000296     0.001800     YES
 RMS     Displacement     0.000194     0.001200     YES
 Predicted change in Energy=-1.008078D-08
 Optimization completed.
    -- Stationary point found.
                           ----------------------------
                           !   Optimized Parameters   !
                           ! (Angstroms and Degrees)  !
 --------------------------                            --------------------------
 ! Name  Definition              Value          Derivative Info.                !
 --------------------------------------------------------------------------------
 ! R1    R(1,2)                  0.9477         -DE/DX =    0.0                 !
 ! R2    R(1,3)                  0.9477         -DE/DX =    0.0                 !
 ! R3    R(1,4)                  1.8451         -DE/DX =    0.0                 !
 ! A1    A(2,1,3)              106.4824         -DE/DX =    0.0                 !
 ! A2    A(2,1,4)              126.7633         -DE/DX =    0.0                 !
 ! A3    A(3,1,4)              126.7543         -DE/DX =    0.0                 !
 ! D1    D(2,1,4,3)            180.0            -DE/DX =    0.0                 !
 --------------------------------------------------------------------------------
 GradGradGradGradGradGradGradGradGradGradGradGradGradGradGradGradGradGrad

 1\1\GINC-TC-NODE166\Freq\RHF\6-311+G(d,p)\H2Li1O1(1+)\MAXB2\10-Oct-201
 6\0\\#N Geom=AllCheck Guess=TCheck SCRF=Check GenChk RHF/6-311+G(d,p) 
 Freq\\Title Card Required\\1,1\O,0.1095080781,0.,0.054882077\H,0.09288
 99075,0.,1.0024305885\H,1.0228290487,0.,-0.1980211342\Li,-1.3490355111
 ,0.,-1.0751772118\\Version=ES64L-G09RevD.01\State=1-A'\HF=-83.3471465\
 RMSD=2.108e-10\RMSF=1.595e-05\ZeroPoint=0.0264597\Thermal=0.029899\Dip
 ole=-1.2832899,0.,-0.9943408\DipoleDeriv=-0.7422667,0.,0.003587,0.,-0.
 7531623,0.,0.0035882,0.,-0.7441502,0.3466211,0.,-0.0433513,0.,0.422249
 8,0.,-0.0149322,0.,0.4275951,0.4084144,0.,-0.0308817,0.,0.4222472,0.,-
 0.0592994,0.,0.3657712,0.9872312,0.,0.070646,0.,0.9086653,0.,0.0706433
 ,0.,0.9507839\Polar=7.0850445,0.,5.7794979,0.0235278,0.,7.0730609\Pola
 rDeriv=-4.800007,0.,-0.4322831,0.456432,0.,-0.752208,0.,-0.2560674,0.,
 0.,-0.1983983,0.,0.4292017,0.,-0.3349466,-0.716926,0.,-4.7300892,0.015
 3699,0.,-0.0165318,0.7998285,0.,-0.0945334,0.,-0.059438,0.,0.,0.516140
 6,0.,0.9393128,0.,0.572161,-0.0873301,0.,5.9140629,5.4594238,0.,0.5498
 004,-1.0580416,0.,1.1566733,0.,0.4848742,0.,0.,-0.1865256,0.,-1.099945
 6,0.,-0.1589764,1.0234102,0.,-0.6895653,-0.6747868,0.,-0.1009856,-0.19
 82189,0.,-0.3099319,0.,-0.1693688,0.,0.,-0.1312167,0.,-0.2685688,0.,-0
 .078238,-0.2191541,0.,-0.4944083\HyperPolar=-2.5959053,0.,-4.9839983,0
 .,-7.2328429,0.,-3.8614854,-4.2551661,0.,1.9242144\PG=CS [SG(H2Li1O1)]
 \NImag=0\\0.66262269,0.,0.02394658,-0.10295822,0.,0.71576236,-0.066645
 17,0.,-0.02872518,0.06332116,0.,-0.00916227,0.,0.,0.00351020,0.0255687
 6,0.,-0.59098782,-0.02075903,0.,0.60546081,-0.55901752,0.,0.15265690,0
 .00165289,0.,-0.00284287,0.56156944,0.,-0.00916007,0.,0.,0.00350452,0.
 ,0.,0.00350724,0.09836352,0.,-0.09863357,0.05460277,0.,-0.01170651,-0.
 14936282,0.,0.10723130,-0.03696000,0.,-0.02097350,0.00167112,0.,-0.001
 96686,-0.00420481,0.,-0.00360347,0.03949369,0.,-0.00562425,0.,0.,0.002
 14755,0.,0.,0.00214831,0.,0.,0.00132839,-0.02097406,0.,-0.02614097,-0.
 00511855,0.,-0.00276648,-0.00045122,0.,0.00310878,0.02654383,0.,0.0257
 9866\\-0.00002005,0.,-0.00001767,0.00001913,0.,0.00002443,0.00002192,0
 .,0.00001132,-0.00002100,0.,-0.00001809\\\@


 IF YOU GET CONFUSED, LOGIC OUT YOUR DILEMMA

           --  PICKER X-RAY CORP.    DIGITAL PRINTER MANUAL CA. 1964
 Job cpu time:       0 days  0 hours  0 minutes  8.0 seconds.
 File lengths (MBytes):  RWF=      5 Int=      0 D2E=      0 Chk=      2 Scr=      1
 Normal termination of Gaussian 09 at Mon Oct 10 15:04:21 2016.
