 Entering Gaussian System, Link 0=g09
 Initial command:
 /cluster/software/gaussian/gaussian-09-D.01/g09/l1.exe "/local/scratch/epktb/Gau-4517.inp" -scrdir="/local/scratch/epktb/"
 Entering Link 1 = /cluster/software/gaussian/gaussian-09-D.01/g09/l1.exe PID=      4518.
  
 Copyright (c) 1988,1990,1992,1993,1995,1998,2003,2009,2013,
            Gaussian, Inc.  All Rights Reserved.
  
 This is part of the Gaussian(R) 09 program.  It is based on
 the Gaussian(R) 03 system (copyright 2003, Gaussian, Inc.),
 the Gaussian(R) 98 system (copyright 1998, Gaussian, Inc.),
 the Gaussian(R) 94 system (copyright 1995, Gaussian, Inc.),
 the Gaussian 92(TM) system (copyright 1992, Gaussian, Inc.),
 the Gaussian 90(TM) system (copyright 1990, Gaussian, Inc.),
 the Gaussian 88(TM) system (copyright 1988, Gaussian, Inc.),
 the Gaussian 86(TM) system (copyright 1986, Carnegie Mellon
 University), and the Gaussian 82(TM) system (copyright 1983,
 Carnegie Mellon University). Gaussian is a federally registered
 trademark of Gaussian, Inc.
  
 This software contains proprietary and confidential information,
 including trade secrets, belonging to Gaussian, Inc.
  
 This software is provided under written license and may be
 used, copied, transmitted, or stored only in accord with that
 written license.
  
 The following legend is applicable only to US Government
 contracts under FAR:
  
                    RESTRICTED RIGHTS LEGEND
  
 Use, reproduction and disclosure by the US Government is
 subject to restrictions as set forth in subparagraphs (a)
 and (c) of the Commercial Computer Software - Restricted
 Rights clause in FAR 52.227-19.
  
 Gaussian, Inc.
 340 Quinnipiac St., Bldg. 40, Wallingford CT 06492
  
  
 ---------------------------------------------------------------
 Warning -- This program may not be used in any manner that
 competes with the business of Gaussian, Inc. or will provide
 assistance to any competitor of Gaussian, Inc.  The licensee
 of this program is prohibited from giving any competitor of
 Gaussian, Inc. access to this program.  By using this program,
 the user acknowledges that Gaussian, Inc. is engaged in the
 business of creating and licensing software in the field of
 computational chemistry and represents and warrants to the
 licensee that it is not a competitor of Gaussian, Inc. and that
 it will not use this program in any manner prohibited above.
 ---------------------------------------------------------------
  

 Cite this work as:
 Gaussian 09, Revision D.01,
 M. J. Frisch, G. W. Trucks, H. B. Schlegel, G. E. Scuseria, 
 M. A. Robb, J. R. Cheeseman, G. Scalmani, V. Barone, B. Mennucci, 
 G. A. Petersson, H. Nakatsuji, M. Caricato, X. Li, H. P. Hratchian, 
 A. F. Izmaylov, J. Bloino, G. Zheng, J. L. Sonnenberg, M. Hada, 
 M. Ehara, K. Toyota, R. Fukuda, J. Hasegawa, M. Ishida, T. Nakajima, 
 Y. Honda, O. Kitao, H. Nakai, T. Vreven, J. A. Montgomery, Jr., 
 J. E. Peralta, F. Ogliaro, M. Bearpark, J. J. Heyd, E. Brothers, 
 K. N. Kudin, V. N. Staroverov, T. Keith, R. Kobayashi, J. Normand, 
 K. Raghavachari, A. Rendell, J. C. Burant, S. S. Iyengar, J. Tomasi, 
 M. Cossi, N. Rega, J. M. Millam, M. Klene, J. E. Knox, J. B. Cross, 
 V. Bakken, C. Adamo, J. Jaramillo, R. Gomperts, R. E. Stratmann, 
 O. Yazyev, A. J. Austin, R. Cammi, C. Pomelli, J. W. Ochterski, 
 R. L. Martin, K. Morokuma, V. G. Zakrzewski, G. A. Voth, 
 P. Salvador, J. J. Dannenberg, S. Dapprich, A. D. Daniels, 
 O. Farkas, J. B. Foresman, J. V. Ortiz, J. Cioslowski, 
 and D. J. Fox, Gaussian, Inc., Wallingford CT, 2013.
 
 ******************************************
 Gaussian 09:  ES64L-G09RevD.01 24-Apr-2013
                30-Sep-2016 
 ******************************************
 %mem=6GB
 %nprocshared=3
 Will use up to    3 processors via shared memory.
 %chk=hnc-cisdfc-180
 ------------------------------------------
 # opt=(tight) freq cisd(fc)/6-311++g** gfp
 ------------------------------------------
 1/7=10,18=20,19=15,38=1/1,3;
 2/9=110,12=2,17=6,18=5,40=1/2;
 3/5=4,6=6,7=1111,11=9,16=1,24=100,25=1,30=1,71=1/1,2,3;
 4//1;
 5/5=2,38=5/2;
 8/6=4,9=120000,10=2/1,4;
 9/15=1/13;
 11/28=-4,29=200,42=3/11;
 10/5=3/2;
 6/7=2,8=2,9=2,10=2/1;
 7/12=6/1,2,3,16;
 1/7=10,18=20,19=15/3(2);
 2/9=110/2;
 99//99;
 2/9=110/2;
 3/5=4,6=6,7=1111,11=9,16=1,25=1,30=1,71=1/1,2,3;
 4/5=5,16=3,69=1/1;
 5/5=2,38=5/2;
 8/6=4,9=120000,10=2/1,4;
 9/15=1/13;
 11/28=-4,29=200,42=3/11;
 10/5=3/2;
 7/12=6/1,2,3,16;
 1/7=10,18=20,19=15/3(-9);
 2/9=110/2;
 6/7=2,8=2,9=2,10=2/1;
 99//99;
 -------
 HNC-HCN
 -------
 Symbolic Z-matrix:
 Charge =  0 Multiplicity = 1
 N
 C                    1    B1
 H                    2    B2       1    A1
       Variables:
  B1                    1.                       
  B2                    1.5                      
       Constants:
  A1                  180.                       
 
 Add virtual bond connecting atoms H3         and C2         Dist= 2.83D+00.

 GradGradGradGradGradGradGradGradGradGradGradGradGradGradGradGradGradGrad
 Berny optimization.
 Initialization pass.
                           ----------------------------
                           !    Initial Parameters    !
                           ! (Angstroms and Degrees)  !
 --------------------------                            --------------------------
 ! Name  Definition              Value          Derivative Info.                !
 --------------------------------------------------------------------------------
 ! R1    R(1,2)                  1.0            estimate D2E/DX2                !
 ! R2    R(2,3)                  1.5            estimate D2E/DX2                !
 ! A1    L(1,2,3,-1,-1)        180.0            estimate D2E/DX2                !
 ! A2    L(1,2,3,-2,-2)        180.0            estimate D2E/DX2                !
 --------------------------------------------------------------------------------
 Trust Radius=3.00D-01 FncErr=1.00D-07 GrdErr=1.00D-07
 Number of steps in this run=     20 maximum allowed number of steps=    100.
 GradGradGradGradGradGradGradGradGradGradGradGradGradGradGradGradGradGrad

                          Input orientation:                          
 ---------------------------------------------------------------------
 Center     Atomic      Atomic             Coordinates (Angstroms)
 Number     Number       Type             X           Y           Z
 ---------------------------------------------------------------------
      1          7           0        0.000000    0.000000    0.000000
      2          6           0        0.000000    0.000000    1.000000
      3          1           0        0.000000    0.000000    2.500000
 ---------------------------------------------------------------------
                    Distance matrix (angstroms):
                    1          2          3
     1  N    0.000000
     2  C    1.000000   0.000000
     3  H    2.500000   1.500000   0.000000
 Stoichiometry    CHN
 Framework group  C*V[C*(HCN)]
 Deg. of freedom     2
 Full point group                 C*V     NOp   4
 Largest Abelian subgroup         C2V     NOp   4
 Largest concise Abelian subgroup C1      NOp   1
                         Standard orientation:                         
 ---------------------------------------------------------------------
 Center     Atomic      Atomic             Coordinates (Angstroms)
 Number     Number       Type             X           Y           Z
 ---------------------------------------------------------------------
      1          7           0        0.000000    0.000000    0.607143
      2          6           0        0.000000    0.000000   -0.392857
      3          1           0        0.000000    0.000000   -1.892857
 ---------------------------------------------------------------------
 Rotational constants (GHZ):      0.0000000     48.1588798     48.1588798
 Standard basis: 6-311++G(d,p) (5D, 7F)
 AO basis set (Overlap normalization):
 Atom N1       Shell     1 S   6     bf    1 -     1          0.000000000000          0.000000000000          1.147333723538
      0.6293480000D+04  0.1969788147D-02
      0.9490440000D+03  0.1496128592D-01
      0.2187760000D+03  0.7350053084D-01
      0.6369160000D+02  0.2489367658D+00
      0.1882820000D+02  0.6024594331D+00
      0.2720230000D+01  0.2562017589D+00
 Atom N1       Shell     2 SP   3    bf    2 -     5          0.000000000000          0.000000000000          1.147333723538
      0.3063310000D+02  0.1119060795D+00  0.3831191864D-01
      0.7026140000D+01  0.9216666549D+00  0.2374031155D+00
      0.2112050000D+01 -0.2569191826D-02  0.8175923978D+00
 Atom N1       Shell     3 SP   1    bf    6 -     9          0.000000000000          0.000000000000          1.147333723538
      0.6840090000D+00  0.1000000000D+01  0.1000000000D+01
 Atom N1       Shell     4 SP   1    bf   10 -    13          0.000000000000          0.000000000000          1.147333723538
      0.2008780000D+00  0.1000000000D+01  0.1000000000D+01
 Atom N1       Shell     5 SP   1    bf   14 -    17          0.000000000000          0.000000000000          1.147333723538
      0.6390000000D-01  0.1000000000D+01  0.1000000000D+01
 Atom N1       Shell     6 D   1     bf   18 -    22          0.000000000000          0.000000000000          1.147333723538
      0.9130000000D+00  0.1000000000D+01
 Atom C2       Shell     7 S   6     bf   23 -    23          0.000000000000          0.000000000000         -0.742392409348
      0.4563240000D+04  0.1966650249D-02
      0.6820240000D+03  0.1523060193D-01
      0.1549730000D+03  0.7612690966D-01
      0.4445530000D+02  0.2608010331D+00
      0.1302900000D+02  0.6164620782D+00
      0.1827730000D+01  0.2210060280D+00
 Atom C2       Shell     8 SP   3    bf   24 -    27          0.000000000000          0.000000000000         -0.742392409348
      0.2096420000D+02  0.1146600807D+00  0.4024869267D-01
      0.4803310000D+01  0.9199996477D+00  0.2375939567D+00
      0.1459330000D+01 -0.3030682134D-02  0.8158538515D+00
 Atom C2       Shell     9 SP   1    bf   28 -    31          0.000000000000          0.000000000000         -0.742392409348
      0.4834560000D+00  0.1000000000D+01  0.1000000000D+01
 Atom C2       Shell    10 SP   1    bf   32 -    35          0.000000000000          0.000000000000         -0.742392409348
      0.1455850000D+00  0.1000000000D+01  0.1000000000D+01
 Atom C2       Shell    11 SP   1    bf   36 -    39          0.000000000000          0.000000000000         -0.742392409348
      0.4380000000D-01  0.1000000000D+01  0.1000000000D+01
 Atom C2       Shell    12 D   1     bf   40 -    44          0.000000000000          0.000000000000         -0.742392409348
      0.6260000000D+00  0.1000000000D+01
 Atom H3       Shell    13 S   3     bf   45 -    45          0.000000000000          0.000000000000         -3.576981608676
      0.3386500000D+02  0.2549381454D-01
      0.5094790000D+01  0.1903731086D+00
      0.1158790000D+01  0.8521614860D+00
 Atom H3       Shell    14 S   1     bf   46 -    46          0.000000000000          0.000000000000         -3.576981608676
      0.3258400000D+00  0.1000000000D+01
 Atom H3       Shell    15 S   1     bf   47 -    47          0.000000000000          0.000000000000         -3.576981608676
      0.1027410000D+00  0.1000000000D+01
 Atom H3       Shell    16 S   1     bf   48 -    48          0.000000000000          0.000000000000         -3.576981608676
      0.3600000000D-01  0.1000000000D+01
 Atom H3       Shell    17 P   1     bf   49 -    51          0.000000000000          0.000000000000         -3.576981608676
      0.7500000000D+00  0.1000000000D+01
 There are    29 symmetry adapted cartesian basis functions of A1  symmetry.
 There are     2 symmetry adapted cartesian basis functions of A2  symmetry.
 There are    11 symmetry adapted cartesian basis functions of B1  symmetry.
 There are    11 symmetry adapted cartesian basis functions of B2  symmetry.
 There are    27 symmetry adapted basis functions of A1  symmetry.
 There are     2 symmetry adapted basis functions of A2  symmetry.
 There are    11 symmetry adapted basis functions of B1  symmetry.
 There are    11 symmetry adapted basis functions of B2  symmetry.
    51 basis functions,    81 primitive gaussians,    53 cartesian basis functions
     7 alpha electrons        7 beta electrons
       nuclear repulsion energy        25.8238477792 Hartrees.
 NAtoms=    3 NActive=    3 NUniq=    3 SFac= 1.00D+00 NAtFMM=   60 NAOKFM=F Big=F
 Integral buffers will be    131072 words long.
 Raffenetti 1 integral format.
 Two-electron integral symmetry is turned on.
 One-electron integrals computed using PRISM.
 NBasis=    51 RedAO= T EigKep=  1.91D-03  NBF=    27     2    11    11
 NBsUse=    51 1.00D-06 EigRej= -1.00D+00 NBFU=    27     2    11    11
 ExpMin= 3.60D-02 ExpMax= 6.29D+03 ExpMxC= 9.49D+02 IAcc=3 IRadAn=         5 AccDes= 0.00D+00
 Harris functional with IExCor=  205 and IRadAn=       5 diagonalized for initial guess.
 HarFok:  IExCor=  205 AccDes= 0.00D+00 IRadAn=         5 IDoV= 1 UseB2=F ITyADJ=14
 ICtDFT=  3500011 ScaDFX=  1.000000  1.000000  1.000000  1.000000
 FoFCou: FMM=F IPFlag=           0 FMFlag=      100000 FMFlg1=           0
         NFxFlg=           0 DoJE=T BraDBF=F KetDBF=T FulRan=T
         wScrn=  0.000000 ICntrl=     500 IOpCl=  0 I1Cent=   200000004 NGrid=           0
         NMat0=    1 NMatS0=      1 NMatT0=    0 NMatD0=    1 NMtDS0=    0 NMtDT0=    0
 Petite list used in FoFCou.
 Initial guess orbital symmetries:
       Occupied  (SG) (SG) (SG) (PI) (PI) (SG) (SG)
       Virtual   (SG) (PI) (PI) (SG) (PI) (PI) (SG) (SG) (PI) (PI)
                 (SG) (SG) (SG) (PI) (PI) (SG) (SG) (SG) (PI) (PI)
                 (SG) (DLTA) (DLTA) (PI) (PI) (SG) (PI) (PI) (SG)
                 (DLTA) (DLTA) (SG) (PI) (PI) (SG) (PI) (PI) (SG)
                 (SG) (PI) (PI) (SG) (SG) (SG)
 The electronic state of the initial guess is 1-SG.
 Keep R1 ints in memory in symmetry-blocked form, NReq=1746583.
 Requested convergence on RMS density matrix=1.00D-08 within 128 cycles.
 Requested convergence on MAX density matrix=1.00D-06.
 Requested convergence on             energy=1.00D-06.
 No special actions if energy rises.
 SCF Done:  E(RHF) =  -92.7649076506     A.U. after   10 cycles
            NFock= 10  Conv=0.46D-08     -V/T= 1.9930
 ExpMin= 3.60D-02 ExpMax= 6.29D+03 ExpMxC= 9.49D+02 IAcc=3 IRadAn=         5 AccDes= 0.00D+00
 HarFok:  IExCor=  205 AccDes= 0.00D+00 IRadAn=         5 IDoV=-2 UseB2=F ITyADJ=14
 ICtDFT= 12500011 ScaDFX=  1.000000  1.000000  1.000000  1.000000
 Range of M.O.s used for correlation:     3    51
 NBasis=    51 NAE=     7 NBE=     7 NFC=     2 NFV=     0
 NROrb=     49 NOA=     5 NOB=     5 NVA=    44 NVB=    44

 **** Warning!!: The largest alpha MO coefficient is  0.11338705D+02

 Semi-Direct transformation.
 ModeAB=           2 MOrb=             5 LenV=     805105540
 LASXX=        74437 LTotXX=       74437 LenRXX=       74437
 LTotAB=       80677 MaxLAS=      350595 LenRXY=      350595
 NonZer=      370440 LenScr=     1111040 LnRSAI=           0
 LnScr1=           0 LExtra=           0 Total=      1536072
 MaxDsk=          -1 SrtSym=           F ITran=            4
 JobTyp=0 Pass  1:  I=   1 to   5.
 (rs|ai) integrals will be sorted in core.
 Spin components of T(2) and E(2):
     alpha-alpha T2 =       0.1155502466D-01 E2=     -0.3506099014D-01
     alpha-beta  T2 =       0.7284366623D-01 E2=     -0.2114553104D+00
     beta-beta   T2 =       0.1155502466D-01 E2=     -0.3506099014D-01
 ANorm=    0.1046878081D+01
 E2 =    -0.2815772906D+00 EUMP2 =    -0.93046484941262D+02
 Keep R2 and R3 ints in memory in symmetry-blocked form, NReq=1705586.
 Iterations=  50 Convergence= 0.100D-07
 Iteration Nr.   1
 **********************
 DD1Dir will call FoFMem   1 times, MxPair=        30
 NAB=    15 NAA=     0 NBB=     0.
 E3=       -0.82653024D-02        EUMP3=      -0.93054750244D+02
 DE(CI)=     -0.26466518     E(CI)=       -93.029572826    
 NORM(A)=   0.10426712D+01
 Iteration Nr.   2
 **********************
 DD1Dir will call FoFMem   1 times, MxPair=        30
 NAB=    15 NAA=     0 NBB=     0.
 DE(CI)=     -0.27355468     E(CI)=       -93.038462329    
 NORM(A)=   0.10467143D+01
 Iteration Nr.   3
 **********************
 DD1Dir will call FoFMem   1 times, MxPair=        30
 NAB=    15 NAA=     0 NBB=     0.
 DE(CI)=     -0.27456844     E(CI)=       -93.039476091    
 NORM(A)=   0.10477794D+01
 Iteration Nr.   4
 **********************
 DD1Dir will call FoFMem   1 times, MxPair=        30
 NAB=    15 NAA=     0 NBB=     0.
 DE(CI)=     -0.27518228     E(CI)=       -93.040089931    
 NORM(A)=   0.10480048D+01
 Iteration Nr.   5
 **********************
 DD1Dir will call FoFMem   1 times, MxPair=        30
 NAB=    15 NAA=     0 NBB=     0.
 DE(CI)=     -0.27522469     E(CI)=       -93.040132337    
 NORM(A)=   0.10480141D+01
 Iteration Nr.   6
 **********************
 DD1Dir will call FoFMem   1 times, MxPair=        30
 NAB=    15 NAA=     0 NBB=     0.
 DE(CI)=     -0.27522707     E(CI)=       -93.040134723    
 NORM(A)=   0.10480076D+01
 Iteration Nr.   7
 **********************
 DD1Dir will call FoFMem   1 times, MxPair=        30
 NAB=    15 NAA=     0 NBB=     0.
 DE(CI)=     -0.27522409     E(CI)=       -93.040131738    
 NORM(A)=   0.10480107D+01
 Iteration Nr.   8
 **********************
 DD1Dir will call FoFMem   1 times, MxPair=        30
 NAB=    15 NAA=     0 NBB=     0.
 DE(CI)=     -0.27522444     E(CI)=       -93.040132095    
 NORM(A)=   0.10480112D+01
 Iteration Nr.   9
 **********************
 DD1Dir will call FoFMem   1 times, MxPair=        30
 NAB=    15 NAA=     0 NBB=     0.
 DE(CI)=     -0.27522478     E(CI)=       -93.040132430    
 NORM(A)=   0.10480115D+01
 Iteration Nr.  10
 **********************
 DD1Dir will call FoFMem   1 times, MxPair=        30
 NAB=    15 NAA=     0 NBB=     0.
 DE(CI)=     -0.27522479     E(CI)=       -93.040132439    
 NORM(A)=   0.10480116D+01
 Iteration Nr.  11
 **********************
 DD1Dir will call FoFMem   1 times, MxPair=        30
 NAB=    15 NAA=     0 NBB=     0.
 DE(CI)=     -0.27522483     E(CI)=       -93.040132485    
 NORM(A)=   0.10480116D+01
 Iteration Nr.  12
 **********************
 DD1Dir will call FoFMem   1 times, MxPair=        30
 NAB=    15 NAA=     0 NBB=     0.
 DE(CI)=     -0.27522485     E(CI)=       -93.040132502    
 NORM(A)=   0.10480117D+01
 Iteration Nr.  13
 **********************
 DD1Dir will call FoFMem   1 times, MxPair=        30
 NAB=    15 NAA=     0 NBB=     0.
 DE(CI)=     -0.27522486     E(CI)=       -93.040132512    
 NORM(A)=   0.10480117D+01
 Iteration Nr.  14
 **********************
 DD1Dir will call FoFMem   1 times, MxPair=        30
 NAB=    15 NAA=     0 NBB=     0.
 DE(CI)=     -0.27522487     E(CI)=       -93.040132517    
 NORM(A)=   0.10480117D+01
 ***************************************************************
 Largest amplitude= 4.30D-02
 Discarding MO integrals.
          IDoAtm=111
          Differentiating once with respect to electric field.
                with respect to dipole field.
          Differentiating once with respect to nuclear coordinates.
 Keep R1 ints in memory in symmetry-blocked form, NReq=1726864.
          There are     1 degrees of freedom in the 1st order CPHF.  IDoFFX=0 NUNeed=     1.
 LinEq1:  Iter=  0 NonCon=     1 RMS=5.61D-03 Max=3.17D-02 NDo=     1
 AX will form     1 AO Fock derivatives at one time.
 LinEq1:  Iter=  1 NonCon=     1 RMS=1.48D-03 Max=1.18D-02 NDo=     1
 LinEq1:  Iter=  2 NonCon=     1 RMS=3.81D-04 Max=1.91D-03 NDo=     1
 LinEq1:  Iter=  3 NonCon=     1 RMS=1.15D-04 Max=8.89D-04 NDo=     1
 LinEq1:  Iter=  4 NonCon=     1 RMS=3.98D-05 Max=2.06D-04 NDo=     1
 LinEq1:  Iter=  5 NonCon=     1 RMS=4.96D-06 Max=2.83D-05 NDo=     1
 LinEq1:  Iter=  6 NonCon=     1 RMS=5.30D-07 Max=2.98D-06 NDo=     1
 LinEq1:  Iter=  7 NonCon=     1 RMS=5.16D-08 Max=3.51D-07 NDo=     1
 LinEq1:  Iter=  8 NonCon=     1 RMS=5.12D-09 Max=3.13D-08 NDo=     1
 LinEq1:  Iter=  9 NonCon=     1 RMS=5.11D-10 Max=3.56D-09 NDo=     1
 LinEq1:  Iter= 10 NonCon=     0 RMS=4.96D-11 Max=2.73D-10 NDo=     1
 Linear equations converged to 1.000D-10 1.000D-09 after    10 iterations.
 End of Minotr F.D. properties file   721 does not exist.
 End of Minotr F.D. properties file   722 does not exist.
 End of Minotr F.D. properties file   788 does not exist.

 **********************************************************************

            Population analysis using the SCF density.

 **********************************************************************

 Orbital symmetries:
       Occupied  (SG) (SG) (SG) (SG) (SG) (PI) (PI)
       Virtual   (SG) (SG) (PI) (PI) (SG) (SG) (PI) (PI) (SG) (PI)
                 (PI) (SG) (SG) (PI) (PI) (SG) (SG) (SG) (PI) (PI)
                 (SG) (PI) (PI) (DLTA) (DLTA) (SG) (PI) (PI) (SG)
                 (DLTA) (DLTA) (SG) (PI) (PI) (SG) (SG) (PI) (PI)
                 (SG) (PI) (PI) (SG) (SG) (SG)
 The electronic state is 1-SG.
 Alpha  occ. eigenvalues --  -15.53905 -11.26489  -1.30893  -0.65391  -0.55839
 Alpha  occ. eigenvalues --   -0.54703  -0.54703
 Alpha virt. eigenvalues --    0.02424   0.07695   0.09175   0.09175   0.13013
 Alpha virt. eigenvalues --    0.16906   0.21065   0.21065   0.27770   0.31581
 Alpha virt. eigenvalues --    0.31581   0.33606   0.47464   0.71373   0.71373
 Alpha virt. eigenvalues --    0.74427   0.88291   1.00220   1.08165   1.08165
 Alpha virt. eigenvalues --    1.40590   1.44967   1.44967   1.49267   1.49267
 Alpha virt. eigenvalues --    1.54728   1.92379   1.92379   1.99618   2.47159
 Alpha virt. eigenvalues --    2.47159   2.69285   3.05562   3.05562   3.09691
 Alpha virt. eigenvalues --    3.17764   3.24613   3.24613   3.88874   4.47209
 Alpha virt. eigenvalues --    4.47209   5.23237  25.25391  37.60862
          Condensed to atoms (all electrons):
               1          2          3
     1  N    6.592035   0.830298   0.021386
     2  C    0.830298   4.718278   0.299071
     3  H    0.021386   0.299071   0.388177
 Mulliken charges:
               1
     1  N   -0.443719
     2  C    0.152353
     3  H    0.291366
 Sum of Mulliken charges =   0.00000
 Mulliken charges with hydrogens summed into heavy atoms:
               1
     1  N   -0.443719
     2  C    0.443719
 Electronic spatial extent (au):  <R**2>=             48.8126
 Charge=              0.0000 electrons
 Dipole moment (field-independent basis, Debye):
    X=              0.0000    Y=              0.0000    Z=             -3.7976  Tot=              3.7976
 Quadrupole moment (field-independent basis, Debye-Ang):
   XX=            -11.7770   YY=            -11.7770   ZZ=             -8.0493
   XY=              0.0000   XZ=              0.0000   YZ=              0.0000
 Traceless Quadrupole moment (field-independent basis, Debye-Ang):
   XX=             -1.2426   YY=             -1.2426   ZZ=              2.4851
   XY=              0.0000   XZ=              0.0000   YZ=              0.0000
 Octapole moment (field-independent basis, Debye-Ang**2):
  XXX=              0.0000  YYY=              0.0000  ZZZ=            -13.0456  XYY=              0.0000
  XXY=              0.0000  XXZ=              0.1739  XZZ=              0.0000  YZZ=              0.0000
  YYZ=              0.1739  XYZ=              0.0000
 Hexadecapole moment (field-independent basis, Debye-Ang**3):
 XXXX=            -11.6968 YYYY=            -11.6968 ZZZZ=            -23.7473 XXXY=              0.0000
 XXXZ=              0.0000 YYYX=              0.0000 YYYZ=              0.0000 ZZZX=              0.0000
 ZZZY=              0.0000 XXYY=             -3.8989 XXZZ=             -9.9886 YYZZ=             -9.9886
 XXYZ=              0.0000 YYXZ=              0.0000 ZZXY=              0.0000
 N-N= 2.582384777919D+01 E-N=-2.697576737863D+02  KE= 9.341861196368D+01
 Symmetry A1   KE= 8.757253278437D+01
 Symmetry A2   KE=-6.280712488287D-51
 Symmetry B1   KE= 2.923039589653D+00
 Symmetry B2   KE= 2.923039589653D+00
 Calling FoFJK, ICntrl=  10002127 FMM=F ISym2X=1 I1Cent= 0 IOpClX= 0 NMat=1 NMatS=1 NMatT=0.
 ***** Axes restored to original set *****
 -------------------------------------------------------------------
 Center     Atomic                   Forces (Hartrees/Bohr)
 Number     Number              X              Y              Z
 -------------------------------------------------------------------
      1        7           0.000000000    0.000000000   -0.620285624
      2        6           0.000000000    0.000000000    0.738890194
      3        1           0.000000000    0.000000000   -0.118604570
 -------------------------------------------------------------------
 Cartesian Forces:  Max     0.738890194 RMS     0.323999317

 GradGradGradGradGradGradGradGradGradGradGradGradGradGradGradGradGradGrad
 Berny optimization.
 FormGI is forming the generalized inverse of G from B-inverse, IUseBI=4.
 Internal  Forces:  Max     0.620285624 RMS     0.315761500
 Search for a local minimum.
 Step number   1 out of a maximum of   20
 All quantities printed in internal units (Hartrees-Bohrs-Radians)
 Mixed Optimization -- RFO/linear search
 Second derivative matrix not updated -- first step.
 The second derivative matrix:
                          R1        R2        A1        A2
           R1           3.32740
           R2           0.00000   0.11333
           A1           0.00000   0.00000   0.00230
           A2           0.00000   0.00000   0.00000   0.00230
 ITU=  0
     Eigenvalues ---    0.00230   0.00230   0.11333   3.32740
 RFO step:  Lambda=-1.61470946D-01 EMin= 2.30000000D-03
 Linear search not attempted -- first point.
 Maximum step size (   0.300) exceeded in Quadratic search.
    -- Step size scaled by   0.643
 Iteration  1 RMS(Cart)=  0.07095003 RMS(Int)=  0.03869382
 Iteration  2 RMS(Cart)=  0.03159337 RMS(Int)=  0.00000002
 SLEqS3 Cycle:    91 Max:0.102177E-07 RMS:0.516650E-08 Conv:0.265258E-13
 SLEqS3 Cycle:    91 Max:0.644100E-08 RMS:0.368939E-08 Conv:0.265258E-13
 Iteration  3 RMS(Cart)=  0.00000001 RMS(Int)=  0.00000001
 ClnCor:  largest displacement from symmetrization is 2.44D-08 for atom     2.
 Variable       Old X    -DE/DX   Delta X   Delta X   Delta X     New X
                                 (Linear)    (Quad)   (Total)
    R1        1.88973   0.62029   0.00000   0.11426   0.11426   2.00399
    R2        2.83459  -0.11860   0.00000  -0.27739  -0.27739   2.55720
    A1        3.14159   0.00000   0.00000   0.00000   0.00000   3.14159
    A2        3.14159   0.00000   0.00000   0.00000   0.00000   3.14159
         Item               Value     Threshold  Converged?
 Maximum Force            0.620286     0.000015     NO 
 RMS     Force            0.315761     0.000010     NO 
 Maximum Displacement     0.146837     0.000060     NO 
 RMS     Displacement     0.098577     0.000040     NO 
 Predicted change in Energy=-7.769397D-02
 GradGradGradGradGradGradGradGradGradGradGradGradGradGradGradGradGradGrad

                          Input orientation:                          
 ---------------------------------------------------------------------
 Center     Atomic      Atomic             Coordinates (Angstroms)
 Number     Number       Type             X           Y           Z
 ---------------------------------------------------------------------
      1          7           0        0.000000    0.000000    0.008619
      2          6           0        0.000000    0.000000    1.069084
      3          1           0        0.000000    0.000000    2.422297
 ---------------------------------------------------------------------
                    Distance matrix (angstroms):
                    1          2          3
     1  N    0.000000
     2  C    1.060466   0.000000
     3  H    2.413678   1.353213   0.000000
 Stoichiometry    CHN
 Framework group  C*V[C*(HCN)]
 Deg. of freedom     2
 Full point group                 C*V     NOp   4
 Largest Abelian subgroup         C2V     NOp   4
 Largest concise Abelian subgroup C1      NOp   1
                         Standard orientation:                         
 ---------------------------------------------------------------------
 Center     Atomic      Atomic             Coordinates (Angstroms)
 Number     Number       Type             X           Y           Z
 ---------------------------------------------------------------------
      1          7           0        0.000000    0.000000    0.626891
      2          6           0        0.000000    0.000000   -0.433575
      3          1           0        0.000000    0.000000   -1.786787
 ---------------------------------------------------------------------
 Rotational constants (GHZ):      0.0000000     46.5361376     46.5361376
 Standard basis: 6-311++G(d,p) (5D, 7F)
 There are    29 symmetry adapted cartesian basis functions of A1  symmetry.
 There are     2 symmetry adapted cartesian basis functions of A2  symmetry.
 There are    11 symmetry adapted cartesian basis functions of B1  symmetry.
 There are    11 symmetry adapted cartesian basis functions of B2  symmetry.
 There are    27 symmetry adapted basis functions of A1  symmetry.
 There are     2 symmetry adapted basis functions of A2  symmetry.
 There are    11 symmetry adapted basis functions of B1  symmetry.
 There are    11 symmetry adapted basis functions of B2  symmetry.
    51 basis functions,    81 primitive gaussians,    53 cartesian basis functions
     7 alpha electrons        7 beta electrons
       nuclear repulsion energy        24.8391963664 Hartrees.
 NAtoms=    3 NActive=    3 NUniq=    3 SFac= 1.00D+00 NAtFMM=   60 NAOKFM=F Big=F
 Integral buffers will be    131072 words long.
 Raffenetti 1 integral format.
 Two-electron integral symmetry is turned on.
 One-electron integrals computed using PRISM.
 NBasis=    51 RedAO= T EigKep=  2.27D-03  NBF=    27     2    11    11
 NBsUse=    51 1.00D-06 EigRej= -1.00D+00 NBFU=    27     2    11    11
 Initial guess from the checkpoint file:  "hnc-cisdfc-180.chk"
 B after Tr=     0.000000    0.000000    0.000000
         Rot=    1.000000    0.000000    0.000000    0.000000 Ang=   0.00 deg.
 Initial guess orbital symmetries:
       Occupied  (SG) (SG) (SG) (SG) (SG) (PI) (PI)
       Virtual   (SG) (SG) (SG) (SG) (SG) (SG) (SG) (DLTA) (SG)
                 (SG) (SG) (DLTA) (SG) (SG) (SG) (SG) (SG) (SG)
                 (SG) (SG) (SG) (SG) (DLTA) (DLTA) (PI) (PI) (PI)
                 (PI) (PI) (PI) (PI) (PI) (PI) (PI) (PI) (PI) (PI)
                 (PI) (PI) (PI) (PI) (PI) (PI) (PI)
 ExpMin= 3.60D-02 ExpMax= 6.29D+03 ExpMxC= 9.49D+02 IAcc=3 IRadAn=         5 AccDes= 0.00D+00
 Harris functional with IExCor=  205 and IRadAn=       5 diagonalized for initial guess.
 HarFok:  IExCor=  205 AccDes= 0.00D+00 IRadAn=         5 IDoV= 1 UseB2=F ITyADJ=14
 ICtDFT=  3500011 ScaDFX=  1.000000  1.000000  1.000000  1.000000
 FoFCou: FMM=F IPFlag=           0 FMFlag=      100000 FMFlg1=           0
         NFxFlg=           0 DoJE=T BraDBF=F KetDBF=T FulRan=T
         wScrn=  0.000000 ICntrl=     500 IOpCl=  0 I1Cent=   200000004 NGrid=           0
         NMat0=    1 NMatS0=      1 NMatT0=    0 NMatD0=    1 NMtDS0=    0 NMtDT0=    0
 Petite list used in FoFCou.
 Keep R1 ints in memory in symmetry-blocked form, NReq=1746597.
 Requested convergence on RMS density matrix=1.00D-08 within 128 cycles.
 Requested convergence on MAX density matrix=1.00D-06.
 Requested convergence on             energy=1.00D-06.
 No special actions if energy rises.
 SCF Done:  E(RHF) =  -92.8446989036     A.U. after   10 cycles
            NFock= 10  Conv=0.96D-08     -V/T= 1.9983
 ExpMin= 3.60D-02 ExpMax= 6.29D+03 ExpMxC= 9.49D+02 IAcc=3 IRadAn=         5 AccDes= 0.00D+00
 HarFok:  IExCor=  205 AccDes= 0.00D+00 IRadAn=         5 IDoV=-2 UseB2=F ITyADJ=14
 ICtDFT= 12500011 ScaDFX=  1.000000  1.000000  1.000000  1.000000
 Range of M.O.s used for correlation:     3    51
 NBasis=    51 NAE=     7 NBE=     7 NFC=     2 NFV=     0
 NROrb=     49 NOA=     5 NOB=     5 NVA=    44 NVB=    44

 **** Warning!!: The largest alpha MO coefficient is  0.10418617D+02

 Semi-Direct transformation.
 ModeAB=           2 MOrb=             5 LenV=     805105510
 LASXX=        74437 LTotXX=       74437 LenRXX=       74437
 LTotAB=       80677 MaxLAS=      350595 LenRXY=      350595
 NonZer=      370440 LenScr=     1111040 LnRSAI=           0
 LnScr1=           0 LExtra=           0 Total=      1536072
 MaxDsk=          -1 SrtSym=           F ITran=            4
 JobTyp=0 Pass  1:  I=   1 to   5.
 (rs|ai) integrals will be sorted in core.
 Spin components of T(2) and E(2):
     alpha-alpha T2 =       0.1260433210D-01 E2=     -0.3636783974D-01
     alpha-beta  T2 =       0.7612455355D-01 E2=     -0.2164906997D+00
     beta-beta   T2 =       0.1260433210D-01 E2=     -0.3636783974D-01
 ANorm=    0.1049444242D+01
 E2 =    -0.2892263792D+00 EUMP2 =    -0.93133925282815D+02
 Keep R2 and R3 ints in memory in symmetry-blocked form, NReq=1705586.
 Iterations=  50 Convergence= 0.100D-07
 Iteration Nr.   1
 **********************
 DD1Dir will call FoFMem   1 times, MxPair=        30
 NAB=    15 NAA=     0 NBB=     0.
 E3=       -0.50281670D-02        EUMP3=      -0.93138953450D+02
 DE(CI)=     -0.26763253     E(CI)=       -93.112331435    
 NORM(A)=   0.10432612D+01
 Iteration Nr.   2
 **********************
 DD1Dir will call FoFMem   1 times, MxPair=        30
 NAB=    15 NAA=     0 NBB=     0.
 DE(CI)=     -0.27801344     E(CI)=       -93.122712348    
 NORM(A)=   0.10472951D+01
 Iteration Nr.   3
 **********************
 DD1Dir will call FoFMem   1 times, MxPair=        30
 NAB=    15 NAA=     0 NBB=     0.
 DE(CI)=     -0.27870246     E(CI)=       -93.123401362    
 NORM(A)=   0.10482700D+01
 Iteration Nr.   4
 **********************
 DD1Dir will call FoFMem   1 times, MxPair=        30
 NAB=    15 NAA=     0 NBB=     0.
 DE(CI)=     -0.27933840     E(CI)=       -93.124037305    
 NORM(A)=   0.10485210D+01
 Iteration Nr.   5
 **********************
 DD1Dir will call FoFMem   1 times, MxPair=        30
 NAB=    15 NAA=     0 NBB=     0.
 DE(CI)=     -0.27939209     E(CI)=       -93.124090993    
 NORM(A)=   0.10485288D+01
 Iteration Nr.   6
 **********************
 DD1Dir will call FoFMem   1 times, MxPair=        30
 NAB=    15 NAA=     0 NBB=     0.
 DE(CI)=     -0.27939414     E(CI)=       -93.124093042    
 NORM(A)=   0.10485196D+01
 Iteration Nr.   7
 **********************
 DD1Dir will call FoFMem   1 times, MxPair=        30
 NAB=    15 NAA=     0 NBB=     0.
 DE(CI)=     -0.27939054     E(CI)=       -93.124089441    
 NORM(A)=   0.10485221D+01
 Iteration Nr.   8
 **********************
 DD1Dir will call FoFMem   1 times, MxPair=        30
 NAB=    15 NAA=     0 NBB=     0.
 DE(CI)=     -0.27939088     E(CI)=       -93.124089781    
 NORM(A)=   0.10485226D+01
 Iteration Nr.   9
 **********************
 DD1Dir will call FoFMem   1 times, MxPair=        30
 NAB=    15 NAA=     0 NBB=     0.
 DE(CI)=     -0.27939119     E(CI)=       -93.124090092    
 NORM(A)=   0.10485228D+01
 Iteration Nr.  10
 **********************
 DD1Dir will call FoFMem   1 times, MxPair=        30
 NAB=    15 NAA=     0 NBB=     0.
 DE(CI)=     -0.27939117     E(CI)=       -93.124090073    
 NORM(A)=   0.10485228D+01
 Iteration Nr.  11
 **********************
 DD1Dir will call FoFMem   1 times, MxPair=        30
 NAB=    15 NAA=     0 NBB=     0.
 DE(CI)=     -0.27939120     E(CI)=       -93.124090102    
 NORM(A)=   0.10485228D+01
 Iteration Nr.  12
 **********************
 DD1Dir will call FoFMem   1 times, MxPair=        30
 NAB=    15 NAA=     0 NBB=     0.
 DE(CI)=     -0.27939121     E(CI)=       -93.124090109    
 NORM(A)=   0.10485228D+01
 ***************************************************************
 Largest amplitude= 4.14D-02
 Discarding MO integrals.
          IDoAtm=111
          Differentiating once with respect to electric field.
                with respect to dipole field.
          Differentiating once with respect to nuclear coordinates.
 Keep R1 ints in memory in symmetry-blocked form, NReq=1726881.
          There are     1 degrees of freedom in the 1st order CPHF.  IDoFFX=0 NUNeed=     1.
 LinEq1:  Iter=  0 NonCon=     1 RMS=5.76D-03 Max=3.03D-02 NDo=     1
 AX will form     1 AO Fock derivatives at one time.
 LinEq1:  Iter=  1 NonCon=     1 RMS=1.56D-03 Max=1.27D-02 NDo=     1
 LinEq1:  Iter=  2 NonCon=     1 RMS=3.67D-04 Max=1.88D-03 NDo=     1
 LinEq1:  Iter=  3 NonCon=     1 RMS=1.45D-04 Max=1.17D-03 NDo=     1
 LinEq1:  Iter=  4 NonCon=     1 RMS=4.43D-05 Max=2.42D-04 NDo=     1
 LinEq1:  Iter=  5 NonCon=     1 RMS=5.63D-06 Max=2.84D-05 NDo=     1
 LinEq1:  Iter=  6 NonCon=     1 RMS=6.07D-07 Max=4.05D-06 NDo=     1
 LinEq1:  Iter=  7 NonCon=     1 RMS=6.16D-08 Max=4.03D-07 NDo=     1
 LinEq1:  Iter=  8 NonCon=     1 RMS=6.25D-09 Max=3.65D-08 NDo=     1
 LinEq1:  Iter=  9 NonCon=     1 RMS=5.51D-10 Max=4.23D-09 NDo=     1
 LinEq1:  Iter= 10 NonCon=     0 RMS=5.26D-11 Max=3.20D-10 NDo=     1
 Linear equations converged to 1.000D-10 1.000D-09 after    10 iterations.
 End of Minotr F.D. properties file   721 does not exist.
 End of Minotr F.D. properties file   722 does not exist.
 End of Minotr F.D. properties file   788 does not exist.
 Calling FoFJK, ICntrl=  10002127 FMM=F ISym2X=1 I1Cent= 0 IOpClX= 0 NMat=1 NMatS=1 NMatT=0.
 ***** Axes restored to original set *****
 -------------------------------------------------------------------
 Center     Atomic                   Forces (Hartrees/Bohr)
 Number     Number              X              Y              Z
 -------------------------------------------------------------------
      1        7           0.000000000    0.000000000   -0.305196728
      2        6           0.000000000    0.000000000    0.415445583
      3        1           0.000000000    0.000000000   -0.110248855
 -------------------------------------------------------------------
 Cartesian Forces:  Max     0.415445583 RMS     0.175719121

 GradGradGradGradGradGradGradGradGradGradGradGradGradGradGradGradGradGrad
 Berny optimization.
 Using GEDIIS/GDIIS optimizer.
 Internal  Forces:  Max     0.305196728 RMS     0.162249694
 Search for a local minimum.
 Step number   2 out of a maximum of   20
 All quantities printed in internal units (Hartrees-Bohrs-Radians)
 Mixed Optimization -- RFO/linear search
 Update second derivatives using D2CorX and points    1    2
 DE= -8.40D-02 DEPred=-7.77D-02 R= 1.08D+00
 TightC=F SS=  1.41D+00  RLast= 3.00D-01 DXNew= 5.0454D-01 9.0000D-01
 Trust test= 1.08D+00 RLast= 3.00D-01 DXMaxT set to 5.05D-01
 The second derivative matrix:
                          R1        R2        A1        A2
           R1           3.14701
           R2           0.16042   0.09620
           A1           0.00000   0.00000   0.00230
           A2           0.00000   0.00000   0.00000   0.00230
 ITU=  1  0
 Use linear search instead of GDIIS.
 Linear search step of   0.600 exceeds DXMaxT=   0.505 but not scaled.
 Quartic linear search produced a step of  2.00000.
 Iteration  1 RMS(Cart)=  0.08164966 RMS(Int)=  0.17796015
 Iteration  2 RMS(Cart)=  0.07649450 RMS(Int)=  0.07738764
 Iteration  3 RMS(Cart)=  0.06318675 RMS(Int)=  0.00000000
 Iteration  4 RMS(Cart)=  0.00000000 RMS(Int)=  0.00000000
 ClnCor:  largest displacement from symmetrization is 2.39D-08 for atom     2.
 Variable       Old X    -DE/DX   Delta X   Delta X   Delta X     New X
                                 (Linear)    (Quad)   (Total)
    R1        2.00399   0.30520   0.22853   0.00000   0.22853   2.23252
    R2        2.55720  -0.11025  -0.55478   0.00000  -0.55478   2.00243
    A1        3.14159   0.00000   0.00000   0.00000   0.00000   3.14159
    A2        3.14159   0.00000   0.00000   0.00000   0.00000   3.14159
         Item               Value     Threshold  Converged?
 Maximum Force            0.305197     0.000015     NO 
 RMS     Force            0.162250     0.000010     NO 
 Maximum Displacement     0.293675     0.000060     NO 
 RMS     Displacement     0.197154     0.000040     NO 
 Predicted change in Energy=-5.426717D-02
 GradGradGradGradGradGradGradGradGradGradGradGradGradGradGradGradGradGrad

                          Input orientation:                          
 ---------------------------------------------------------------------
 Center     Atomic      Atomic             Coordinates (Angstroms)
 Number     Number       Type             X           Y           Z
 ---------------------------------------------------------------------
      1          7           0        0.000000    0.000000    0.025856
      2          6           0        0.000000    0.000000    1.207253
      3          1           0        0.000000    0.000000    2.266891
 ---------------------------------------------------------------------
                    Distance matrix (angstroms):
                    1          2          3
     1  N    0.000000
     2  C    1.181397   0.000000
     3  H    2.241035   1.059638   0.000000
 Stoichiometry    CHN
 Framework group  C*V[C*(HCN)]
 Deg. of freedom     2
 Full point group                 C*V     NOp   4
 Largest Abelian subgroup         C2V     NOp   4
 Largest concise Abelian subgroup C1      NOp   1
                         Standard orientation:                         
 ---------------------------------------------------------------------
 Center     Atomic      Atomic             Coordinates (Angstroms)
 Number     Number       Type             X           Y           Z
 ---------------------------------------------------------------------
      1          7           0        0.000000    0.000000    0.666387
      2          6           0        0.000000    0.000000   -0.515010
      3          1           0        0.000000    0.000000   -1.574648
 ---------------------------------------------------------------------
 Rotational constants (GHZ):      0.0000000     42.7942740     42.7942740
 Standard basis: 6-311++G(d,p) (5D, 7F)
 There are    29 symmetry adapted cartesian basis functions of A1  symmetry.
 There are     2 symmetry adapted cartesian basis functions of A2  symmetry.
 There are    11 symmetry adapted cartesian basis functions of B1  symmetry.
 There are    11 symmetry adapted cartesian basis functions of B2  symmetry.
 There are    27 symmetry adapted basis functions of A1  symmetry.
 There are     2 symmetry adapted basis functions of A2  symmetry.
 There are    11 symmetry adapted basis functions of B1  symmetry.
 There are    11 symmetry adapted basis functions of B2  symmetry.
    51 basis functions,    81 primitive gaussians,    53 cartesian basis functions
     7 alpha electrons        7 beta electrons
       nuclear repulsion energy        23.4621355826 Hartrees.
 NAtoms=    3 NActive=    3 NUniq=    3 SFac= 1.00D+00 NAtFMM=   60 NAOKFM=F Big=F
 Integral buffers will be    131072 words long.
 Raffenetti 1 integral format.
 Two-electron integral symmetry is turned on.
 One-electron integrals computed using PRISM.
 NBasis=    51 RedAO= T EigKep=  2.96D-03  NBF=    27     2    11    11
 NBsUse=    51 1.00D-06 EigRej= -1.00D+00 NBFU=    27     2    11    11
 Initial guess from the checkpoint file:  "hnc-cisdfc-180.chk"
 B after Tr=     0.000000    0.000000    0.000000
         Rot=    1.000000    0.000000    0.000000    0.000000 Ang=   0.00 deg.
 Initial guess orbital symmetries:
       Occupied  (SG) (SG) (SG) (SG) (SG) (PI) (PI)
       Virtual   (SG) (SG) (SG) (SG) (SG) (SG) (SG) (DLTA) (SG)
                 (SG) (SG) (DLTA) (SG) (SG) (SG) (SG) (SG) (SG)
                 (SG) (SG) (SG) (SG) (DLTA) (DLTA) (PI) (PI) (PI)
                 (PI) (PI) (PI) (PI) (PI) (PI) (PI) (PI) (PI) (PI)
                 (PI) (PI) (PI) (PI) (PI) (PI) (PI)
 ExpMin= 3.60D-02 ExpMax= 6.29D+03 ExpMxC= 9.49D+02 IAcc=3 IRadAn=         5 AccDes= 0.00D+00
 Harris functional with IExCor=  205 and IRadAn=       5 diagonalized for initial guess.
 HarFok:  IExCor=  205 AccDes= 0.00D+00 IRadAn=         5 IDoV= 1 UseB2=F ITyADJ=14
 ICtDFT=  3500011 ScaDFX=  1.000000  1.000000  1.000000  1.000000
 FoFCou: FMM=F IPFlag=           0 FMFlag=      100000 FMFlg1=           0
         NFxFlg=           0 DoJE=T BraDBF=F KetDBF=T FulRan=T
         wScrn=  0.000000 ICntrl=     500 IOpCl=  0 I1Cent=   200000004 NGrid=           0
         NMat0=    1 NMatS0=      1 NMatT0=    0 NMatD0=    1 NMtDS0=    0 NMtDT0=    0
 Petite list used in FoFCou.
 Keep R1 ints in memory in symmetry-blocked form, NReq=1746594.
 Requested convergence on RMS density matrix=1.00D-08 within 128 cycles.
 Requested convergence on MAX density matrix=1.00D-06.
 Requested convergence on             energy=1.00D-06.
 No special actions if energy rises.
 SCF Done:  E(RHF) =  -92.8941474286     A.U. after   11 cycles
            NFock= 11  Conv=0.64D-08     -V/T= 2.0034
 ExpMin= 3.60D-02 ExpMax= 6.29D+03 ExpMxC= 9.49D+02 IAcc=3 IRadAn=         5 AccDes= 0.00D+00
 HarFok:  IExCor=  205 AccDes= 0.00D+00 IRadAn=         5 IDoV=-2 UseB2=F ITyADJ=14
 ICtDFT= 12500011 ScaDFX=  1.000000  1.000000  1.000000  1.000000
 Range of M.O.s used for correlation:     3    51
 NBasis=    51 NAE=     7 NBE=     7 NFC=     2 NFV=     0
 NROrb=     49 NOA=     5 NOB=     5 NVA=    44 NVB=    44
 Semi-Direct transformation.
 ModeAB=           2 MOrb=             5 LenV=     805105484
 LASXX=        74437 LTotXX=       74437 LenRXX=       74437
 LTotAB=       80677 MaxLAS=      350595 LenRXY=      350595
 NonZer=      370440 LenScr=     1111040 LnRSAI=           0
 LnScr1=           0 LExtra=           0 Total=      1536072
 MaxDsk=          -1 SrtSym=           F ITran=            4
 JobTyp=0 Pass  1:  I=   1 to   5.
 (rs|ai) integrals will be sorted in core.
 Spin components of T(2) and E(2):
     alpha-alpha T2 =       0.1535511673D-01 E2=     -0.3956532491D-01
     alpha-beta  T2 =       0.8744915091D-01 E2=     -0.2297003739D+00
     beta-beta   T2 =       0.1535511673D-01 E2=     -0.3956532491D-01
 ANorm=    0.1057430558D+01
 E2 =    -0.3088310237D+00 EUMP2 =    -0.93202978452265D+02
 Keep R2 and R3 ints in memory in symmetry-blocked form, NReq=1705586.
 Iterations=  50 Convergence= 0.100D-07
 Iteration Nr.   1
 **********************
 DD1Dir will call FoFMem   1 times, MxPair=        30
 NAB=    15 NAA=     0 NBB=     0.
 E3=        0.39754003D-02        EUMP3=      -0.93199003052D+02
 DE(CI)=     -0.27384053     E(CI)=       -93.167987961    
 NORM(A)=   0.10457770D+01
 Iteration Nr.   2
 **********************
 DD1Dir will call FoFMem   1 times, MxPair=        30
 NAB=    15 NAA=     0 NBB=     0.
 DE(CI)=     -0.28912932     E(CI)=       -93.183276747    
 NORM(A)=   0.10504843D+01
 Iteration Nr.   3
 **********************
 DD1Dir will call FoFMem   1 times, MxPair=        30
 NAB=    15 NAA=     0 NBB=     0.
 DE(CI)=     -0.28909740     E(CI)=       -93.183244824    
 NORM(A)=   0.10515266D+01
 Iteration Nr.   4
 **********************
 DD1Dir will call FoFMem   1 times, MxPair=        30
 NAB=    15 NAA=     0 NBB=     0.
 DE(CI)=     -0.28986857     E(CI)=       -93.184015994    
 NORM(A)=   0.10519995D+01
 Iteration Nr.   5
 **********************
 DD1Dir will call FoFMem   1 times, MxPair=        30
 NAB=    15 NAA=     0 NBB=     0.
 DE(CI)=     -0.28998853     E(CI)=       -93.184135961    
 NORM(A)=   0.10520039D+01
 Iteration Nr.   6
 **********************
 DD1Dir will call FoFMem   1 times, MxPair=        30
 NAB=    15 NAA=     0 NBB=     0.
 DE(CI)=     -0.28998168     E(CI)=       -93.184129112    
 NORM(A)=   0.10519835D+01
 Iteration Nr.   7
 **********************
 DD1Dir will call FoFMem   1 times, MxPair=        30
 NAB=    15 NAA=     0 NBB=     0.
 DE(CI)=     -0.28997570     E(CI)=       -93.184123125    
 NORM(A)=   0.10519880D+01
 Iteration Nr.   8
 **********************
 DD1Dir will call FoFMem   1 times, MxPair=        30
 NAB=    15 NAA=     0 NBB=     0.
 DE(CI)=     -0.28997698     E(CI)=       -93.184124405    
 NORM(A)=   0.10519888D+01
 Iteration Nr.   9
 **********************
 DD1Dir will call FoFMem   1 times, MxPair=        30
 NAB=    15 NAA=     0 NBB=     0.
 DE(CI)=     -0.28997726     E(CI)=       -93.184124691    
 NORM(A)=   0.10519889D+01
 Iteration Nr.  10
 **********************
 DD1Dir will call FoFMem   1 times, MxPair=        30
 NAB=    15 NAA=     0 NBB=     0.
 DE(CI)=     -0.28997717     E(CI)=       -93.184124600    
 NORM(A)=   0.10519888D+01
 Iteration Nr.  11
 **********************
 DD1Dir will call FoFMem   1 times, MxPair=        30
 NAB=    15 NAA=     0 NBB=     0.
 DE(CI)=     -0.28997719     E(CI)=       -93.184124616    
 NORM(A)=   0.10519889D+01
 Iteration Nr.  12
 **********************
 DD1Dir will call FoFMem   1 times, MxPair=        30
 NAB=    15 NAA=     0 NBB=     0.
 DE(CI)=     -0.28997719     E(CI)=       -93.184124620    
 NORM(A)=   0.10519889D+01
 ***************************************************************
 Largest amplitude= 4.77D-02
 Discarding MO integrals.
          IDoAtm=111
          Differentiating once with respect to electric field.
                with respect to dipole field.
          Differentiating once with respect to nuclear coordinates.
 Keep R1 ints in memory in symmetry-blocked form, NReq=1726879.
          There are     1 degrees of freedom in the 1st order CPHF.  IDoFFX=0 NUNeed=     1.
 LinEq1:  Iter=  0 NonCon=     1 RMS=6.65D-03 Max=3.81D-02 NDo=     1
 AX will form     1 AO Fock derivatives at one time.
 LinEq1:  Iter=  1 NonCon=     1 RMS=1.67D-03 Max=1.17D-02 NDo=     1
 LinEq1:  Iter=  2 NonCon=     1 RMS=3.76D-04 Max=2.21D-03 NDo=     1
 LinEq1:  Iter=  3 NonCon=     1 RMS=2.39D-04 Max=1.89D-03 NDo=     1
 LinEq1:  Iter=  4 NonCon=     1 RMS=5.37D-05 Max=4.14D-04 NDo=     1
 LinEq1:  Iter=  5 NonCon=     1 RMS=7.63D-06 Max=4.87D-05 NDo=     1
 LinEq1:  Iter=  6 NonCon=     1 RMS=8.94D-07 Max=5.09D-06 NDo=     1
 LinEq1:  Iter=  7 NonCon=     1 RMS=1.01D-07 Max=4.97D-07 NDo=     1
 LinEq1:  Iter=  8 NonCon=     1 RMS=9.32D-09 Max=5.27D-08 NDo=     1
 LinEq1:  Iter=  9 NonCon=     1 RMS=5.46D-10 Max=3.82D-09 NDo=     1
 LinEq1:  Iter= 10 NonCon=     0 RMS=3.41D-11 Max=2.39D-10 NDo=     1
 Linear equations converged to 1.000D-10 1.000D-09 after    10 iterations.
 End of Minotr F.D. properties file   721 does not exist.
 End of Minotr F.D. properties file   722 does not exist.
 End of Minotr F.D. properties file   788 does not exist.
 Calling FoFJK, ICntrl=  10002127 FMM=F ISym2X=1 I1Cent= 0 IOpClX= 0 NMat=1 NMatS=1 NMatT=0.
 ***** Axes restored to original set *****
 -------------------------------------------------------------------
 Center     Atomic                   Forces (Hartrees/Bohr)
 Number     Number              X              Y              Z
 -------------------------------------------------------------------
      1        7           0.000000000    0.000000000    0.070759725
      2        6           0.000000000    0.000000000   -0.076228251
      3        1           0.000000000    0.000000000    0.005468526
 -------------------------------------------------------------------
 Cartesian Forces:  Max     0.076228251 RMS     0.034717254

 GradGradGradGradGradGradGradGradGradGradGradGradGradGradGradGradGradGrad
 Berny optimization.
 Using GEDIIS/GDIIS optimizer.
 Internal  Forces:  Max     0.070759725 RMS     0.035485361
 Search for a local minimum.
 Step number   3 out of a maximum of   20
 All quantities printed in internal units (Hartrees-Bohrs-Radians)
 Mixed Optimization -- RFO/linear search
 Update second derivatives using D2CorX and points    2    3
 The second derivative matrix:
                          R1        R2        A1        A2
           R1           1.49781
           R2          -0.06069   0.18359
           A1           0.00000   0.00000   0.00230
           A2           0.00000   0.00000   0.00000   0.00230
 ITU=  0  1  0
 Use linear search instead of GDIIS.
     Eigenvalues ---    0.00230   0.00230   0.18079   1.50060
 RFO step:  Lambda=-1.34247374D-03 EMin= 2.30000000D-03
 Quartic linear search produced a step of -0.11107.
 Iteration  1 RMS(Cart)=  0.02035454 RMS(Int)=  0.00000000
 Iteration  2 RMS(Cart)=  0.00000000 RMS(Int)=  0.00000000
 ClnCor:  largest displacement from symmetrization is 9.14D-09 for atom     2.
 Variable       Old X    -DE/DX   Delta X   Delta X   Delta X     New X
                                 (Linear)    (Quad)   (Total)
    R1        2.23252  -0.07076  -0.02538  -0.02102  -0.04641   2.18611
    R2        2.00243   0.00547   0.06162  -0.06792  -0.00630   1.99612
    A1        3.14159   0.00000   0.00000   0.00000   0.00000   3.14159
    A2        3.14159   0.00000   0.00000   0.00000   0.00000   3.14159
         Item               Value     Threshold  Converged?
 Maximum Force            0.070760     0.000015     NO 
 RMS     Force            0.035485     0.000010     NO 
 Maximum Displacement     0.033039     0.000060     NO 
 RMS     Displacement     0.020355     0.000040     NO 
 Predicted change in Energy=-1.650529D-03
 GradGradGradGradGradGradGradGradGradGradGradGradGradGradGradGradGradGrad

                          Input orientation:                          
 ---------------------------------------------------------------------
 Center     Atomic      Atomic             Coordinates (Angstroms)
 Number     Number       Type             X           Y           Z
 ---------------------------------------------------------------------
      1          7           0        0.000000    0.000000    0.043340
      2          6           0        0.000000    0.000000    1.200179
      3          1           0        0.000000    0.000000    2.256481
 ---------------------------------------------------------------------
                    Distance matrix (angstroms):
                    1          2          3
     1  N    0.000000
     2  C    1.156840   0.000000
     3  H    2.213142   1.056302   0.000000
 Stoichiometry    CHN
 Framework group  C*V[C*(HCN)]
 Deg. of freedom     2
 Full point group                 C*V     NOp   4
 Largest Abelian subgroup         C2V     NOp   4
 Largest concise Abelian subgroup C1      NOp   1
                         Standard orientation:                         
 ---------------------------------------------------------------------
 Center     Atomic      Atomic             Coordinates (Angstroms)
 Number     Number       Type             X           Y           Z
 ---------------------------------------------------------------------
      1          7           0        0.000000    0.000000    0.653870
      2          6           0        0.000000    0.000000   -0.502970
      3          1           0        0.000000    0.000000   -1.559272
 ---------------------------------------------------------------------
 Rotational constants (GHZ):      0.0000000     44.3929743     44.3929743
 Standard basis: 6-311++G(d,p) (5D, 7F)
 There are    29 symmetry adapted cartesian basis functions of A1  symmetry.
 There are     2 symmetry adapted cartesian basis functions of A2  symmetry.
 There are    11 symmetry adapted cartesian basis functions of B1  symmetry.
 There are    11 symmetry adapted cartesian basis functions of B2  symmetry.
 There are    27 symmetry adapted basis functions of A1  symmetry.
 There are     2 symmetry adapted basis functions of A2  symmetry.
 There are    11 symmetry adapted basis functions of B1  symmetry.
 There are    11 symmetry adapted basis functions of B2  symmetry.
    51 basis functions,    81 primitive gaussians,    53 cartesian basis functions
     7 alpha electrons        7 beta electrons
       nuclear repulsion energy        23.8917849436 Hartrees.
 NAtoms=    3 NActive=    3 NUniq=    3 SFac= 1.00D+00 NAtFMM=   60 NAOKFM=F Big=F
 Integral buffers will be    131072 words long.
 Raffenetti 1 integral format.
 Two-electron integral symmetry is turned on.
 One-electron integrals computed using PRISM.
 NBasis=    51 RedAO= T EigKep=  2.70D-03  NBF=    27     2    11    11
 NBsUse=    51 1.00D-06 EigRej= -1.00D+00 NBFU=    27     2    11    11
 Initial guess from the checkpoint file:  "hnc-cisdfc-180.chk"
 B after Tr=     0.000000    0.000000    0.000000
         Rot=    1.000000    0.000000    0.000000    0.000000 Ang=   0.00 deg.
 Initial guess orbital symmetries:
       Occupied  (SG) (SG) (SG) (SG) (SG) (PI) (PI)
       Virtual   (SG) (SG) (SG) (SG) (SG) (SG) (SG) (DLTA) (SG)
                 (SG) (SG) (DLTA) (SG) (SG) (SG) (SG) (SG) (SG)
                 (SG) (SG) (SG) (SG) (DLTA) (DLTA) (PI) (PI) (PI)
                 (PI) (PI) (PI) (PI) (PI) (PI) (PI) (PI) (PI) (PI)
                 (PI) (PI) (PI) (PI) (PI) (PI) (PI)
 ExpMin= 3.60D-02 ExpMax= 6.29D+03 ExpMxC= 9.49D+02 IAcc=3 IRadAn=         5 AccDes= 0.00D+00
 Harris functional with IExCor=  205 and IRadAn=       5 diagonalized for initial guess.
 HarFok:  IExCor=  205 AccDes= 0.00D+00 IRadAn=         5 IDoV= 1 UseB2=F ITyADJ=14
 ICtDFT=  3500011 ScaDFX=  1.000000  1.000000  1.000000  1.000000
 FoFCou: FMM=F IPFlag=           0 FMFlag=      100000 FMFlg1=           0
         NFxFlg=           0 DoJE=T BraDBF=F KetDBF=T FulRan=T
         wScrn=  0.000000 ICntrl=     500 IOpCl=  0 I1Cent=   200000004 NGrid=           0
         NMat0=    1 NMatS0=      1 NMatT0=    0 NMatD0=    1 NMtDS0=    0 NMtDT0=    0
 Petite list used in FoFCou.
 Keep R1 ints in memory in symmetry-blocked form, NReq=1746609.
 Requested convergence on RMS density matrix=1.00D-08 within 128 cycles.
 Requested convergence on MAX density matrix=1.00D-06.
 Requested convergence on             energy=1.00D-06.
 No special actions if energy rises.
 SCF Done:  E(RHF) =  -92.8991553200     A.U. after    9 cycles
            NFock=  9  Conv=0.34D-08     -V/T= 2.0020
 ExpMin= 3.60D-02 ExpMax= 6.29D+03 ExpMxC= 9.49D+02 IAcc=3 IRadAn=         5 AccDes= 0.00D+00
 HarFok:  IExCor=  205 AccDes= 0.00D+00 IRadAn=         5 IDoV=-2 UseB2=F ITyADJ=14
 ICtDFT= 12500011 ScaDFX=  1.000000  1.000000  1.000000  1.000000
 Range of M.O.s used for correlation:     3    51
 NBasis=    51 NAE=     7 NBE=     7 NFC=     2 NFV=     0
 NROrb=     49 NOA=     5 NOB=     5 NVA=    44 NVB=    44
 Semi-Direct transformation.
 ModeAB=           2 MOrb=             5 LenV=     805105484
 LASXX=        74437 LTotXX=       74437 LenRXX=       74437
 LTotAB=       80677 MaxLAS=      350595 LenRXY=      350595
 NonZer=      370440 LenScr=     1111040 LnRSAI=           0
 LnScr1=           0 LExtra=           0 Total=      1536072
 MaxDsk=          -1 SrtSym=           F ITran=            4
 JobTyp=0 Pass  1:  I=   1 to   5.
 (rs|ai) integrals will be sorted in core.
 Spin components of T(2) and E(2):
     alpha-alpha T2 =       0.1464019348D-01 E2=     -0.3879762453D-01
     alpha-beta  T2 =       0.8378677346D-01 E2=     -0.2259645726D+00
     beta-beta   T2 =       0.1464019348D-01 E2=     -0.3879762453D-01
 ANorm=    0.1055019981D+01
 E2 =    -0.3035598216D+00 EUMP2 =    -0.93202715141597D+02
 Keep R2 and R3 ints in memory in symmetry-blocked form, NReq=1705586.
 Iterations=  50 Convergence= 0.100D-07
 Iteration Nr.   1
 **********************
 DD1Dir will call FoFMem   1 times, MxPair=        30
 NAB=    15 NAA=     0 NBB=     0.
 E3=        0.17491089D-02        EUMP3=      -0.93200966033D+02
 DE(CI)=     -0.27218733     E(CI)=       -93.171342647    
 NORM(A)=   0.10447364D+01
 Iteration Nr.   2
 **********************
 DD1Dir will call FoFMem   1 times, MxPair=        30
 NAB=    15 NAA=     0 NBB=     0.
 DE(CI)=     -0.28606911     E(CI)=       -93.185224435    
 NORM(A)=   0.10491457D+01
 Iteration Nr.   3
 **********************
 DD1Dir will call FoFMem   1 times, MxPair=        30
 NAB=    15 NAA=     0 NBB=     0.
 DE(CI)=     -0.28617984     E(CI)=       -93.185335163    
 NORM(A)=   0.10501232D+01
 Iteration Nr.   4
 **********************
 DD1Dir will call FoFMem   1 times, MxPair=        30
 NAB=    15 NAA=     0 NBB=     0.
 DE(CI)=     -0.28689490     E(CI)=       -93.186050219    
 NORM(A)=   0.10505212D+01
 Iteration Nr.   5
 **********************
 DD1Dir will call FoFMem   1 times, MxPair=        30
 NAB=    15 NAA=     0 NBB=     0.
 DE(CI)=     -0.28699454     E(CI)=       -93.186149863    
 NORM(A)=   0.10505222D+01
 Iteration Nr.   6
 **********************
 DD1Dir will call FoFMem   1 times, MxPair=        30
 NAB=    15 NAA=     0 NBB=     0.
 DE(CI)=     -0.28698893     E(CI)=       -93.186144247    
 NORM(A)=   0.10505063D+01
 Iteration Nr.   7
 **********************
 DD1Dir will call FoFMem   1 times, MxPair=        30
 NAB=    15 NAA=     0 NBB=     0.
 DE(CI)=     -0.28698413     E(CI)=       -93.186139453    
 NORM(A)=   0.10505101D+01
 Iteration Nr.   8
 **********************
 DD1Dir will call FoFMem   1 times, MxPair=        30
 NAB=    15 NAA=     0 NBB=     0.
 DE(CI)=     -0.28698509     E(CI)=       -93.186140407    
 NORM(A)=   0.10505107D+01
 Iteration Nr.   9
 **********************
 DD1Dir will call FoFMem   1 times, MxPair=        30
 NAB=    15 NAA=     0 NBB=     0.
 DE(CI)=     -0.28698537     E(CI)=       -93.186140688    
 NORM(A)=   0.10505108D+01
 Iteration Nr.  10
 **********************
 DD1Dir will call FoFMem   1 times, MxPair=        30
 NAB=    15 NAA=     0 NBB=     0.
 DE(CI)=     -0.28698529     E(CI)=       -93.186140607    
 NORM(A)=   0.10505107D+01
 Iteration Nr.  11
 **********************
 DD1Dir will call FoFMem   1 times, MxPair=        30
 NAB=    15 NAA=     0 NBB=     0.
 DE(CI)=     -0.28698530     E(CI)=       -93.186140623    
 NORM(A)=   0.10505107D+01
 Iteration Nr.  12
 **********************
 DD1Dir will call FoFMem   1 times, MxPair=        30
 NAB=    15 NAA=     0 NBB=     0.
 DE(CI)=     -0.28698531     E(CI)=       -93.186140626    
 NORM(A)=   0.10505107D+01
 ***************************************************************
 Largest amplitude= 4.51D-02
 Discarding MO integrals.
          IDoAtm=111
          Differentiating once with respect to electric field.
                with respect to dipole field.
          Differentiating once with respect to nuclear coordinates.
 Keep R1 ints in memory in symmetry-blocked form, NReq=1726879.
          There are     1 degrees of freedom in the 1st order CPHF.  IDoFFX=0 NUNeed=     1.
 LinEq1:  Iter=  0 NonCon=     1 RMS=6.37D-03 Max=3.63D-02 NDo=     1
 AX will form     1 AO Fock derivatives at one time.
 LinEq1:  Iter=  1 NonCon=     1 RMS=1.58D-03 Max=1.10D-02 NDo=     1
 LinEq1:  Iter=  2 NonCon=     1 RMS=3.41D-04 Max=1.91D-03 NDo=     1
 LinEq1:  Iter=  3 NonCon=     1 RMS=1.91D-04 Max=1.42D-03 NDo=     1
 LinEq1:  Iter=  4 NonCon=     1 RMS=4.87D-05 Max=3.79D-04 NDo=     1
 LinEq1:  Iter=  5 NonCon=     1 RMS=6.66D-06 Max=4.00D-05 NDo=     1
 LinEq1:  Iter=  6 NonCon=     1 RMS=7.68D-07 Max=4.33D-06 NDo=     1
 LinEq1:  Iter=  7 NonCon=     1 RMS=8.74D-08 Max=4.43D-07 NDo=     1
 LinEq1:  Iter=  8 NonCon=     1 RMS=8.02D-09 Max=4.52D-08 NDo=     1
 LinEq1:  Iter=  9 NonCon=     1 RMS=4.66D-10 Max=3.51D-09 NDo=     1
 LinEq1:  Iter= 10 NonCon=     0 RMS=2.85D-11 Max=1.70D-10 NDo=     1
 Linear equations converged to 1.000D-10 1.000D-09 after    10 iterations.
 End of Minotr F.D. properties file   721 does not exist.
 End of Minotr F.D. properties file   722 does not exist.
 End of Minotr F.D. properties file   788 does not exist.
 Calling FoFJK, ICntrl=  10002127 FMM=F ISym2X=1 I1Cent= 0 IOpClX= 0 NMat=1 NMatS=1 NMatT=0.
 ***** Axes restored to original set *****
 -------------------------------------------------------------------
 Center     Atomic                   Forces (Hartrees/Bohr)
 Number     Number              X              Y              Z
 -------------------------------------------------------------------
      1        7           0.000000000    0.000000000    0.016469586
      2        6           0.000000000    0.000000000   -0.024044548
      3        1           0.000000000    0.000000000    0.007574962
 -------------------------------------------------------------------
 Cartesian Forces:  Max     0.024044548 RMS     0.010037527

 GradGradGradGradGradGradGradGradGradGradGradGradGradGradGradGradGradGrad
 Berny optimization.
 Using GEDIIS/GDIIS optimizer.
 Internal  Forces:  Max     0.016469586 RMS     0.009064041
 Search for a local minimum.
 Step number   4 out of a maximum of   20
 All quantities printed in internal units (Hartrees-Bohrs-Radians)
 Mixed Optimization -- RFO/linear search
 Update second derivatives using D2CorX and points    2    3    4
 DE= -2.02D-03 DEPred=-1.65D-03 R= 1.22D+00
 TightC=F SS=  1.41D+00  RLast= 4.68D-02 DXNew= 8.4853D-01 1.4050D-01
 Trust test= 1.22D+00 RLast= 4.68D-02 DXMaxT set to 5.05D-01
 The second derivative matrix:
                          R1        R2        A1        A2
           R1           1.16717
           R2           0.02003   0.18668
           A1           0.00000   0.00000   0.00230
           A2           0.00000   0.00000   0.00000   0.00230
 ITU=  1  0  1  0
 Use linear search instead of GDIIS.
     Eigenvalues ---    0.00230   0.00230   0.18627   1.16758
 RFO step:  Lambda=-3.72208205D-04 EMin= 2.30000000D-03
 Quartic linear search produced a step of  0.25705.
 Iteration  1 RMS(Cart)=  0.01552177 RMS(Int)=  0.00000000
 Iteration  2 RMS(Cart)=  0.00000000 RMS(Int)=  0.00000000
 ClnCor:  largest displacement from symmetrization is 4.47D-09 for atom     2.
 Variable       Old X    -DE/DX   Delta X   Delta X   Delta X     New X
                                 (Linear)    (Quad)   (Total)
    R1        2.18611  -0.01647  -0.01193  -0.00173  -0.01366   2.17245
    R2        1.99612   0.00757  -0.00162   0.04458   0.04296   2.03908
    A1        3.14159   0.00000   0.00000   0.00000   0.00000   3.14159
    A2        3.14159   0.00000   0.00000   0.00000   0.00000   3.14159
         Item               Value     Threshold  Converged?
 Maximum Force            0.016470     0.000015     NO 
 RMS     Force            0.009064     0.000010     NO 
 Maximum Displacement     0.024089     0.000060     NO 
 RMS     Displacement     0.015522     0.000040     NO 
 Predicted change in Energy=-2.809895D-04
 GradGradGradGradGradGradGradGradGradGradGradGradGradGradGradGradGradGrad

                          Input orientation:                          
 ---------------------------------------------------------------------
 Center     Atomic      Atomic             Coordinates (Angstroms)
 Number     Number       Type             X           Y           Z
 ---------------------------------------------------------------------
      1          7           0        0.000000    0.000000    0.040580
      2          6           0        0.000000    0.000000    1.190191
      3          1           0        0.000000    0.000000    2.269228
 ---------------------------------------------------------------------
                    Distance matrix (angstroms):
                    1          2          3
     1  N    0.000000
     2  C    1.149611   0.000000
     3  H    2.228648   1.079037   0.000000
 Stoichiometry    CHN
 Framework group  C*V[C*(HCN)]
 Deg. of freedom     2
 Full point group                 C*V     NOp   4
 Largest Abelian subgroup         C2V     NOp   4
 Largest concise Abelian subgroup C1      NOp   1
                         Standard orientation:                         
 ---------------------------------------------------------------------
 Center     Atomic      Atomic             Coordinates (Angstroms)
 Number     Number       Type             X           Y           Z
 ---------------------------------------------------------------------
      1          7           0        0.000000    0.000000    0.651880
      2          6           0        0.000000    0.000000   -0.497732
      3          1           0        0.000000    0.000000   -1.576769
 ---------------------------------------------------------------------
 Rotational constants (GHZ):      0.0000000     44.5730550     44.5730550
 Standard basis: 6-311++G(d,p) (5D, 7F)
 There are    29 symmetry adapted cartesian basis functions of A1  symmetry.
 There are     2 symmetry adapted cartesian basis functions of A2  symmetry.
 There are    11 symmetry adapted cartesian basis functions of B1  symmetry.
 There are    11 symmetry adapted cartesian basis functions of B2  symmetry.
 There are    27 symmetry adapted basis functions of A1  symmetry.
 There are     2 symmetry adapted basis functions of A2  symmetry.
 There are    11 symmetry adapted basis functions of B1  symmetry.
 There are    11 symmetry adapted basis functions of B2  symmetry.
    51 basis functions,    81 primitive gaussians,    53 cartesian basis functions
     7 alpha electrons        7 beta electrons
       nuclear repulsion energy        23.9376072088 Hartrees.
 NAtoms=    3 NActive=    3 NUniq=    3 SFac= 1.00D+00 NAtFMM=   60 NAOKFM=F Big=F
 Integral buffers will be    131072 words long.
 Raffenetti 1 integral format.
 Two-electron integral symmetry is turned on.
 One-electron integrals computed using PRISM.
 NBasis=    51 RedAO= T EigKep=  2.68D-03  NBF=    27     2    11    11
 NBsUse=    51 1.00D-06 EigRej= -1.00D+00 NBFU=    27     2    11    11
 Initial guess from the checkpoint file:  "hnc-cisdfc-180.chk"
 B after Tr=     0.000000    0.000000    0.000000
         Rot=    1.000000    0.000000    0.000000    0.000000 Ang=   0.00 deg.
 Initial guess orbital symmetries:
       Occupied  (SG) (SG) (SG) (SG) (SG) (PI) (PI)
       Virtual   (SG) (SG) (SG) (SG) (SG) (SG) (SG) (DLTA) (SG)
                 (SG) (SG) (DLTA) (SG) (SG) (SG) (SG) (SG) (SG)
                 (SG) (SG) (SG) (SG) (DLTA) (DLTA) (PI) (PI) (PI)
                 (PI) (PI) (PI) (PI) (PI) (PI) (PI) (PI) (PI) (PI)
                 (PI) (PI) (PI) (PI) (PI) (PI) (PI)
 ExpMin= 3.60D-02 ExpMax= 6.29D+03 ExpMxC= 9.49D+02 IAcc=3 IRadAn=         5 AccDes= 0.00D+00
 Harris functional with IExCor=  205 and IRadAn=       5 diagonalized for initial guess.
 HarFok:  IExCor=  205 AccDes= 0.00D+00 IRadAn=         5 IDoV= 1 UseB2=F ITyADJ=14
 ICtDFT=  3500011 ScaDFX=  1.000000  1.000000  1.000000  1.000000
 FoFCou: FMM=F IPFlag=           0 FMFlag=      100000 FMFlg1=           0
         NFxFlg=           0 DoJE=T BraDBF=F KetDBF=T FulRan=T
         wScrn=  0.000000 ICntrl=     500 IOpCl=  0 I1Cent=   200000004 NGrid=           0
         NMat0=    1 NMatS0=      1 NMatT0=    0 NMatD0=    1 NMtDS0=    0 NMtDT0=    0
 Petite list used in FoFCou.
 Keep R1 ints in memory in symmetry-blocked form, NReq=1746609.
 Requested convergence on RMS density matrix=1.00D-08 within 128 cycles.
 Requested convergence on MAX density matrix=1.00D-06.
 Requested convergence on             energy=1.00D-06.
 No special actions if energy rises.
 SCF Done:  E(RHF) =  -92.8998250107     A.U. after    9 cycles
            NFock=  9  Conv=0.38D-08     -V/T= 2.0020
 ExpMin= 3.60D-02 ExpMax= 6.29D+03 ExpMxC= 9.49D+02 IAcc=3 IRadAn=         5 AccDes= 0.00D+00
 HarFok:  IExCor=  205 AccDes= 0.00D+00 IRadAn=         5 IDoV=-2 UseB2=F ITyADJ=14
 ICtDFT= 12500011 ScaDFX=  1.000000  1.000000  1.000000  1.000000
 Range of M.O.s used for correlation:     3    51
 NBasis=    51 NAE=     7 NBE=     7 NFC=     2 NFV=     0
 NROrb=     49 NOA=     5 NOB=     5 NVA=    44 NVB=    44
 Semi-Direct transformation.
 ModeAB=           2 MOrb=             5 LenV=     805105484
 LASXX=        74437 LTotXX=       74437 LenRXX=       74437
 LTotAB=       80677 MaxLAS=      350595 LenRXY=      350595
 NonZer=      370440 LenScr=     1111040 LnRSAI=           0
 LnScr1=           0 LExtra=           0 Total=      1536072
 MaxDsk=          -1 SrtSym=           F ITran=            4
 JobTyp=0 Pass  1:  I=   1 to   5.
 (rs|ai) integrals will be sorted in core.
 Spin components of T(2) and E(2):
     alpha-alpha T2 =       0.1446444600D-01 E2=     -0.3859534949D-01
     alpha-beta  T2 =       0.8304505390D-01 E2=     -0.2251531603D+00
     beta-beta   T2 =       0.1446444600D-01 E2=     -0.3859534949D-01
 ANorm=    0.1054501752D+01
 E2 =    -0.3023438592D+00 EUMP2 =    -0.93202168869904D+02
 Keep R2 and R3 ints in memory in symmetry-blocked form, NReq=1705586.
 Iterations=  50 Convergence= 0.100D-07
 Iteration Nr.   1
 **********************
 DD1Dir will call FoFMem   1 times, MxPair=        30
 NAB=    15 NAA=     0 NBB=     0.
 E3=        0.11477570D-02        EUMP3=      -0.93201021113D+02
 DE(CI)=     -0.27184851     E(CI)=       -93.171673522    
 NORM(A)=   0.10445807D+01
 Iteration Nr.   2
 **********************
 DD1Dir will call FoFMem   1 times, MxPair=        30
 NAB=    15 NAA=     0 NBB=     0.
 DE(CI)=     -0.28539894     E(CI)=       -93.185223947    
 NORM(A)=   0.10489391D+01
 Iteration Nr.   3
 **********************
 DD1Dir will call FoFMem   1 times, MxPair=        30
 NAB=    15 NAA=     0 NBB=     0.
 DE(CI)=     -0.28555505     E(CI)=       -93.185380059    
 NORM(A)=   0.10499079D+01
 Iteration Nr.   4
 **********************
 DD1Dir will call FoFMem   1 times, MxPair=        30
 NAB=    15 NAA=     0 NBB=     0.
 DE(CI)=     -0.28626058     E(CI)=       -93.186085589    
 NORM(A)=   0.10502880D+01
 Iteration Nr.   5
 **********************
 DD1Dir will call FoFMem   1 times, MxPair=        30
 NAB=    15 NAA=     0 NBB=     0.
 DE(CI)=     -0.28635487     E(CI)=       -93.186179882    
 NORM(A)=   0.10502899D+01
 Iteration Nr.   6
 **********************
 DD1Dir will call FoFMem   1 times, MxPair=        30
 NAB=    15 NAA=     0 NBB=     0.
 DE(CI)=     -0.28635032     E(CI)=       -93.186175336    
 NORM(A)=   0.10502746D+01
 Iteration Nr.   7
 **********************
 DD1Dir will call FoFMem   1 times, MxPair=        30
 NAB=    15 NAA=     0 NBB=     0.
 DE(CI)=     -0.28634560     E(CI)=       -93.186170606    
 NORM(A)=   0.10502782D+01
 Iteration Nr.   8
 **********************
 DD1Dir will call FoFMem   1 times, MxPair=        30
 NAB=    15 NAA=     0 NBB=     0.
 DE(CI)=     -0.28634646     E(CI)=       -93.186171473    
 NORM(A)=   0.10502788D+01
 Iteration Nr.   9
 **********************
 DD1Dir will call FoFMem   1 times, MxPair=        30
 NAB=    15 NAA=     0 NBB=     0.
 DE(CI)=     -0.28634675     E(CI)=       -93.186171763    
 NORM(A)=   0.10502789D+01
 Iteration Nr.  10
 **********************
 DD1Dir will call FoFMem   1 times, MxPair=        30
 NAB=    15 NAA=     0 NBB=     0.
 DE(CI)=     -0.28634668     E(CI)=       -93.186171687    
 NORM(A)=   0.10502788D+01
 Iteration Nr.  11
 **********************
 DD1Dir will call FoFMem   1 times, MxPair=        30
 NAB=    15 NAA=     0 NBB=     0.
 DE(CI)=     -0.28634669     E(CI)=       -93.186171704    
 NORM(A)=   0.10502788D+01
 Iteration Nr.  12
 **********************
 DD1Dir will call FoFMem   1 times, MxPair=        30
 NAB=    15 NAA=     0 NBB=     0.
 DE(CI)=     -0.28634670     E(CI)=       -93.186171708    
 NORM(A)=   0.10502788D+01
 ***************************************************************
 Largest amplitude= 4.41D-02
 Discarding MO integrals.
          IDoAtm=111
          Differentiating once with respect to electric field.
                with respect to dipole field.
          Differentiating once with respect to nuclear coordinates.
 Keep R1 ints in memory in symmetry-blocked form, NReq=1726900.
          There are     1 degrees of freedom in the 1st order CPHF.  IDoFFX=0 NUNeed=     1.
 LinEq1:  Iter=  0 NonCon=     1 RMS=6.30D-03 Max=3.57D-02 NDo=     1
 AX will form     1 AO Fock derivatives at one time.
 LinEq1:  Iter=  1 NonCon=     1 RMS=1.58D-03 Max=1.11D-02 NDo=     1
 LinEq1:  Iter=  2 NonCon=     1 RMS=3.42D-04 Max=1.91D-03 NDo=     1
 LinEq1:  Iter=  3 NonCon=     1 RMS=1.88D-04 Max=1.41D-03 NDo=     1
 LinEq1:  Iter=  4 NonCon=     1 RMS=4.84D-05 Max=3.68D-04 NDo=     1
 LinEq1:  Iter=  5 NonCon=     1 RMS=6.59D-06 Max=3.94D-05 NDo=     1
 LinEq1:  Iter=  6 NonCon=     1 RMS=7.54D-07 Max=4.43D-06 NDo=     1
 LinEq1:  Iter=  7 NonCon=     1 RMS=8.57D-08 Max=4.42D-07 NDo=     1
 LinEq1:  Iter=  8 NonCon=     1 RMS=7.87D-09 Max=4.44D-08 NDo=     1
 LinEq1:  Iter=  9 NonCon=     1 RMS=4.64D-10 Max=3.42D-09 NDo=     1
 LinEq1:  Iter= 10 NonCon=     0 RMS=3.07D-11 Max=2.55D-10 NDo=     1
 Linear equations converged to 1.000D-10 1.000D-09 after    10 iterations.
 End of Minotr F.D. properties file   721 does not exist.
 End of Minotr F.D. properties file   722 does not exist.
 End of Minotr F.D. properties file   788 does not exist.
 Calling FoFJK, ICntrl=  10002127 FMM=F ISym2X=1 I1Cent= 0 IOpClX= 0 NMat=1 NMatS=1 NMatT=0.
 ***** Axes restored to original set *****
 -------------------------------------------------------------------
 Center     Atomic                   Forces (Hartrees/Bohr)
 Number     Number              X              Y              Z
 -------------------------------------------------------------------
      1        7           0.000000000    0.000000000   -0.001829345
      2        6           0.000000000    0.000000000    0.012275685
      3        1           0.000000000    0.000000000   -0.010446341
 -------------------------------------------------------------------
 Cartesian Forces:  Max     0.012275685 RMS     0.005407454

 GradGradGradGradGradGradGradGradGradGradGradGradGradGradGradGradGradGrad
 Berny optimization.
 Using GEDIIS/GDIIS optimizer.
 Internal  Forces:  Max     0.010446341 RMS     0.005302653
 Search for a local minimum.
 Step number   5 out of a maximum of   20
 All quantities printed in internal units (Hartrees-Bohrs-Radians)
 Mixed Optimization -- RFO/linear search
 Update second derivatives using D2CorX and points    2    3    4    5
 DE= -3.11D-05 DEPred=-2.81D-04 R= 1.11D-01
 Trust test= 1.11D-01 RLast= 4.51D-02 DXMaxT set to 5.05D-01
 The second derivative matrix:
                          R1        R2        A1        A2
           R1           0.85778
           R2          -0.15320   0.37075
           A1           0.00000   0.00000   0.00230
           A2           0.00000   0.00000   0.00000   0.00230
 ITU=  0  1  0  1  0
 Use linear search instead of GDIIS.
     Eigenvalues ---    0.00230   0.00230   0.32657   0.90196
 RFO step:  Lambda=-8.59707752D-05 EMin= 2.30000000D-03
 Quartic linear search produced a step of -0.47315.
 Iteration  1 RMS(Cart)=  0.01297842 RMS(Int)=  0.00000000
 Iteration  2 RMS(Cart)=  0.00000000 RMS(Int)=  0.00000000
 ClnCor:  largest displacement from symmetrization is 1.02D-09 for atom     2.
 Variable       Old X    -DE/DX   Delta X   Delta X   Delta X     New X
                                 (Linear)    (Quad)   (Total)
    R1        2.17245   0.00183   0.00646  -0.00962  -0.00316   2.16929
    R2        2.03908  -0.01045  -0.02033  -0.00977  -0.03009   2.00899
    A1        3.14159   0.00000   0.00000   0.00000   0.00000   3.14159
    A2        3.14159   0.00000   0.00000   0.00000   0.00000   3.14159
         Item               Value     Threshold  Converged?
 Maximum Force            0.010446     0.000015     NO 
 RMS     Force            0.005303     0.000010     NO 
 Maximum Displacement     0.021115     0.000060     NO 
 RMS     Displacement     0.012978     0.000040     NO 
 Predicted change in Energy=-1.509920D-04
 GradGradGradGradGradGradGradGradGradGradGradGradGradGradGradGradGradGrad

                          Input orientation:                          
 ---------------------------------------------------------------------
 Center     Atomic      Atomic             Coordinates (Angstroms)
 Number     Number       Type             X           Y           Z
 ---------------------------------------------------------------------
      1          7           0        0.000000    0.000000    0.047002
      2          6           0        0.000000    0.000000    1.194943
      3          1           0        0.000000    0.000000    2.258055
 ---------------------------------------------------------------------
                    Distance matrix (angstroms):
                    1          2          3
     1  N    0.000000
     2  C    1.147941   0.000000
     3  H    2.211053   1.063112   0.000000
[...]
 Standard basis: 6-311++G(d,p) (5D, 7F)
    51 basis functions,    81 primitive gaussians,    53 cartesian basis functions
     7 alpha electrons        7 beta electrons
       nuclear repulsion energy        23.9716831284 Hartrees.
 NAtoms=    3 NActive=    3 NUniq=    3 SFac= 1.00D+00 NAtFMM=   60 NAOKFM=F Big=F
 Integral buffers will be    131072 words long.
 Raffenetti 1 integral format.
 Two-electron integral symmetry is turned off.
 One-electron integrals computed using PRISM.
 NBasis=    51 RedAO= T EigKep=  1.33D-03  NBF=    51
 NBsUse=    51 1.00D-06 EigRej= -1.00D+00 NBFU=    51
 Initial guess from the checkpoint file:  "hnc-cisdfc-180.chk"
 B after Tr=     0.000000    0.000000   -0.000270
         Rot=    1.000000    0.000000    0.000000    0.000000 Ang=   0.00 deg.
 Keep R1 ints in memory in canonical form, NReq=1742041.
 Requested convergence on RMS density matrix=1.00D-08 within 128 cycles.
 Requested convergence on MAX density matrix=1.00D-06.
 Requested convergence on             energy=1.00D-06.
 No special actions if energy rises.
 SCF Done:  E(RHF) =  -92.9000168243     A.U. after    8 cycles
            NFock=  8  Conv=0.25D-08     -V/T= 2.0018
 ExpMin= 3.60D-02 ExpMax= 6.29D+03 ExpMxC= 9.49D+02 IAcc=3 IRadAn=         5 AccDes= 0.00D+00
 HarFok:  IExCor=  205 AccDes= 0.00D+00 IRadAn=         5 IDoV=-2 UseB2=F ITyADJ=14
 ICtDFT= 12500011 ScaDFX=  1.000000  1.000000  1.000000  1.000000
 Range of M.O.s used for correlation:     3    51
 NBasis=    51 NAE=     7 NBE=     7 NFC=     2 NFV=     0
 NROrb=     49 NOA=     5 NOB=     5 NVA=    44 NVB=    44
 Semi-Direct transformation.
 ModeAB=           2 MOrb=             5 LenV=     805106627
 LASXX=       268235 LTotXX=      268235 LenRXX=      268235
 LTotAB=      284575 MaxLAS=      350595 LenRXY=      350595
 NonZer=      536470 LenScr=     1571840 LnRSAI=           0
 LnScr1=           0 LExtra=           0 Total=      2190670
 MaxDsk=          -1 SrtSym=           F ITran=            4
 JobTyp=0 Pass  1:  I=   1 to   5.
 (rs|ai) integrals will be sorted in core.
 Spin components of T(2) and E(2):
     alpha-alpha T2 =       0.1446680382D-01 E2=     -0.3860399127D-01
     alpha-beta  T2 =       0.8296885324D-01 E2=     -0.2250991649D+00
     beta-beta   T2 =       0.1446680382D-01 E2=     -0.3860399127D-01
 ANorm=    0.1054467857D+01
 E2 =    -0.3023071475D+00 EUMP2 =    -0.93202323971822D+02
 Keep R2 and R3 ints in memory in canonical form, NReq=2580899.
 Iterations=  50 Convergence= 0.100D-07
 Iteration Nr.   1
 **********************
 DD1Dir will call FoFMem   1 times, MxPair=        30
 NAB=    15 NAA=     0 NBB=     0.
 E3=        0.11910893D-02        EUMP3=      -0.93201132882D+02
 DE(CI)=     -0.27180184     E(CI)=       -93.171818662    
 NORM(A)=   0.10445256D+01
 Iteration Nr.   2
 **********************
 DD1Dir will call FoFMem   1 times, MxPair=        30
 NAB=    15 NAA=     0 NBB=     0.
 DE(CI)=     -0.28535304     E(CI)=       -93.185369868    
 NORM(A)=   0.10488723D+01
 Iteration Nr.   3
 **********************
 DD1Dir will call FoFMem   1 times, MxPair=        30
 NAB=    15 NAA=     0 NBB=     0.
 DE(CI)=     -0.28550217     E(CI)=       -93.185518990    
 NORM(A)=   0.10498368D+01
 Iteration Nr.   4
 **********************
 DD1Dir will call FoFMem   1 times, MxPair=        30
 NAB=    15 NAA=     0 NBB=     0.
 DE(CI)=     -0.28620538     E(CI)=       -93.186222201    
 NORM(A)=   0.10502174D+01
 Iteration Nr.   5
 **********************
 DD1Dir will call FoFMem   1 times, MxPair=        30
 NAB=    15 NAA=     0 NBB=     0.
 DE(CI)=     -0.28630008     E(CI)=       -93.186316902    
 NORM(A)=   0.10502185D+01
 Iteration Nr.   6
 **********************
 DD1Dir will call FoFMem   1 times, MxPair=        30
 NAB=    15 NAA=     0 NBB=     0.
 DE(CI)=     -0.28629510     E(CI)=       -93.186311921    
 NORM(A)=   0.10502034D+01
 Iteration Nr.   7
 **********************
 DD1Dir will call FoFMem   1 times, MxPair=        30
 NAB=    15 NAA=     0 NBB=     0.
 DE(CI)=     -0.28629047     E(CI)=       -93.186307296    
 NORM(A)=   0.10502069D+01
 Iteration Nr.   8
 **********************
 DD1Dir will call FoFMem   1 times, MxPair=        30
 NAB=    15 NAA=     0 NBB=     0.
 DE(CI)=     -0.28629135     E(CI)=       -93.186308176    
 NORM(A)=   0.10502075D+01
 Iteration Nr.   9
 **********************
 DD1Dir will call FoFMem   1 times, MxPair=        30
 NAB=    15 NAA=     0 NBB=     0.
 DE(CI)=     -0.28629163     E(CI)=       -93.186308459    
 NORM(A)=   0.10502076D+01
 Iteration Nr.  10
 **********************
 DD1Dir will call FoFMem   1 times, MxPair=        30
 NAB=    15 NAA=     0 NBB=     0.
 DE(CI)=     -0.28629156     E(CI)=       -93.186308381    
 NORM(A)=   0.10502075D+01
 Iteration Nr.  11
 **********************
 DD1Dir will call FoFMem   1 times, MxPair=        30
 NAB=    15 NAA=     0 NBB=     0.
 DE(CI)=     -0.28629157     E(CI)=       -93.186308397    
 NORM(A)=   0.10502075D+01
 Iteration Nr.  12
 **********************
 DD1Dir will call FoFMem   1 times, MxPair=        30
 NAB=    15 NAA=     0 NBB=     0.
 DE(CI)=     -0.28629158     E(CI)=       -93.186308401    
 NORM(A)=   0.10502076D+01
 ***************************************************************
 Largest amplitude= 4.42D-02
 Discarding MO integrals.
          IDoAtm=111
          Differentiating once with respect to electric field.
                with respect to dipole field.
          Differentiating once with respect to nuclear coordinates.
 Keep R1 ints in memory in canonical form, NReq=1722250.
          There are     1 degrees of freedom in the 1st order CPHF.  IDoFFX=0 NUNeed=     1.
 LinEq1:  Iter=  0 NonCon=     1 RMS=6.30D-03 Max=3.48D-02 NDo=     1
 AX will form     1 AO Fock derivatives at one time.
 LinEq1:  Iter=  1 NonCon=     1 RMS=1.57D-03 Max=1.09D-02 NDo=     1
 LinEq1:  Iter=  2 NonCon=     1 RMS=3.37D-04 Max=1.87D-03 NDo=     1
 LinEq1:  Iter=  3 NonCon=     1 RMS=1.84D-04 Max=1.36D-03 NDo=     1
 LinEq1:  Iter=  4 NonCon=     1 RMS=4.79D-05 Max=3.69D-04 NDo=     1
 LinEq1:  Iter=  5 NonCon=     1 RMS=6.51D-06 Max=3.86D-05 NDo=     1
 LinEq1:  Iter=  6 NonCon=     1 RMS=7.46D-07 Max=4.28D-06 NDo=     1
 LinEq1:  Iter=  7 NonCon=     1 RMS=8.48D-08 Max=4.36D-07 NDo=     1
 LinEq1:  Iter=  8 NonCon=     1 RMS=7.79D-09 Max=4.39D-08 NDo=     1
 LinEq1:  Iter=  9 NonCon=     1 RMS=4.54D-10 Max=3.43D-09 NDo=     1
 LinEq1:  Iter= 10 NonCon=     0 RMS=2.84D-11 Max=2.03D-10 NDo=     1
 Linear equations converged to 1.000D-10 1.000D-09 after    10 iterations.
 End of Minotr F.D. properties file   721 does not exist.
 End of Minotr F.D. properties file   722 does not exist.
 End of Minotr F.D. properties file   788 does not exist.

 **********************************************************************

            Population analysis using the CI density.

 **********************************************************************

 Alpha  occ. eigenvalues --  -15.60159 -11.29373  -1.24292  -0.81318  -0.58326
 Alpha  occ. eigenvalues --   -0.49913  -0.49913
 Alpha virt. eigenvalues --    0.03587   0.08724   0.09027   0.09027   0.16815
 Alpha virt. eigenvalues --    0.17546   0.17546   0.20861   0.27691   0.27691
 Alpha virt. eigenvalues --    0.28387   0.33836   0.53569   0.70308   0.70308
 Alpha virt. eigenvalues --    0.75492   0.94301   0.96883   1.06220   1.06220
 Alpha virt. eigenvalues --    1.29422   1.39933   1.39933   1.46955   1.49573
 Alpha virt. eigenvalues --    1.49573   2.07982   2.07982   2.24541   2.38664
 Alpha virt. eigenvalues --    2.38664   2.82199   2.98366   2.98366   3.21627
 Alpha virt. eigenvalues --    3.23908   3.23908   3.43822   3.78333   4.39964
 Alpha virt. eigenvalues --    4.39964   5.04670  25.48592  37.19009
          Condensed to atoms (all electrons):
               1          2          3
     1  N    6.698599   0.529376  -0.008070
     2  C    0.529376   5.076092   0.367840
     3  H   -0.008070   0.367840   0.447016
 Mulliken charges:
               1
     1  N   -0.219905
     2  C    0.026692
     3  H    0.193213
 Sum of Mulliken charges =   0.00000
 Mulliken charges with hydrogens summed into heavy atoms:
               1
     1  N   -0.219905
     2  C    0.219905
 Electronic spatial extent (au):  <R**2>=             49.6243
 Charge=              0.0000 electrons
 Dipole moment (field-independent basis, Debye):
    X=              0.0000    Y=              0.0000    Z=             -3.0708  Tot=              3.0708
 Quadrupole moment (field-independent basis, Debye-Ang):
   XX=            -11.7904   YY=            -11.7904   ZZ=             -9.9617
   XY=              0.0000   XZ=              0.0000   YZ=              0.0000
 Traceless Quadrupole moment (field-independent basis, Debye-Ang):
   XX=             -0.6096   YY=             -0.6096   ZZ=              1.2191
   XY=              0.0000   XZ=              0.0000   YZ=              0.0000
 Octapole moment (field-independent basis, Debye-Ang**2):
  XXX=              0.0000  YYY=              0.0000  ZZZ=             -7.7489  XYY=              0.0000
  XXY=              0.0000  XXZ=             -0.3176  XZZ=              0.0000  YZZ=              0.0000
  YYZ=             -0.3176  XYZ=              0.0000
 Hexadecapole moment (field-independent basis, Debye-Ang**3):
 XXXX=            -11.9662 YYYY=            -11.9662 ZZZZ=            -36.5033 XXXY=              0.0000
 XXXZ=              0.0000 YYYX=              0.0000 YYYZ=              0.0000 ZZZX=              0.0000
 ZZZY=              0.0000 XXYY=             -3.9887 XXZZ=             -9.2906 YYZZ=             -9.2906
 XXYZ=              0.0000 YYXZ=              0.0000 ZZXY=              0.0000
 N-N= 2.397168312844D+01 E-N=-2.658026055254D+02  KE= 9.312175748472D+01
 Calling FoFJK, ICntrl=  10002127 FMM=F ISym2X=0 I1Cent= 0 IOpClX= 0 NMat=1 NMatS=1 NMatT=0.
 -------------------------------------------------------------------
 Center     Atomic                   Forces (Hartrees/Bohr)
 Number     Number              X              Y              Z
 -------------------------------------------------------------------
      1        7           0.000000000    0.000000000    0.000031993
      2        6           0.000000000    0.000000000   -0.000829760
      3        1           0.000000000    0.000000000    0.000797767
 -------------------------------------------------------------------
 Cartesian Forces:  Max     0.000829760 RMS     0.000383834
 NDeriv=   9 NFrqRd=  0 NDerD0=   0 MskFDP=       0 MskDFD=       0 MskDF0=       0
 Re-enter D2Numr: IAtom=  3 IXYZ=3 IStep= 2.
 Maximum difference in off-diagonal FC elements:
 I=  8 J=  2 Difference=    2.6354050452D-05
 Max difference between analytic and numerical forces:
 I=  3 Difference=    2.6703123246D-06
 Full mass-weighted force constant matrix:
 Low frequencies ---   -7.3546   -7.3546   -0.0049    4.6067    4.6068  776.8309
 Low frequencies ---  776.8309 2228.5256 3525.8881
 Diagonal vibrational polarizability:
        1.8118672       1.8118672       0.1620850
 Harmonic frequencies (cm**-1), IR intensities (KM/Mole), Raman scattering
 activities (A**4/AMU), depolarization ratios for plane and unpolarized
 incident light, reduced masses (AMU), force constants (mDyne/A),
 and normal coordinates:
                      1                      2                      3
                     PI                     PI                     SG
 Frequencies --    776.8309               776.8309              2228.5256
 Red. masses --      1.3430                 1.3430                 5.1509
 Frc consts  --      0.4775                 0.4775                15.0718
 IR Inten    --     40.6299                40.6299                 2.0542
  Atom  AN      X      Y      Z        X      Y      Z        X      Y      Z
     1   7     0.04   0.05   0.00     0.05  -0.04   0.00     0.00   0.00   0.41
     2   6    -0.10  -0.13   0.00    -0.13   0.10   0.00     0.00   0.00  -0.42
     3   1     0.59   0.79   0.00     0.79  -0.59   0.00     0.00   0.00  -0.81
                      4
                     SG
 Frequencies --   3525.8881
 Red. masses --      1.1880
 Frc consts  --      8.7015
 IR Inten    --     69.7347
  Atom  AN      X      Y      Z
     1   7     0.00   0.00  -0.03
     2   6     0.00   0.00   0.12
     3   1     0.00   0.00  -0.99

 -------------------
 - Thermochemistry -
 -------------------
 Temperature   298.150 Kelvin.  Pressure   1.00000 Atm.
 Atom     1 has atomic number  7 and mass  14.00307
 Atom     2 has atomic number  6 and mass  12.00000
 Atom     3 has atomic number  1 and mass   1.00783
 Molecular mass:    27.01090 amu.
 Principal axes and moments of inertia in atomic units:
                           1         2         3
     Eigenvalues --     0.00000  40.36441  40.36441
           X            0.00000   0.00000   1.00000
           Y            0.00000   1.00000   0.00000
           Z            1.00000   0.00000   0.00000
 This molecule is a prolate symmetric top.
 Rotational symmetry number  1.
 Rotational temperature (Kelvin)      2.14580
 Rotational constant (GHZ):          44.711205
 Zero-point vibrational energy      43712.0 (Joules/Mol)
                                   10.44742 (Kcal/Mol)
 Vibrational temperatures:   1117.69  1117.69  3206.35  5072.96
          (Kelvin)
 
 Zero-point correction=                           0.016649 (Hartree/Particle)
 Thermal correction to Energy=                    0.019180
 Thermal correction to Enthalpy=                  0.020125
 Thermal correction to Gibbs Free Energy=        -0.002712
 Sum of electronic and zero-point Energies=            -93.169660
 Sum of electronic and thermal Energies=               -93.167129
 Sum of electronic and thermal Enthalpies=             -93.166185
 Sum of electronic and thermal Free Energies=          -93.189021
 
                     E (Thermal)             CV                S
                      KCal/Mol        Cal/Mol-Kelvin    Cal/Mol-Kelvin
 Total                   12.036              6.352             48.063
 Electronic               0.000              0.000              0.000
 Translational            0.889              2.981             35.816
 Rotational               0.592              1.987             11.792
 Vibrational             10.555              1.384              0.455
                       Q            Log10(Q)             Ln(Q)
 Total Bot       0.176732D+02          1.247315          2.872050
 Total V=0       0.804113D+09          8.905317         20.505250
 Vib (Bot)       0.230518D-07         -7.637295        -17.585521
 Vib (V=0)       0.104883D+01          0.020707          0.047680
 Electronic      0.100000D+01          0.000000          0.000000
 Translational   0.551777D+07          6.741764         15.523485
 Rotational      0.138946D+03          2.142846          4.934086
 ***** Axes restored to original set *****
 -------------------------------------------------------------------
 Center     Atomic                   Forces (Hartrees/Bohr)
 Number     Number              X              Y              Z
 -------------------------------------------------------------------
      1        7           0.000000000    0.000000000   -0.000005434
      2        6           0.000000000    0.000000000    0.000011736
      3        1           0.000000000    0.000000000   -0.000006302
 -------------------------------------------------------------------
 Cartesian Forces:  Max     0.000011736 RMS     0.000004795
 FormGI is forming the generalized inverse of G from B-inverse, IUseBI=4.

 GradGradGradGradGradGradGradGradGradGradGradGradGradGradGradGradGradGrad
 Berny optimization.
 Internal  Forces:  Max     0.000006302 RMS     0.000004161
 Search for a local minimum.
 Step number   1 out of a maximum of    2
 All quantities printed in internal units (Hartrees-Bohrs-Radians)
 Second derivative matrix not updated -- analytic derivatives used.
 The second derivative matrix:
                          R1        R2        A1        A2
           R1           1.32044
           R2          -0.01406   0.41999
           A1           0.00000   0.00000   0.06794
           A2           0.00000   0.00000   0.00000   0.06794
 ITU=  0
     Eigenvalues ---    0.06794   0.06794   0.41978   1.32066
 Angle between quadratic step and forces=  25.87 degrees.
 Linear search not attempted -- first point.
 Iteration  1 RMS(Cart)=  0.00000545 RMS(Int)=  0.00000000
 Iteration  2 RMS(Cart)=  0.00000000 RMS(Int)=  0.00000000
 ClnCor:  largest displacement from symmetrization is 6.94D-17 for atom     1.
 Variable       Old X    -DE/DX   Delta X   Delta X   Delta X     New X
                                 (Linear)    (Quad)   (Total)
    R1        2.17356   0.00001   0.00000   0.00000   0.00000   2.17356
    R2        2.01331  -0.00001   0.00000  -0.00001  -0.00001   2.01329
    A1        3.14159   0.00000   0.00000   0.00000   0.00000   3.14159
    A2        3.14159   0.00000   0.00000   0.00000   0.00000   3.14159
         Item               Value     Threshold  Converged?
 Maximum Force            0.000006     0.000015     YES
 RMS     Force            0.000004     0.000010     YES
 Maximum Displacement     0.000009     0.000060     YES
 RMS     Displacement     0.000005     0.000040     YES
 Predicted change in Energy=-5.760904D-11
 Optimization completed.
    -- Stationary point found.
                           ----------------------------
                           !   Optimized Parameters   !
                           ! (Angstroms and Degrees)  !
 --------------------------                            --------------------------
 ! Name  Definition              Value          Derivative Info.                !
 --------------------------------------------------------------------------------
 ! R1    R(1,2)                  1.1502         -DE/DX =    0.0                 !
 ! R2    R(2,3)                  1.0654         -DE/DX =    0.0                 !
 ! A1    L(1,2,3,-1,-1)        180.0            -DE/DX =    0.0                 !
 ! A2    L(1,2,3,-2,-2)        180.0            -DE/DX =    0.0                 !
 --------------------------------------------------------------------------------
 GradGradGradGradGradGradGradGradGradGradGradGradGradGradGradGradGradGrad

 1\1\GINC-TC-NODE166\Freq\RCISD-FC\6-311++G(d,p)\C1H1N1\EPKTB\30-Sep-20
 16\0\\#N Geom=AllCheck Guess=TCheck SCRF=Check GenChk RCISD(FC)/6-311+
 +G(d,p) Freq\\HNC-HCN\\0,1\N,0.,0.,0.0447368516\C,0.,0.,1.1949337972\H
 ,0.,0.,2.2603293512\\Version=ES64L-G09RevD.01\State=1-SG\HF=-92.900027
 4\MP2=-93.2023222\MP3=-93.2011315\CISD=-93.1863092\RMSD=2.099e-10\RMSF
 =4.795e-06\ZeroPoint=0.016649\Thermal=0.0191804\Dipole=0.,0.,1.2076704
 \DipoleDeriv=-0.308024,0.,0.,0.,-0.308024,0.,0.,0.,-0.0016643,0.040741
 8,0.,0.,0.,0.0407418,0.,0.,0.,-0.2601302,0.2673049,0.,0.,0.,0.2673049,
 0.,0.,0.,0.2617853\Quadrupole=-0.4520112,-0.4520112,0.9040224,0.,0.,0.
 \QuadrupoleDeriv=0.,0.,0.,0.,0.5580031,0.,0.,0.,0.,0.,0.,0.5580031,0.2
 289592,0.2289592,-0.4579184,0.,0.,0.,0.,0.,0.,0.,-0.0608703,0.,0.,0.,0
 .,0.,0.,-0.0608703,-0.4098539,-0.4098539,0.8197078,0.,0.,0.,0.,0.,0.,0
 .,0.7103539,0.,0.,0.,0.,0.,0.,0.7103539,-0.6242218,-0.6242218,1.248443
 6,0.,0.,0.\PG=C*V [C*(H1C1N1)]\NImag=0\\0.01440015,0.,0.01440015,0.,0.
 ,1.32043625,-0.02991337,0.,0.,0.06219048,0.,-0.02991337,0.,0.,0.062190
 48,0.,0.,-1.33449872,0.,0.,1.76855586,0.01552869,0.,0.,-0.03228825,0.,
 0.,0.01675524,0.,0.01552869,0.,0.,-0.03228825,0.,0.,0.01675524,0.,0.,0
 .01406349,0.,0.,-0.43405815,0.,0.,0.41999464\\0.,0.,0.00000543,0.,0.,-
 0.00001174,0.,0.,0.00000630\\\@


 IF YOU GET CONFUSED, LOGIC OUT YOUR DILEMMA

           --  PICKER X-RAY CORP.    DIGITAL PRINTER MANUAL CA. 1964
 Job cpu time:       0 days  0 hours  2 minutes 59.6 seconds.
 File lengths (MBytes):  RWF=    138 Int=      0 D2E=      0 Chk=     39 Scr=      1
 Normal termination of Gaussian 09 at Fri Sep 30 11:29:40 2016.
