 Entering Link 1 = C:\G09W\l1.exe PID=      6052.
  
 Copyright (c) 1988,1990,1992,1993,1995,1998,2003,2009,2013,
            Gaussian, Inc.  All Rights Reserved.
  
 This is part of the Gaussian(R) 09 program.  It is based on
 the Gaussian(R) 03 system (copyright 2003, Gaussian, Inc.),
 the Gaussian(R) 98 system (copyright 1998, Gaussian, Inc.),
 the Gaussian(R) 94 system (copyright 1995, Gaussian, Inc.),
 the Gaussian 92(TM) system (copyright 1992, Gaussian, Inc.),
 the Gaussian 90(TM) system (copyright 1990, Gaussian, Inc.),
 the Gaussian 88(TM) system (copyright 1988, Gaussian, Inc.),
 the Gaussian 86(TM) system (copyright 1986, Carnegie Mellon
 University), and the Gaussian 82(TM) system (copyright 1983,
 Carnegie Mellon University). Gaussian is a federally registered
 trademark of Gaussian, Inc.
  
 This software contains proprietary and confidential information,
 including trade secrets, belonging to Gaussian, Inc.
  
 This software is provided under written license and may be
 used, copied, transmitted, or stored only in accord with that
 written license.
  
 The following legend is applicable only to US Government
 contracts under FAR:
  
                    RESTRICTED RIGHTS LEGEND
  
 Use, reproduction and disclosure by the US Government is
 subject to restrictions as set forth in subparagraphs (a)
 and (c) of the Commercial Computer Software - Restricted
 Rights clause in FAR 52.227-19.
  
 Gaussian, Inc.
 340 Quinnipiac St., Bldg. 40, Wallingford CT 06492
  
  
 ---------------------------------------------------------------
 Warning -- This program may not be used in any manner that
 competes with the business of Gaussian, Inc. or will provide
 assistance to any competitor of Gaussian, Inc.  The licensee
 of this program is prohibited from giving any competitor of
 Gaussian, Inc. access to this program.  By using this program,
 the user acknowledges that Gaussian, Inc. is engaged in the
 business of creating and licensing software in the field of
 computational chemistry and represents and warrants to the
 licensee that it is not a competitor of Gaussian, Inc. and that
 it will not use this program in any manner prohibited above.
 ---------------------------------------------------------------
  

 Cite this work as:
 Gaussian 09, Revision D.01,
 M. J. Frisch, G. W. Trucks, H. B. Schlegel, G. E. Scuseria, 
 M. A. Robb, J. R. Cheeseman, G. Scalmani, V. Barone, B. Mennucci, 
 G. A. Petersson, H. Nakatsuji, M. Caricato, X. Li, H. P. Hratchian, 
 A. F. Izmaylov, J. Bloino, G. Zheng, J. L. Sonnenberg, M. Hada, 
 M. Ehara, K. Toyota, R. Fukuda, J. Hasegawa, M. Ishida, T. Nakajima, 
 Y. Honda, O. Kitao, H. Nakai, T. Vreven, J. A. Montgomery, Jr., 
 J. E. Peralta, F. Ogliaro, M. Bearpark, J. J. Heyd, E. Brothers, 
 K. N. Kudin, V. N. Staroverov, T. Keith, R. Kobayashi, J. Normand, 
 K. Raghavachari, A. Rendell, J. C. Burant, S. S. Iyengar, J. Tomasi, 
 M. Cossi, N. Rega, J. M. Millam, M. Klene, J. E. Knox, J. B. Cross, 
 V. Bakken, C. Adamo, J. Jaramillo, R. Gomperts, R. E. Stratmann, 
 O. Yazyev, A. J. Austin, R. Cammi, C. Pomelli, J. W. Ochterski, 
 R. L. Martin, K. Morokuma, V. G. Zakrzewski, G. A. Voth, 
 P. Salvador, J. J. Dannenberg, S. Dapprich, A. D. Daniels, 
 O. Farkas, J. B. Foresman, J. V. Ortiz, J. Cioslowski, 
 and D. J. Fox, Gaussian, Inc., Wallingford CT, 2013.
 
 ******************************************
 Gaussian 09:  EM64W-G09RevD.01 13-Apr-2013
                24-Oct-2016 
 ******************************************
 %nprocshared=4
 Will use up to    4 processors via shared memory.
 %mem=6GB
 %chk=C:\Users\Robert\Desktop\cbs_linear_ch3n2.chk
 --------------------------
 # cbs-4m geom=connectivity
 --------------------------
 1/18=20,19=15,38=1,57=2/1,3;
 2/9=110,12=2,17=6,18=5,40=1/2;
 3/5=5,6=3,7=1,11=9,16=1,25=1,30=1,71=1/1,2,3;
 4//1;
 5/5=2,38=5/2;
 6/7=2,8=2,9=2,10=2,28=1/1;
 7//1,2,3,16;
 1/18=20,19=15/3(2);
 2/9=110/2;
 99//99;
 2/9=110/2;
 3/5=5,6=3,7=1,11=9,16=1,25=1,30=1,71=1/1,2,3;
 4/5=5,16=3,69=1/1;
 5/5=2,38=5/2;
 7//1,2,3,16;
 1/18=20,19=15/3(-5);
 2/9=110/2;
 6/7=2,8=2,9=2,10=2,19=2,28=1/1;
 99/9=1/99;
 -------------------
 Title Card Required
 -------------------
 Symbolic Z-matrix:
 Charge =  1 Multiplicity = 1
 C                    -3.87059   3.35294   0. 
 H                    -4.1711    2.46352  -0.55568 
 H                    -4.17087   4.27905  -0.49225 
 H                    -4.17062   3.31635   1.04825 
 N                    -2.41145   3.35285  -0.00031 
 N                    -1.29283   3.35295   0.00007 
 

 GradGradGradGradGradGradGradGradGradGradGradGradGradGradGradGradGradGrad
 Berny optimization.
 Initialization pass.
                           ----------------------------
                           !    Initial Parameters    !
                           ! (Angstroms and Degrees)  !
 --------------------------                            --------------------------
 ! Name  Definition              Value          Derivative Info.                !
 --------------------------------------------------------------------------------
 ! R1    R(1,2)                  1.0909         estimate D2E/DX2                !
 ! R2    R(1,3)                  1.0909         estimate D2E/DX2                !
 ! R3    R(1,4)                  1.091          estimate D2E/DX2                !
 ! R4    R(1,5)                  1.4591         estimate D2E/DX2                !
 ! R5    R(5,6)                  1.1186         estimate D2E/DX2                !
 ! A1    A(2,1,3)              112.7329         estimate D2E/DX2                !
 ! A2    A(2,1,4)              112.7259         estimate D2E/DX2                !
 ! A3    A(2,1,5)              105.9804         estimate D2E/DX2                !
 ! A4    A(3,1,4)              112.726          estimate D2E/DX2                !
 ! A5    A(3,1,5)              105.9745         estimate D2E/DX2                !
 ! A6    A(4,1,5)              105.9748         estimate D2E/DX2                !
 ! A7    L(1,5,6,4,-1)         179.9692         estimate D2E/DX2                !
 ! A8    L(1,5,6,4,-2)         180.0188         estimate D2E/DX2                !
 ! D1    D(2,1,4,3)           -129.0247         estimate D2E/DX2                !
 ! D2    D(2,1,5,3)            120.0062         estimate D2E/DX2                !
 ! D3    D(2,1,5,4)           -119.9983         estimate D2E/DX2                !
 ! D4    D(3,1,5,4)            119.9955         estimate D2E/DX2                !
 --------------------------------------------------------------------------------
 Trust Radius=3.00D-01 FncErr=1.00D-07 GrdErr=1.00D-07
 Number of steps in this run=     27 maximum allowed number of steps=    100.
 GradGradGradGradGradGradGradGradGradGradGradGradGradGradGradGradGradGrad

                          Input orientation:                          
 ---------------------------------------------------------------------
 Center     Atomic      Atomic             Coordinates (Angstroms)
 Number     Number       Type             X           Y           Z
 ---------------------------------------------------------------------
      1          6           0       -3.870588    3.352941    0.000000
      2          1           0       -4.171103    2.463524   -0.555683
      3          1           0       -4.170874    4.279050   -0.492254
      4          1           0       -4.170618    3.316354    1.048251
      5          7           0       -2.411446    3.352854   -0.000306
      6          7           0       -1.292834    3.352954    0.000067
 ---------------------------------------------------------------------
                    Distance matrix (angstroms):
                    1          2          3          4          5
     1  C    0.000000
     2  H    1.090942   0.000000
     3  H    1.090946   1.816634   0.000000
     4  H    1.090957   1.816569   1.816574   0.000000
     5  N    1.459142   2.048352   2.048277   2.048290   0.000000
     6  N    2.577754   3.063393   3.063192   3.062951   1.118612
                    6
     6  N    0.000000
 Stoichiometry    CH3N2(1+)
 Framework group  C1[X(CH3N2)]
 Deg. of freedom    12
 Full point group                 C1      NOp   1
 Largest Abelian subgroup         C1      NOp   1
 Largest concise Abelian subgroup C1      NOp   1
                         Standard orientation:                         
 ---------------------------------------------------------------------
 Center     Atomic      Atomic             Coordinates (Angstroms)
 Number     Number       Type             X           Y           Z
 ---------------------------------------------------------------------
      1          6           0       -1.189454    0.000018    0.000059
      2          1           0       -1.489969   -0.892538   -0.550567
      3          1           0       -1.489740    0.923318   -0.497444
      4          1           0       -1.489484   -0.030618    1.048501
      5          7           0        0.269688   -0.000070   -0.000247
      6          7           0        1.388300    0.000032    0.000126
 ---------------------------------------------------------------------
 Rotational constants (GHZ):    151.9557189      9.5534582      9.5534308
 Standard basis: 3-21G* (6D, 7F)
 There are    33 symmetry adapted cartesian basis functions of A   symmetry.
 There are    33 symmetry adapted basis functions of A   symmetry.
    33 basis functions,    54 primitive gaussians,    33 cartesian basis functions
    11 alpha electrons       11 beta electrons
       nuclear repulsion energy        65.6922813123 Hartrees.
 NAtoms=    6 NActive=    6 NUniq=    6 SFac= 1.00D+00 NAtFMM=   60 NAOKFM=F Big=F
 Integral buffers will be    131072 words long.
 Raffenetti 1 integral format.
 Two-electron integral symmetry is turned on.
 One-electron integrals computed using PRISM.
 NBasis=    33 RedAO= T EigKep=  9.76D-03  NBF=    33
 NBsUse=    33 1.00D-06 EigRej= -1.00D+00 NBFU=    33
 ExpMin= 1.83D-01 ExpMax= 2.43D+02 ExpMxC= 2.43D+02 IAcc=1 IRadAn=         1 AccDes= 0.00D+00
 Harris functional with IExCor=  205 and IRadAn=       1 diagonalized for initial guess.
 HarFok:  IExCor=  205 AccDes= 0.00D+00 IRadAn=         1 IDoV= 1 UseB2=F ITyADJ=14
 ICtDFT=  3500011 ScaDFX=  1.000000  1.000000  1.000000  1.000000
 FoFCou: FMM=F IPFlag=           0 FMFlag=      100000 FMFlg1=           0
         NFxFlg=           0 DoJE=T BraDBF=F KetDBF=T FulRan=T
         wScrn=  0.000000 ICntrl=     500 IOpCl=  0 I1Cent=   200000004 NGrid=           0
         NMat0=    1 NMatS0=      1 NMatT0=    0 NMatD0=    1 NMtDS0=    0 NMtDT0=    0
 Petite list used in FoFCou.
 Keep R1 ints in memory in canonical form, NReq=987518.
 Requested convergence on RMS density matrix=1.00D-08 within 128 cycles.
 Requested convergence on MAX density matrix=1.00D-06.
 Requested convergence on             energy=1.00D-06.
 No special actions if energy rises.
 SCF Done:  E(RHF) =  -147.360531224     A.U. after   11 cycles
            NFock= 11  Conv=0.23D-08     -V/T= 2.0051

 **********************************************************************

            Population analysis using the SCF density.

 **********************************************************************

 Orbital symmetries:
       Occupied  (A) (A) (A) (A) (A) (A) (A) (A) (A) (A) (A)
       Virtual   (A) (A) (A) (A) (A) (A) (A) (A) (A) (A) (A) (A)
                 (A) (A) (A) (A) (A) (A) (A) (A) (A) (A)
 The electronic state is 1-A.
 Alpha  occ. eigenvalues --  -15.97886 -15.97718 -11.51384  -1.81293  -1.37905
 Alpha  occ. eigenvalues --   -1.05514  -0.96921  -0.96921  -0.95370  -0.82741
 Alpha  occ. eigenvalues --   -0.82740
 Alpha virt. eigenvalues --   -0.15268  -0.15267   0.04638   0.05394   0.10792
 Alpha virt. eigenvalues --    0.10793   0.38907   0.69477   0.69478   0.72461
 Alpha virt. eigenvalues --    0.99738   1.00385   1.00387   1.04467   1.04468
 Alpha virt. eigenvalues --    1.10646   1.20286   1.20289   1.43327   1.62552
 Alpha virt. eigenvalues --    2.13845   2.38331
          Condensed to atoms (all electrons):
               1          2          3          4          5          6
     1  C    5.441137   0.348534   0.348537   0.348538  -0.107302  -0.014758
     2  H    0.348534   0.325551  -0.013483  -0.013492  -0.022505  -0.000685
     3  H    0.348537  -0.013483   0.325562  -0.013493  -0.022511  -0.000687
     4  H    0.348538  -0.013492  -0.013493   0.325573  -0.022514  -0.000689
     5  N   -0.107302  -0.022505  -0.022511  -0.022514   6.805480   0.446092
     6  N   -0.014758  -0.000685  -0.000687  -0.000689   0.446092   6.257534
 Mulliken charges:
               1
     1  C   -0.364686
     2  H    0.376080
     3  H    0.376075
     4  H    0.376077
     5  N   -0.076739
     6  N    0.313193
 Sum of Mulliken charges =   1.00000
 Mulliken charges with hydrogens summed into heavy atoms:
               1
     1  C    0.763547
     5  N   -0.076739
     6  N    0.313193
 Electronic spatial extent (au):  <R**2>=            145.1441
 Charge=              1.0000 electrons
 Dipole moment (field-independent basis, Debye):
    X=             -1.8430    Y=              0.0001    Z=              0.0004  Tot=              1.8430
 Quadrupole moment (field-independent basis, Debye-Ang):
   XX=             -9.6124   YY=            -14.8796   ZZ=            -14.8799
   XY=              0.0000   XZ=             -0.0004   YZ=              0.0000
 Traceless Quadrupole moment (field-independent basis, Debye-Ang):
   XX=              3.5115   YY=             -1.7556   ZZ=             -1.7559
   XY=              0.0000   XZ=             -0.0004   YZ=              0.0000
 Octapole moment (field-independent basis, Debye-Ang**2):
  XXX=             -6.1061  YYY=              0.1236  ZZZ=              1.4019  XYY=             -1.2513
  XXY=             -0.0005  XXZ=             -0.0002  XZZ=             -1.2502  YZZ=             -0.1231
  YYZ=             -1.4006  XYZ=             -0.0002
 Hexadecapole moment (field-independent basis, Debye-Ang**3):
 XXXX=           -124.3444 YYYY=            -16.9186 ZZZZ=            -16.9180 XXXY=              0.0009
 XXXZ=             -0.0001 YYYX=             -0.1920 YYYZ=             -0.0002 ZZZX=             -2.1828
 ZZZY=              0.0000 XXYY=            -21.8532 XXZZ=            -21.8559 YYZZ=             -5.6401
 XXYZ=              0.0007 YYXZ=              2.1820 ZZXY=              0.1920
 N-N= 6.569228131229D+01 E-N=-4.681969354778D+02  KE= 1.466191396752D+02
 Calling FoFJK, ICntrl=      2127 FMM=F ISym2X=0 I1Cent= 0 IOpClX= 0 NMat=1 NMatS=1 NMatT=0.
 ***** Axes restored to original set *****
 -------------------------------------------------------------------
 Center     Atomic                   Forces (Hartrees/Bohr)
 Number     Number              X              Y              Z
 -------------------------------------------------------------------
      1        6          -0.024580423    0.000004021   -0.000001937
      2        1          -0.000195967    0.006470876    0.004034231
      3        1          -0.000206190   -0.006738973    0.003574060
      4        1          -0.000196555    0.000266386   -0.007623392
      5        7           0.146870494    0.000015170    0.000084319
      6        7          -0.121691360   -0.000017481   -0.000067281
 -------------------------------------------------------------------
 Cartesian Forces:  Max     0.146870494 RMS     0.045435290

 GradGradGradGradGradGradGradGradGradGradGradGradGradGradGradGradGradGrad
 Berny optimization.
 FormGI is forming the generalized inverse of G from B-inverse, IUseBI=4.
 Internal  Forces:  Max     0.121691377 RMS     0.030310539
 Search for a local minimum.
 Step number   1 out of a maximum of   27
 All quantities printed in internal units (Hartrees-Bohrs-Radians)
 Mixed Optimization -- RFO/linear search
 Second derivative matrix not updated -- first step.
 The second derivative matrix:
                          R1        R2        R3        R4        R5
           R1           0.34704
           R2           0.00000   0.34704
           R3           0.00000   0.00000   0.34702
           R4           0.00000   0.00000   0.00000   0.37072
           R5           0.00000   0.00000   0.00000   0.00000   1.59209
           A1           0.00000   0.00000   0.00000   0.00000   0.00000
           A2           0.00000   0.00000   0.00000   0.00000   0.00000
           A3           0.00000   0.00000   0.00000   0.00000   0.00000
           A4           0.00000   0.00000   0.00000   0.00000   0.00000
           A5           0.00000   0.00000   0.00000   0.00000   0.00000
           A6           0.00000   0.00000   0.00000   0.00000   0.00000
           A7           0.00000   0.00000   0.00000   0.00000   0.00000
           A8           0.00000   0.00000   0.00000   0.00000   0.00000
           D1           0.00000   0.00000   0.00000   0.00000   0.00000
           D2           0.00000   0.00000   0.00000   0.00000   0.00000
           D3           0.00000   0.00000   0.00000   0.00000   0.00000
           D4           0.00000   0.00000   0.00000   0.00000   0.00000
                          A1        A2        A3        A4        A5
           A1           0.16000
           A2           0.00000   0.16000
           A3           0.00000   0.00000   0.16000
           A4           0.00000   0.00000   0.00000   0.16000
           A5           0.00000   0.00000   0.00000   0.00000   0.16000
           A6           0.00000   0.00000   0.00000   0.00000   0.00000
           A7           0.00000   0.00000   0.00000   0.00000   0.00000
           A8           0.00000   0.00000   0.00000   0.00000   0.00000
           D1           0.00000   0.00000   0.00000   0.00000   0.00000
           D2           0.00000   0.00000   0.00000   0.00000   0.00000
           D3           0.00000   0.00000   0.00000   0.00000   0.00000
           D4           0.00000   0.00000   0.00000   0.00000   0.00000
                          A6        A7        A8        D1        D2
           A6           0.16000
           A7           0.00000   0.05017
           A8           0.00000   0.00000   0.05017
           D1           0.00000   0.00000   0.00000   0.00230
           D2           0.00000   0.00000   0.00000   0.00000   0.00909
           D3           0.00000   0.00000   0.00000   0.00000   0.00000
           D4           0.00000   0.00000   0.00000   0.00000   0.00000
                          D3        D4
           D3           0.00909
           D4           0.00000   0.00909
 ITU=  0
     Eigenvalues ---    0.05017   0.05017   0.05580   0.06773   0.07956
     Eigenvalues ---    0.16000   0.16000   0.34702   0.34704   0.34704
     Eigenvalues ---    0.37072   1.59209
 RFO step:  Lambda=-1.15377790D-02 EMin= 5.01702780D-02
 Linear search not attempted -- first point.
 Iteration  1 RMS(Cart)=  0.02199892 RMS(Int)=  0.00018964
 Iteration  2 RMS(Cart)=  0.00010203 RMS(Int)=  0.00014356
 Iteration  3 RMS(Cart)=  0.00000003 RMS(Int)=  0.00014356
 Variable       Old X    -DE/DX   Delta X   Delta X   Delta X     New X
                                 (Linear)    (Quad)   (Total)
    R1        2.06158  -0.00728   0.00000  -0.02029  -0.02029   2.04129
    R2        2.06159  -0.00728   0.00000  -0.02029  -0.02029   2.04130
    R3        2.06161  -0.00728   0.00000  -0.02030  -0.02030   2.04131
    R4        2.75738   0.02518   0.00000   0.06587   0.06587   2.82325
    R5        2.11387  -0.12169   0.00000  -0.07589  -0.07589   2.03799
    A1        1.96756  -0.00053   0.00000  -0.01138  -0.01172   1.95584
    A2        1.96744  -0.00126   0.00000  -0.01266  -0.01291   1.95453
    A3        1.84971   0.00106   0.00000   0.01415   0.01420   1.86391
    A4        1.96744  -0.00126   0.00000  -0.01267  -0.01292   1.95452
    A5        1.84960   0.00108   0.00000   0.01425   0.01430   1.86391
    A6        1.84961   0.00140   0.00000   0.01426   0.01427   1.86388
    A7        3.14106   0.00006   0.00000   0.00091   0.00091   3.14196
    A8        3.14192  -0.00001   0.00000  -0.00013  -0.00013   3.14179
    D1       -2.25191   0.00295   0.00000   0.03814   0.03782  -2.21409
    D2        2.09450   0.00045   0.00000   0.00097   0.00093   2.09543
    D3       -2.09437   0.00023   0.00000   0.00051   0.00048  -2.09388
    D4        2.09432  -0.00022   0.00000  -0.00047  -0.00044   2.09388
         Item               Value     Threshold  Converged?
 Maximum Force            0.121691     0.000450     NO 
 RMS     Force            0.030311     0.000300     NO 
 Maximum Displacement     0.067728     0.001800     NO 
 RMS     Displacement     0.021993     0.001200     NO 
 Predicted change in Energy=-5.846850D-03
 GradGradGradGradGradGradGradGradGradGradGradGradGradGradGradGradGradGrad

                          Input orientation:                          
 ---------------------------------------------------------------------
 Center     Atomic      Atomic             Coordinates (Angstroms)
 Number     Number       Type             X           Y           Z
 ---------------------------------------------------------------------
      1          6           0       -3.869605    3.352966   -0.000125
      2          1           0       -4.181719    2.475719   -0.547723
      3          1           0       -4.181607    4.266335   -0.485161
      4          1           0       -4.181775    3.316879    1.033368
      5          7           0       -2.375606    3.352866    0.000007
      6          7           0       -1.297151    3.352913   -0.000292
 ---------------------------------------------------------------------
                    Distance matrix (angstroms):
                    1          2          3          4          5
     1  C    0.000000
     2  H    1.080204   0.000000
     3  H    1.080207   1.791708   0.000000
     4  H    1.080213   1.790921   1.790920   0.000000
     5  N    1.493999   2.081211   2.081214   2.081196   0.000000
     6  N    2.572454   3.064292   3.064233   3.064443   1.078455
                    6
     6  N    0.000000
 Stoichiometry    CH3N2(1+)
 Framework group  C1[X(CH3N2)]
 Deg. of freedom    12
 Full point group                 C1      NOp   1
 Largest Abelian subgroup         C1      NOp   1
 Largest concise Abelian subgroup C1      NOp   1
                         Standard orientation:                         
 ---------------------------------------------------------------------
 Center     Atomic      Atomic             Coordinates (Angstroms)
 Number     Number       Type             X           Y           Z
 ---------------------------------------------------------------------
      1          6           0       -1.196908    0.000011   -0.000146
      2          1           0       -1.508947   -0.896073   -0.516388
      3          1           0       -1.508884    0.895635   -0.517230
      4          1           0       -1.509180    0.000511    1.033946
      5          7           0        0.297091   -0.000043    0.000136
      6          7           0        1.375546    0.000023   -0.000058
 ---------------------------------------------------------------------
 Rotational constants (GHZ):    156.2974450      9.5438815      9.5435398
 Standard basis: 3-21G* (6D, 7F)
 There are    33 symmetry adapted cartesian basis functions of A   symmetry.
 There are    33 symmetry adapted basis functions of A   symmetry.
    33 basis functions,    54 primitive gaussians,    33 cartesian basis functions
    11 alpha electrons       11 beta electrons
       nuclear repulsion energy        66.2298810963 Hartrees.
 NAtoms=    6 NActive=    6 NUniq=    6 SFac= 1.00D+00 NAtFMM=   60 NAOKFM=F Big=F
 Integral buffers will be    131072 words long.
 Raffenetti 1 integral format.
 Two-electron integral symmetry is turned on.
 One-electron integrals computed using PRISM.
 NBasis=    33 RedAO= T EigKep=  8.43D-03  NBF=    33
 NBsUse=    33 1.00D-06 EigRej= -1.00D+00 NBFU=    33
 Initial guess from the checkpoint file:  "C:\Users\Robert\Desktop\cbs_linear_ch3n2.chk"
 B after Tr=     0.000000    0.000000    0.000000
         Rot=    0.999890    0.014859    0.000022   -0.000005 Ang=   1.70 deg.
 ExpMin= 1.83D-01 ExpMax= 2.43D+02 ExpMxC= 2.43D+02 IAcc=1 IRadAn=         1 AccDes= 0.00D+00
 Harris functional with IExCor=  205 and IRadAn=       1 diagonalized for initial guess.
 HarFok:  IExCor=  205 AccDes= 0.00D+00 IRadAn=         1 IDoV= 1 UseB2=F ITyADJ=14
 ICtDFT=  3500011 ScaDFX=  1.000000  1.000000  1.000000  1.000000
 FoFCou: FMM=F IPFlag=           0 FMFlag=      100000 FMFlg1=           0
         NFxFlg=           0 DoJE=T BraDBF=F KetDBF=T FulRan=T
         wScrn=  0.000000 ICntrl=     500 IOpCl=  0 I1Cent=   200000004 NGrid=           0
         NMat0=    1 NMatS0=      1 NMatT0=    0 NMatD0=    1 NMtDS0=    0 NMtDT0=    0
 Petite list used in FoFCou.
 Keep R1 ints in memory in canonical form, NReq=987546.
 Requested convergence on RMS density matrix=1.00D-08 within 128 cycles.
 Requested convergence on MAX density matrix=1.00D-06.
 Requested convergence on             energy=1.00D-06.
 No special actions if energy rises.
 SCF Done:  E(RHF) =  -147.366730498     A.U. after   11 cycles
            NFock= 11  Conv=0.46D-08     -V/T= 2.0034
 Calling FoFJK, ICntrl=      2127 FMM=F ISym2X=0 I1Cent= 0 IOpClX= 0 NMat=1 NMatS=1 NMatT=0.
 ***** Axes restored to original set *****
 -------------------------------------------------------------------
 Center     Atomic                   Forces (Hartrees/Bohr)
 Number     Number              X              Y              Z
 -------------------------------------------------------------------
      1        6          -0.015768702   -0.000006112    0.000119839
      2        1           0.002714929   -0.000341279   -0.000303927
      3        1           0.002717424    0.000360089   -0.000279337
      4        1           0.002741727   -0.000017399    0.000477639
      5        7           0.009310312    0.000010311   -0.000031516
      6        7          -0.001715690   -0.000005611    0.000017303
 -------------------------------------------------------------------
 Cartesian Forces:  Max     0.015768702 RMS     0.004479649

 GradGradGradGradGradGradGradGradGradGradGradGradGradGradGradGradGradGrad
 Berny optimization.
 Using GEDIIS/GDIIS optimizer.
 FormGI is forming the generalized inverse of G from B-inverse, IUseBI=4.
 Internal  Forces:  Max     0.007594621 RMS     0.002236361
 Search for a local minimum.
 Step number   2 out of a maximum of   27
 All quantities printed in internal units (Hartrees-Bohrs-Radians)
 Mixed Optimization -- RFO/linear search
 Update second derivatives using D2CorX and points    1    2
 DE= -6.20D-03 DEPred=-5.85D-03 R= 1.06D+00
 TightC=F SS=  1.41D+00  RLast= 1.18D-01 DXNew= 5.0454D-01 3.5301D-01
 Trust test= 1.06D+00 RLast= 1.18D-01 DXMaxT set to 3.53D-01
 The second derivative matrix:
                          R1        R2        R3        R4        R5
           R1           0.34699
           R2          -0.00005   0.34698
           R3          -0.00004  -0.00004   0.34700
           R4           0.00417   0.00417   0.00414   0.34612
           R5          -0.00010  -0.00012   0.00010   0.06959   1.60336
           A1          -0.00044  -0.00044  -0.00044   0.00220  -0.00744
           A2           0.00050   0.00050   0.00050  -0.00008   0.00887
           A3          -0.00005  -0.00004  -0.00005  -0.00119  -0.00103
           A4           0.00050   0.00050   0.00051  -0.00009   0.00892
           A5          -0.00005  -0.00005  -0.00005  -0.00119  -0.00107
           A6          -0.00054  -0.00054  -0.00054   0.00005  -0.00955
           A7          -0.00003  -0.00003  -0.00003   0.00005  -0.00049
           A8           0.00000   0.00000   0.00000   0.00001  -0.00004
           D1          -0.00392  -0.00391  -0.00393   0.00989  -0.06785
           D2          -0.00065  -0.00065  -0.00065   0.00164  -0.01124
           D3          -0.00033  -0.00033  -0.00033   0.00082  -0.00564
           D4           0.00032   0.00032   0.00032  -0.00082   0.00560
                          A1        A2        A3        A4        A5
           A1           0.15981
           A2          -0.00004   0.16036
           A3           0.00013  -0.00019   0.16004
           A4          -0.00004   0.00036  -0.00019   0.16036
           A5           0.00013  -0.00019   0.00004  -0.00019   0.16004
           A6           0.00005  -0.00039   0.00020  -0.00039   0.00020
           A7           0.00000  -0.00002   0.00001  -0.00002   0.00001
           A8           0.00000   0.00000   0.00000   0.00000   0.00000
           D1          -0.00065  -0.00162   0.00132  -0.00162   0.00133
           D2          -0.00011  -0.00027   0.00022  -0.00027   0.00022
           D3          -0.00005  -0.00013   0.00011  -0.00013   0.00011
           D4           0.00005   0.00013  -0.00011   0.00013  -0.00011
                          A6        A7        A8        D1        D2
           A6           0.16042
           A7           0.00002   0.05017
           A8           0.00000   0.00000   0.05017
           D1           0.00178   0.00005   0.00000   0.00596
           D2           0.00029   0.00001   0.00000   0.00060   0.00919
           D3           0.00015   0.00000   0.00000   0.00030   0.00005
           D4          -0.00015   0.00000   0.00000  -0.00030  -0.00005
                          D3        D4
           D3           0.00912
           D4          -0.00002   0.00912
 ITU=  1  0
 Use linear search instead of GDIIS.
     Eigenvalues ---    0.05017   0.05017   0.05665   0.06632   0.08343
     Eigenvalues ---    0.16000   0.16018   0.33753   0.34703   0.34704
     Eigenvalues ---    0.35216   1.60939
 RFO step:  Lambda=-5.10271056D-04 EMin= 5.01702731D-02
 Quartic linear search produced a step of  0.03279.
 Iteration  1 RMS(Cart)=  0.00942582 RMS(Int)=  0.00032581
 Iteration  2 RMS(Cart)=  0.00016910 RMS(Int)=  0.00027424
 Iteration  3 RMS(Cart)=  0.00000001 RMS(Int)=  0.00027424
 Variable       Old X    -DE/DX   Delta X   Delta X   Delta X     New X
                                 (Linear)    (Quad)   (Total)
    R1        2.04129  -0.00035  -0.00067  -0.00109  -0.00175   2.03954
    R2        2.04130  -0.00035  -0.00067  -0.00109  -0.00176   2.03954
    R3        2.04131  -0.00033  -0.00067  -0.00103  -0.00170   2.03961
    R4        2.82325   0.00759   0.00216   0.02131   0.02347   2.84672
    R5        2.03799  -0.00172  -0.00249  -0.00190  -0.00439   2.03360
    A1        1.95584   0.00063  -0.00038   0.01726   0.01623   1.97207
    A2        1.95453   0.00160  -0.00042   0.01836   0.01745   1.97198
    A3        1.86391  -0.00127   0.00047  -0.02011  -0.01954   1.84436
    A4        1.95452   0.00160  -0.00042   0.01837   0.01746   1.97198
    A5        1.86391  -0.00127   0.00047  -0.02014  -0.01957   1.84434
    A6        1.86388  -0.00173   0.00047  -0.02008  -0.01957   1.84431
    A7        3.14196  -0.00003   0.00003  -0.00076  -0.00073   3.14123
    A8        3.14179  -0.00001   0.00000  -0.00009  -0.00010   3.14169
    D1       -2.21409  -0.00343   0.00124  -0.05290  -0.05226  -2.26634
    D2        2.09543  -0.00060   0.00003  -0.00090  -0.00095   2.09447
    D3       -2.09388  -0.00030   0.00002  -0.00045  -0.00048  -2.09436
    D4        2.09388   0.00030  -0.00001   0.00045   0.00048   2.09435
         Item               Value     Threshold  Converged?
 Maximum Force            0.007595     0.000450     NO 
 RMS     Force            0.002236     0.000300     NO 
 Maximum Displacement     0.026493     0.001800     NO 
 RMS     Displacement     0.009370     0.001200     NO 
 Predicted change in Energy=-2.628135D-04
 GradGradGradGradGradGradGradGradGradGradGradGradGradGradGradGradGradGrad

                          Input orientation:                          
 ---------------------------------------------------------------------
 Center     Atomic      Atomic             Coordinates (Angstroms)
 Number     Number       Type             X           Y           Z
 ---------------------------------------------------------------------
      1          6           0       -3.883625    3.352962    0.000014
      2          1           0       -4.175336    2.471721   -0.550582
      3          1           0       -4.175227    4.270517   -0.487735
      4          1           0       -4.174995    3.316692    1.038621
      5          7           0       -2.377208    3.352897   -0.000231
      6          7           0       -1.301074    3.352889   -0.000013
 ---------------------------------------------------------------------
                    Distance matrix (angstroms):
                    1          2          3          4          5
     1  C    0.000000
     2  H    1.079276   0.000000
     3  H    1.079276   1.799893   0.000000
     4  H    1.079313   1.799873   1.799874   0.000000
     5  N    1.506417   2.076686   2.076670   2.076671   0.000000
     6  N    2.582550   3.056299   3.056251   3.056058   1.076133
                    6
     6  N    0.000000
 Stoichiometry    CH3N2(1+)
 Framework group  C1[X(CH3N2)]
 Deg. of freedom    12
 Full point group                 C1      NOp   1
 Largest Abelian subgroup         C1      NOp   1
 Largest concise Abelian subgroup C1      NOp   1
                         Standard orientation:                         
 ---------------------------------------------------------------------
 Center     Atomic      Atomic             Coordinates (Angstroms)
 Number     Number       Type             X           Y           Z
 ---------------------------------------------------------------------
      1          6           0       -1.206439    0.000005    0.000034
      2          1           0       -1.498107   -0.891912   -0.533117
      3          1           0       -1.498053    0.907772   -0.505692
      4          1           0       -1.497840   -0.015822    1.039145
      5          7           0        0.299978   -0.000019   -0.000164
      6          7           0        1.376112    0.000009    0.000087
 ---------------------------------------------------------------------
 Rotational constants (GHZ):    154.7907482      9.5000624      9.5000539
 Standard basis: 3-21G* (6D, 7F)
 There are    33 symmetry adapted cartesian basis functions of A   symmetry.
 There are    33 symmetry adapted basis functions of A   symmetry.
    33 basis functions,    54 primitive gaussians,    33 cartesian basis functions
    11 alpha electrons       11 beta electrons
       nuclear repulsion energy        66.1498619509 Hartrees.
 NAtoms=    6 NActive=    6 NUniq=    6 SFac= 1.00D+00 NAtFMM=   60 NAOKFM=F Big=F
 Integral buffers will be    131072 words long.
 Raffenetti 1 integral format.
 Two-electron integral symmetry is turned on.
 One-electron integrals computed using PRISM.
 NBasis=    33 RedAO= T EigKep=  8.38D-03  NBF=    33
 NBsUse=    33 1.00D-06 EigRej= -1.00D+00 NBFU=    33
 Initial guess from the checkpoint file:  "C:\Users\Robert\Desktop\cbs_linear_ch3n2.chk"
 B after Tr=     0.000000    0.000000    0.000000
         Rot=    0.999969   -0.007854   -0.000017    0.000000 Ang=  -0.90 deg.
 ExpMin= 1.83D-01 ExpMax= 2.43D+02 ExpMxC= 2.43D+02 IAcc=1 IRadAn=         1 AccDes= 0.00D+00
 Harris functional with IExCor=  205 and IRadAn=       1 diagonalized for initial guess.
 HarFok:  IExCor=  205 AccDes= 0.00D+00 IRadAn=         1 IDoV= 1 UseB2=F ITyADJ=14
 ICtDFT=  3500011 ScaDFX=  1.000000  1.000000  1.000000  1.000000
 FoFCou: FMM=F IPFlag=           0 FMFlag=      100000 FMFlg1=           0
         NFxFlg=           0 DoJE=T BraDBF=F KetDBF=T FulRan=T
         wScrn=  0.000000 ICntrl=     500 IOpCl=  0 I1Cent=   200000004 NGrid=           0
         NMat0=    1 NMatS0=      1 NMatT0=    0 NMatD0=    1 NMtDS0=    0 NMtDT0=    0
 Petite list used in FoFCou.
 Keep R1 ints in memory in canonical form, NReq=987546.
 Requested convergence on RMS density matrix=1.00D-08 within 128 cycles.
 Requested convergence on MAX density matrix=1.00D-06.
 Requested convergence on             energy=1.00D-06.
 No special actions if energy rises.
 SCF Done:  E(RHF) =  -147.367070938     A.U. after   10 cycles
            NFock= 10  Conv=0.55D-08     -V/T= 2.0032
 Calling FoFJK, ICntrl=      2127 FMM=F ISym2X=0 I1Cent= 0 IOpClX= 0 NMat=1 NMatS=1 NMatT=0.
 ***** Axes restored to original set *****
 -------------------------------------------------------------------
 Center     Atomic                   Forces (Hartrees/Bohr)
 Number     Number              X              Y              Z
 -------------------------------------------------------------------
      1        6          -0.008047977   -0.000000672    0.000018494
      2        1           0.000177151    0.000040113    0.000019131
      3        1           0.000175700   -0.000041629    0.000016408
      4        1           0.000186029    0.000002291   -0.000066232
      5        7           0.000866205    0.000001578    0.000028667
      6        7           0.006642892   -0.000001680   -0.000016468
 -------------------------------------------------------------------
 Cartesian Forces:  Max     0.008047977 RMS     0.002469311

 GradGradGradGradGradGradGradGradGradGradGradGradGradGradGradGradGradGrad
 Berny optimization.
 Using GEDIIS/GDIIS optimizer.
 FormGI is forming the generalized inverse of G from B-inverse, IUseBI=4.
 Internal  Forces:  Max     0.007509095 RMS     0.002432917
 Search for a local minimum.
 Step number   3 out of a maximum of   27
 All quantities printed in internal units (Hartrees-Bohrs-Radians)
 Mixed Optimization -- RFO/linear search
 Update second derivatives using D2CorX and points    1    2    3
 DE= -3.40D-04 DEPred=-2.63D-04 R= 1.30D+00
 TightC=F SS=  1.41D+00  RLast= 7.30D-02 DXNew= 5.9369D-01 2.1906D-01
 Trust test= 1.30D+00 RLast= 7.30D-02 DXMaxT set to 3.53D-01
 The second derivative matrix:
                          R1        R2        R3        R4        R5
           R1           0.34712
           R2           0.00008   0.34712
           R3           0.00006   0.00006   0.34706
           R4           0.01089   0.01091   0.01064   0.23161
           R5           0.01047   0.01050   0.00944   0.13202   1.95301
           A1           0.00135   0.00136   0.00132  -0.03632   0.00122
           A2           0.00125   0.00125   0.00132  -0.03934  -0.01117
           A3          -0.00156  -0.00156  -0.00158   0.04395   0.00469
           A4           0.00125   0.00125   0.00132  -0.03936  -0.01118
           A5          -0.00155  -0.00156  -0.00157   0.04399   0.00481
           A6          -0.00146  -0.00146  -0.00153   0.04416   0.01086
           A7           0.00003   0.00003   0.00002   0.00049   0.00148
           A8           0.00000   0.00000   0.00000   0.00007   0.00001
           D1           0.00034   0.00036  -0.00004   0.00318   0.03930
           D2           0.00011   0.00011   0.00004   0.00034   0.00772
           D3           0.00005   0.00006   0.00002   0.00017   0.00385
           D4          -0.00006  -0.00006  -0.00002  -0.00017  -0.00386
                          A1        A2        A3        A4        A5
           A1           0.14721
           A2          -0.01201   0.15119
           A3           0.01442   0.01217   0.14451
           A4          -0.01201  -0.00880   0.01217   0.15120
           A5           0.01443   0.01216  -0.01550   0.01216   0.14450
           A6           0.01356   0.01013  -0.01384   0.01012  -0.01384
           A7           0.00008  -0.00009   0.00000  -0.00010   0.00000
           A8           0.00002   0.00001  -0.00002   0.00001  -0.00002
           D1          -0.00607  -0.01480   0.01188  -0.01482   0.01194
           D2          -0.00111  -0.00263   0.00213  -0.00264   0.00214
           D3          -0.00055  -0.00132   0.00107  -0.00132   0.00107
           D4           0.00055   0.00131  -0.00106   0.00132  -0.00107
                          A6        A7        A8        D1        D2
           A6           0.14837
           A7           0.00009   0.05018
           A8          -0.00002   0.00000   0.05017
           D1           0.01602   0.00066   0.00002   0.03296
           D2           0.00285   0.00012   0.00000   0.00536   0.01003
           D3           0.00143   0.00006   0.00000   0.00268   0.00047
           D4          -0.00142  -0.00006   0.00000  -0.00267  -0.00047
                          D3        D4
           D3           0.00933
           D4          -0.00023   0.00933
 ITU=  1  1  0
 Use linear search instead of GDIIS.
     Eigenvalues ---    0.05013   0.05017   0.05185   0.06825   0.07393
     Eigenvalues ---    0.15871   0.16000   0.24751   0.34703   0.34704
     Eigenvalues ---    0.34946   1.96453
 RFO step:  Lambda=-2.67478853D-04 EMin= 5.01330628D-02
 Quartic linear search produced a step of  0.49259.
 Iteration  1 RMS(Cart)=  0.00918303 RMS(Int)=  0.00022747
 Iteration  2 RMS(Cart)=  0.00006067 RMS(Int)=  0.00021930
 Iteration  3 RMS(Cart)=  0.00000001 RMS(Int)=  0.00021930
 Variable       Old X    -DE/DX   Delta X   Delta X   Delta X     New X
                                 (Linear)    (Quad)   (Total)
    R1        2.03954  -0.00009  -0.00086  -0.00103  -0.00189   2.03764
    R2        2.03954  -0.00009  -0.00087  -0.00103  -0.00190   2.03764
    R3        2.03961  -0.00011  -0.00084  -0.00113  -0.00197   2.03764
    R4        2.84672   0.00751   0.01156   0.03200   0.04356   2.89027
    R5        2.03360   0.00664  -0.00216   0.00347   0.00131   2.03490
    A1        1.97207   0.00003   0.00799   0.00148   0.00896   1.98103
    A2        1.97198   0.00009   0.00860   0.00112   0.00932   1.98130
    A3        1.84436  -0.00007  -0.00963  -0.00151  -0.01105   1.83331
    A4        1.97198   0.00009   0.00860   0.00112   0.00932   1.98130
    A5        1.84434  -0.00007  -0.00964  -0.00148  -0.01104   1.83331
    A6        1.84431  -0.00010  -0.00964  -0.00141  -0.01101   1.83329
    A7        3.14123   0.00004  -0.00036   0.00104   0.00068   3.14190
    A8        3.14169   0.00000  -0.00005  -0.00007  -0.00012   3.14157
    D1       -2.26634  -0.00020  -0.02574  -0.00413  -0.03033  -2.29668
    D2        2.09447  -0.00003  -0.00047   0.00025  -0.00028   2.09419
    D3       -2.09436  -0.00002  -0.00024   0.00013  -0.00014  -2.09450
    D4        2.09435   0.00002   0.00023  -0.00012   0.00015   2.09450
         Item               Value     Threshold  Converged?
 Maximum Force            0.007509     0.000450     NO 
 RMS     Force            0.002433     0.000300     NO 
 Maximum Displacement     0.025837     0.001800     NO 
 RMS     Displacement     0.009187     0.001200     NO 
 Predicted change in Energy=-1.704634D-04
 GradGradGradGradGradGradGradGradGradGradGradGradGradGradGradGradGradGrad

                          Input orientation:                          
 ---------------------------------------------------------------------
 Center     Atomic      Atomic             Coordinates (Angstroms)
 Number     Number       Type             X           Y           Z
 ---------------------------------------------------------------------
      1          6           0       -3.897297    3.352966    0.000114
      2          1           0       -4.177165    2.469941   -0.551806
      3          1           0       -4.177095    4.272377   -0.488832
      4          1           0       -4.177072    3.316615    1.040824
      5          7           0       -2.367831    3.352909    0.000071
      6          7           0       -1.291006    3.352870   -0.000296
 ---------------------------------------------------------------------
                    Distance matrix (angstroms):
                    1          2          3          4          5
     1  C    0.000000
     2  H    1.078274   0.000000
     3  H    1.078273   1.803536   0.000000
     4  H    1.078273   1.803698   1.803699   0.000000
     5  N    1.529466   2.087556   2.087554   2.087544   0.000000
     6  N    2.606291   3.068166   3.068170   3.068326   1.076825
                    6
     6  N    0.000000
 Stoichiometry    CH3N2(1+)
 Framework group  C1[X(CH3N2)]
 Deg. of freedom    12
 Full point group                 C1      NOp   1
 Largest Abelian subgroup         C1      NOp   1
 Largest concise Abelian subgroup C1      NOp   1
                         Standard orientation:                         
 ---------------------------------------------------------------------
 Center     Atomic      Atomic             Coordinates (Angstroms)
 Number     Number       Type             X           Y           Z
 ---------------------------------------------------------------------
      1          6           0       -1.222211    0.000019   -0.000001
      2          1           0       -1.501973    0.518634   -0.903021
      3          1           0       -1.501978    0.522977    0.900509
      4          1           0       -1.502124   -1.041286    0.002504
      5          7           0        0.307255   -0.000142    0.000005
      6          7           0        1.384080    0.000080   -0.000003
 ---------------------------------------------------------------------
 Rotational constants (GHZ):    154.1452872      9.3471635      9.3470952
 Standard basis: 3-21G* (6D, 7F)
 There are    33 symmetry adapted cartesian basis functions of A   symmetry.
 There are    33 symmetry adapted basis functions of A   symmetry.
    33 basis functions,    54 primitive gaussians,    33 cartesian basis functions
    11 alpha electrons       11 beta electrons
       nuclear repulsion energy        65.7980042024 Hartrees.
 NAtoms=    6 NActive=    6 NUniq=    6 SFac= 1.00D+00 NAtFMM=   60 NAOKFM=F Big=F
 Integral buffers will be    131072 words long.
 Raffenetti 1 integral format.
 Two-electron integral symmetry is turned on.
 One-electron integrals computed using PRISM.
 NBasis=    33 RedAO= T EigKep=  8.54D-03  NBF=    33
 NBsUse=    33 1.00D-06 EigRej= -1.00D+00 NBFU=    33
 Initial guess from the checkpoint file:  "C:\Users\Robert\Desktop\cbs_linear_ch3n2.chk"
 B after Tr=     0.000000    0.000000    0.000000
         Rot=    0.713318   -0.700841    0.000010    0.000008 Ang= -88.99 deg.
 ExpMin= 1.83D-01 ExpMax= 2.43D+02 ExpMxC= 2.43D+02 IAcc=1 IRadAn=         1 AccDes= 0.00D+00
 Harris functional with IExCor=  205 and IRadAn=       1 diagonalized for initial guess.
 HarFok:  IExCor=  205 AccDes= 0.00D+00 IRadAn=         1 IDoV= 1 UseB2=F ITyADJ=14
 ICtDFT=  3500011 ScaDFX=  1.000000  1.000000  1.000000  1.000000
 FoFCou: FMM=F IPFlag=           0 FMFlag=      100000 FMFlg1=           0
         NFxFlg=           0 DoJE=T BraDBF=F KetDBF=T FulRan=T
         wScrn=  0.000000 ICntrl=     500 IOpCl=  0 I1Cent=   200000004 NGrid=           0
         NMat0=    1 NMatS0=      1 NMatT0=    0 NMatD0=    1 NMtDS0=    0 NMtDT0=    0
 Petite list used in FoFCou.
 Keep R1 ints in memory in canonical form, NReq=987546.
 Requested convergence on RMS density matrix=1.00D-08 within 128 cycles.
 Requested convergence on MAX density matrix=1.00D-06.
 Requested convergence on             energy=1.00D-06.
 No special actions if energy rises.
 SCF Done:  E(RHF) =  -147.367289831     A.U. after    9 cycles
            NFock=  9  Conv=0.99D-08     -V/T= 2.0034
 Calling FoFJK, ICntrl=      2127 FMM=F ISym2X=0 I1Cent= 0 IOpClX= 0 NMat=1 NMatS=1 NMatT=0.
 ***** Axes restored to original set *****
 -------------------------------------------------------------------
 Center     Atomic                   Forces (Hartrees/Bohr)
 Number     Number              X              Y              Z
 -------------------------------------------------------------------
      1        6          -0.001800052    0.000000280   -0.000003840
      2        1          -0.000180230   -0.000159274   -0.000079893
      3        1          -0.000180783    0.000164831   -0.000068581
      4        1          -0.000193015   -0.000005699    0.000168117
      5        7          -0.002121864    0.000000044   -0.000029671
      6        7           0.004475944   -0.000000182    0.000013868
 -------------------------------------------------------------------
 Cartesian Forces:  Max     0.004475944 RMS     0.001246595

 GradGradGradGradGradGradGradGradGradGradGradGradGradGradGradGradGradGrad
 Berny optimization.
 Using GEDIIS/GDIIS optimizer.
 FormGI is forming the generalized inverse of G from B-inverse, IUseBI=4.
 Internal  Forces:  Max     0.004475939 RMS     0.001231320
 Search for a local minimum.
 Step number   4 out of a maximum of   27
 All quantities printed in internal units (Hartrees-Bohrs-Radians)
 Mixed Optimization -- RFO/linear search
 Update second derivatives using D2CorX and points    1    2    3    4
 DE= -2.19D-04 DEPred=-1.70D-04 R= 1.28D+00
 TightC=F SS=  1.41D+00  RLast= 5.87D-02 DXNew= 5.9369D-01 1.7621D-01
 Trust test= 1.28D+00 RLast= 5.87D-02 DXMaxT set to 3.53D-01
 The second derivative matrix:
                          R1        R2        R3        R4        R5
           R1           0.34745
           R2           0.00041   0.34745
           R3           0.00041   0.00041   0.34744
           R4           0.00623   0.00625   0.00603   0.18361
           R5           0.00690   0.00692   0.00641   0.03234   1.73606
           A1          -0.00127  -0.00126  -0.00130  -0.01956  -0.03138
           A2          -0.00049  -0.00049  -0.00041  -0.02930  -0.03081
           A3           0.00093   0.00093   0.00090   0.02937   0.03516
           A4          -0.00049  -0.00049  -0.00041  -0.02933  -0.03080
           A5           0.00093   0.00093   0.00090   0.02940   0.03524
           A6           0.00048   0.00048   0.00040   0.03375   0.03363
           A7          -0.00009  -0.00009  -0.00010   0.00113   0.00021
           A8           0.00000   0.00000   0.00000   0.00007   0.00004
           D1          -0.00385  -0.00383  -0.00430   0.03642  -0.01751
           D2          -0.00063  -0.00063  -0.00071   0.00612  -0.00242
           D3          -0.00032  -0.00032  -0.00036   0.00307  -0.00122
           D4           0.00031   0.00031   0.00035  -0.00305   0.00119
                          A1        A2        A3        A4        A5
           A1           0.14587
           A2          -0.01208   0.15242
           A3           0.01521   0.01154   0.14440
           A4          -0.01208  -0.00758   0.01154   0.15243
           A5           0.01522   0.01153  -0.01560   0.01153   0.14439
           A6           0.01363   0.00883  -0.01318   0.00883  -0.01317
           A7           0.00016   0.00000  -0.00009   0.00000  -0.00009
           A8           0.00001   0.00000  -0.00001   0.00000  -0.00001
           D1          -0.01105  -0.01934   0.01713  -0.01936   0.01721
           D2          -0.00201  -0.00345   0.00308  -0.00345   0.00309
           D3          -0.00100  -0.00173   0.00154  -0.00173   0.00155
           D4           0.00100   0.00172  -0.00154   0.00173  -0.00154
                          A6        A7        A8        D1        D2
           A6           0.14974
           A7          -0.00001   0.05019
           A8          -0.00001   0.00000   0.05017
           D1           0.02080   0.00066   0.00002   0.02931
           D2           0.00371   0.00011   0.00000   0.00467   0.00990
           D3           0.00186   0.00006   0.00000   0.00234   0.00041
           D4          -0.00186  -0.00006   0.00000  -0.00233  -0.00040
                          D3        D4
           D3           0.00930
           D4          -0.00020   0.00930
 ITU=  1  1  1  0
 Use linear search instead of GDIIS.
     Eigenvalues ---    0.04913   0.05017   0.05020   0.06932   0.07248
     Eigenvalues ---    0.15774   0.16000   0.22761   0.34703   0.34704
     Eigenvalues ---    0.34883   1.73780
 RFO step:  Lambda=-8.71749361D-06 EMin= 4.91301243D-02
 Quartic linear search produced a step of  0.45156.
 Iteration  1 RMS(Cart)=  0.00451925 RMS(Int)=  0.00005208
 Iteration  2 RMS(Cart)=  0.00000806 RMS(Int)=  0.00005141
 Iteration  3 RMS(Cart)=  0.00000000 RMS(Int)=  0.00005141
 Variable       Old X    -DE/DX   Delta X   Delta X   Delta X     New X
                                 (Linear)    (Quad)   (Total)
    R1        2.03764   0.00022  -0.00086   0.00099   0.00013   2.03777
    R2        2.03764   0.00022  -0.00086   0.00099   0.00013   2.03777
    R3        2.03764   0.00021  -0.00089   0.00100   0.00011   2.03775
    R4        2.89027   0.00235   0.01967  -0.00037   0.01930   2.90957
    R5        2.03490   0.00448   0.00059   0.00196   0.00255   2.03745
    A1        1.98103  -0.00001   0.00405  -0.00020   0.00372   1.98475
    A2        1.98130  -0.00008   0.00421  -0.00082   0.00329   1.98459
    A3        1.83331   0.00005  -0.00499   0.00070  -0.00427   1.82904
    A4        1.98130  -0.00008   0.00421  -0.00082   0.00329   1.98460
    A5        1.83331   0.00006  -0.00498   0.00070  -0.00426   1.82904
    A6        1.83329   0.00009  -0.00497   0.00085  -0.00412   1.82918
    A7        3.14190  -0.00003   0.00030  -0.00119  -0.00089   3.14102
    A8        3.14157   0.00000  -0.00005   0.00002  -0.00003   3.14154
    D1       -2.29668   0.00017  -0.01370   0.00189  -0.01192  -2.30859
    D2        2.09419   0.00003  -0.00013   0.00042   0.00028   2.09447
    D3       -2.09450   0.00002  -0.00006   0.00021   0.00014  -2.09436
    D4        2.09450  -0.00002   0.00007  -0.00021  -0.00014   2.09436
         Item               Value     Threshold  Converged?
 Maximum Force            0.004476     0.000450     NO 
 RMS     Force            0.001231     0.000300     NO 
 Maximum Displacement     0.010993     0.001800     NO 
 RMS     Displacement     0.004519     0.001200     NO 
 Predicted change in Energy=-2.375239D-05
 GradGradGradGradGradGradGradGradGradGradGradGradGradGradGradGradGradGrad

                          Input orientation:                          
 ---------------------------------------------------------------------
 Center     Atomic      Atomic             Coordinates (Angstroms)
 Number     Number       Type             X           Y           Z
 ---------------------------------------------------------------------
      1          6           0       -3.903114    3.352970    0.000041
      2          1           0       -4.178658    2.468804   -0.552362
      3          1           0       -4.178599    4.273550   -0.489307
      4          1           0       -4.178392    3.316574    1.042008
      5          7           0       -2.363437    3.352929   -0.000331
      6          7           0       -1.285265    3.352852    0.000027
 ---------------------------------------------------------------------
                    Distance matrix (angstroms):
                    1          2          3          4          5
     1  C    0.000000
     2  H    1.078343   0.000000
     3  H    1.078342   1.805848   0.000000
     4  H    1.078331   1.805749   1.805749   0.000000
     5  N    1.539677   2.093190   2.093193   2.093288   0.000000
     6  N    2.617849   3.075451   3.075470   3.075260   1.078172
                    6
     6  N    0.000000
 Stoichiometry    CH3N2(1+)
 Framework group  C1[X(CH3N2)]
 Deg. of freedom    12
 Full point group                 C1      NOp   1
 Largest Abelian subgroup         C1      NOp   1
 Largest concise Abelian subgroup C1      NOp   1
                         Standard orientation:                         
 ---------------------------------------------------------------------
 Center     Atomic      Atomic             Coordinates (Angstroms)
 Number     Number       Type             X           Y           Z
 ---------------------------------------------------------------------
      1          6           0       -1.229408   -0.000003    0.000064
      2          1           0       -1.504894   -0.902160   -0.522471
      3          1           0       -1.504915    0.903686   -0.519805
      4          1           0       -1.504721   -0.001546    1.042656
      5          7           0        0.310270    0.000011   -0.000253
      6          7           0        1.388441   -0.000006    0.000144
 ---------------------------------------------------------------------
 Rotational constants (GHZ):    153.7805115      9.2725698      9.2725292
 Standard basis: 3-21G* (6D, 7F)
 There are    33 symmetry adapted cartesian basis functions of A   symmetry.
 There are    33 symmetry adapted basis functions of A   symmetry.
    33 basis functions,    54 primitive gaussians,    33 cartesian basis functions
    11 alpha electrons       11 beta electrons
       nuclear repulsion energy        65.6094497030 Hartrees.
 NAtoms=    6 NActive=    6 NUniq=    6 SFac= 1.00D+00 NAtFMM=   60 NAOKFM=F Big=F
 Integral buffers will be    131072 words long.
 Raffenetti 1 integral format.
 Two-electron integral symmetry is turned on.
 One-electron integrals computed using PRISM.
 NBasis=    33 RedAO= T EigKep=  8.65D-03  NBF=    33
 NBsUse=    33 1.00D-06 EigRej= -1.00D+00 NBFU=    33
 Initial guess from the checkpoint file:  "C:\Users\Robert\Desktop\cbs_linear_ch3n2.chk"
 B after Tr=     0.000000    0.000000    0.000000
         Rot=    0.708479    0.705732   -0.000007   -0.000008 Ang=  89.78 deg.
 Keep R1 ints in memory in canonical form, NReq=987546.
 Requested convergence on RMS density matrix=1.00D-08 within 128 cycles.
 Requested convergence on MAX density matrix=1.00D-06.
 Requested convergence on             energy=1.00D-06.
 No special actions if energy rises.
 SCF Done:  E(RHF) =  -147.367316337     A.U. after   10 cycles
            NFock= 10  Conv=0.27D-08     -V/T= 2.0035
 Calling FoFJK, ICntrl=      2127 FMM=F ISym2X=0 I1Cent= 0 IOpClX= 0 NMat=1 NMatS=1 NMatT=0.
 ***** Axes restored to original set *****
 -------------------------------------------------------------------
 Center     Atomic                   Forces (Hartrees/Bohr)
 Number     Number              X              Y              Z
 -------------------------------------------------------------------
      1        6           0.000202734    0.000001748   -0.000037345
      2        1          -0.000148392    0.000046987    0.000016935
      3        1          -0.000148416   -0.000047855    0.000013631
      4        1          -0.000124234    0.000001137   -0.000029463
      5        7           0.000317124   -0.000004127    0.000064490
      6        7          -0.000098816    0.000002110   -0.000028248
 -------------------------------------------------------------------
 Cartesian Forces:  Max     0.000317124 RMS     0.000111338

 GradGradGradGradGradGradGradGradGradGradGradGradGradGradGradGradGradGrad
 Berny optimization.
 Using GEDIIS/GDIIS optimizer.
 FormGI is forming the generalized inverse of G from B-inverse, IUseBI=4.
 Internal  Forces:  Max     0.000218300 RMS     0.000085964
 Search for a local minimum.
 Step number   5 out of a maximum of   27
 All quantities printed in internal units (Hartrees-Bohrs-Radians)
 Mixed Optimization -- En-DIIS/RFO-DIIS
 Update second derivatives using D2CorX and points    1    2    3    4    5
 DE= -2.65D-05 DEPred=-2.38D-05 R= 1.12D+00
 TightC=F SS=  1.41D+00  RLast= 2.47D-02 DXNew= 5.9369D-01 7.4134D-02
 Trust test= 1.12D+00 RLast= 2.47D-02 DXMaxT set to 3.53D-01
 The second derivative matrix:
                          R1        R2        R3        R4        R5
           R1           0.34713
           R2           0.00009   0.34712
           R3           0.00007   0.00007   0.34708
           R4           0.00628   0.00629   0.00558   0.16461
           R5           0.00198   0.00197   0.00086   0.01970   1.66781
           A1           0.00000   0.00000  -0.00009  -0.01802  -0.00587
           A2           0.00088   0.00088   0.00091  -0.02698  -0.00371
           A3          -0.00055  -0.00056  -0.00052   0.02661   0.00534
           A4           0.00088   0.00088   0.00092  -0.02700  -0.00369
           A5          -0.00055  -0.00056  -0.00052   0.02665   0.00539
           A6          -0.00084  -0.00084  -0.00089   0.03376   0.00832
           A7          -0.00022  -0.00022  -0.00020  -0.00131  -0.00288
           A8           0.00000   0.00000   0.00000   0.00005  -0.00004
           D1          -0.00353  -0.00351  -0.00399   0.04079  -0.00607
           D2          -0.00056  -0.00055  -0.00064   0.00723   0.00006
           D3          -0.00028  -0.00028  -0.00032   0.00362   0.00003
           D4           0.00028   0.00028   0.00032  -0.00361  -0.00003
                          A1        A2        A3        A4        A5
           A1           0.14495
           A2          -0.01302   0.15162
           A3           0.01621   0.01247   0.14338
           A4          -0.01302  -0.00837   0.01246   0.15164
           A5           0.01622   0.01246  -0.01663   0.01246   0.14336
           A6           0.01469   0.00973  -0.01424   0.00973  -0.01424
           A7           0.00006  -0.00014   0.00006  -0.00014   0.00006
           A8           0.00001   0.00000  -0.00001   0.00000  -0.00001
           D1          -0.01142  -0.02046   0.01798  -0.02048   0.01807
           D2          -0.00205  -0.00362   0.00320  -0.00362   0.00321
           D3          -0.00103  -0.00181   0.00160  -0.00181   0.00161
           D4           0.00102   0.00181  -0.00160   0.00181  -0.00160
                          A6        A7        A8        D1        D2
           A6           0.14873
           A7           0.00007   0.05031
           A8          -0.00001   0.00000   0.05017
           D1           0.02182   0.00085   0.00002   0.03139
           D2           0.00387   0.00013   0.00000   0.00502   0.00996
           D3           0.00194   0.00007   0.00000   0.00252   0.00044
           D4          -0.00193  -0.00007   0.00000  -0.00251  -0.00043
                          D3        D4
           D3           0.00931
           D4          -0.00022   0.00931
 ITU=  1  1  1  1  0
 Use linear search instead of GDIIS.
     Eigenvalues ---    0.04534   0.05017   0.05055   0.06973   0.07175
     Eigenvalues ---    0.15644   0.16000   0.21695   0.34703   0.34704
     Eigenvalues ---    0.34789   1.66810
 RFO step:  Lambda=-7.51440358D-07 EMin= 4.53417359D-02
 Quartic linear search produced a step of  0.00236.
 Iteration  1 RMS(Cart)=  0.00055617 RMS(Int)=  0.00000046
 Iteration  2 RMS(Cart)=  0.00000029 RMS(Int)=  0.00000034
 Variable       Old X    -DE/DX   Delta X   Delta X   Delta X     New X
                                 (Linear)    (Quad)   (Total)
    R1        2.03777  -0.00001   0.00000  -0.00001   0.00000   2.03777
    R2        2.03777  -0.00001   0.00000   0.00000   0.00000   2.03777
    R3        2.03775   0.00000   0.00000   0.00003   0.00003   2.03778
    R4        2.90957   0.00022   0.00005   0.00023   0.00028   2.90984
    R5        2.03745  -0.00010   0.00001  -0.00007  -0.00007   2.03738
    A1        1.98475  -0.00004   0.00001  -0.00068  -0.00067   1.98407
    A2        1.98459  -0.00007   0.00001  -0.00049  -0.00049   1.98411
    A3        1.82904   0.00008  -0.00001   0.00079   0.00078   1.82982
    A4        1.98460  -0.00007   0.00001  -0.00050  -0.00049   1.98411
    A5        1.82904   0.00008  -0.00001   0.00079   0.00078   1.82982
    A6        1.82918   0.00005  -0.00001   0.00048   0.00047   1.82965
    A7        3.14102   0.00006   0.00000   0.00111   0.00111   3.14213
    A8        3.14154   0.00000   0.00000   0.00002   0.00002   3.14156
    D1       -2.30859   0.00019  -0.00003   0.00199   0.00196  -2.30663
    D2        2.09447   0.00003   0.00000  -0.00005  -0.00004   2.09442
    D3       -2.09436   0.00001   0.00000  -0.00002  -0.00002  -2.09438
    D4        2.09436  -0.00001   0.00000   0.00002   0.00002   2.09438
         Item               Value     Threshold  Converged?
 Maximum Force            0.000218     0.000450     YES
 RMS     Force            0.000086     0.000300     YES
 Maximum Displacement     0.000956     0.001800     YES
 RMS     Displacement     0.000556     0.001200     YES
 Predicted change in Energy=-3.760103D-07
 Optimization completed.
    -- Stationary point found.
                           ----------------------------
                           !   Optimized Parameters   !
                           ! (Angstroms and Degrees)  !
 --------------------------                            --------------------------
 ! Name  Definition              Value          Derivative Info.                !
 --------------------------------------------------------------------------------
 ! R1    R(1,2)                  1.0783         -DE/DX =    0.0                 !
 ! R2    R(1,3)                  1.0783         -DE/DX =    0.0                 !
 ! R3    R(1,4)                  1.0783         -DE/DX =    0.0                 !
 ! R4    R(1,5)                  1.5397         -DE/DX =    0.0002              !
 ! R5    R(5,6)                  1.0782         -DE/DX =   -0.0001              !
 ! A1    A(2,1,3)              113.7176         -DE/DX =    0.0                 !
 ! A2    A(2,1,4)              113.7089         -DE/DX =   -0.0001              !
 ! A3    A(2,1,5)              104.7961         -DE/DX =    0.0001              !
 ! A4    A(3,1,4)              113.7089         -DE/DX =   -0.0001              !
 ! A5    A(3,1,5)              104.7964         -DE/DX =    0.0001              !
 ! A6    A(4,1,5)              104.804          -DE/DX =    0.0001              !
 ! A7    L(1,5,6,4,-1)         179.9671         -DE/DX =    0.0001              !
 ! A8    L(1,5,6,4,-2)         179.9972         -DE/DX =    0.0                 !
 ! D1    D(2,1,4,3)           -132.2726         -DE/DX =    0.0002              !
 ! D2    D(2,1,5,3)            120.0042         -DE/DX =    0.0                 !
 ! D3    D(2,1,5,4)           -119.9978         -DE/DX =    0.0                 !
 ! D4    D(3,1,5,4)            119.998          -DE/DX =    0.0                 !
 --------------------------------------------------------------------------------
 GradGradGradGradGradGradGradGradGradGradGradGradGradGradGradGradGradGrad

                          Input orientation:                          
 ---------------------------------------------------------------------
 Center     Atomic      Atomic             Coordinates (Angstroms)
 Number     Number       Type             X           Y           Z
 ---------------------------------------------------------------------
      1          6           0       -3.903114    3.352970    0.000041
      2          1           0       -4.178658    2.468804   -0.552362
      3          1           0       -4.178599    4.273550   -0.489307
      4          1           0       -4.178392    3.316574    1.042008
      5          7           0       -2.363437    3.352929   -0.000331
      6          7           0       -1.285265    3.352852    0.000027
 ---------------------------------------------------------------------
                    Distance matrix (angstroms):
                    1          2          3          4          5
     1  C    0.000000
     2  H    1.078343   0.000000
     3  H    1.078342   1.805848   0.000000
     4  H    1.078331   1.805749   1.805749   0.000000
     5  N    1.539677   2.093190   2.093193   2.093288   0.000000
     6  N    2.617849   3.075451   3.075470   3.075260   1.078172
                    6
     6  N    0.000000
 Stoichiometry    CH3N2(1+)
 Framework group  C1[X(CH3N2)]
 Deg. of freedom    12
 Full point group                 C1      NOp   1
 Largest Abelian subgroup         C1      NOp   1
 Largest concise Abelian subgroup C1      NOp   1
                         Standard orientation:                         
 ---------------------------------------------------------------------
 Center     Atomic      Atomic             Coordinates (Angstroms)
 Number     Number       Type             X           Y           Z
 ---------------------------------------------------------------------
      1          6           0       -1.229408   -0.000003    0.000064
      2          1           0       -1.504894   -0.902160   -0.522471
      3          1           0       -1.504915    0.903686   -0.519805
      4          1           0       -1.504721   -0.001546    1.042656
      5          7           0        0.310270    0.000011   -0.000253
      6          7           0        1.388441   -0.000006    0.000144
 ---------------------------------------------------------------------
 Rotational constants (GHZ):    153.7805115      9.2725698      9.2725292

 **********************************************************************

            Population analysis using the SCF density.

 **********************************************************************

 Orbital symmetries:
       Occupied  (A) (A) (A) (A) (A) (A) (A) (A) (A) (A) (A)
       Virtual   (A) (A) (A) (A) (A) (A) (A) (A) (A) (A) (A) (A)
                 (A) (A) (A) (A) (A) (A) (A) (A) (A) (A)
 The electronic state is 1-A.
 Alpha  occ. eigenvalues --  -15.96177 -15.95636 -11.51966  -1.83900  -1.34757
 Alpha  occ. eigenvalues --   -1.05164  -0.96931  -0.96931  -0.94707  -0.84475
 Alpha  occ. eigenvalues --   -0.84474
 Alpha virt. eigenvalues --   -0.12445  -0.12445   0.00461   0.05537   0.10848
 Alpha virt. eigenvalues --    0.10848   0.43322   0.68163   0.68166   0.71881
 Alpha virt. eigenvalues --    1.00108   1.00206   1.00206   1.05666   1.05667
 Alpha virt. eigenvalues --    1.13256   1.20917   1.20917   1.42035   1.62501
 Alpha virt. eigenvalues --    2.10181   2.41141
          Condensed to atoms (all electrons):
               1          2          3          4          5          6
     1  C    5.408789   0.346593   0.346593   0.346592  -0.068636  -0.012270
     2  H    0.346593   0.327990  -0.014126  -0.014137  -0.018877  -0.000515
     3  H    0.346593  -0.014126   0.327989  -0.014136  -0.018877  -0.000515
     4  H    0.346592  -0.014137  -0.014136   0.327995  -0.018873  -0.000518
     5  N   -0.068636  -0.018877  -0.018877  -0.018873   6.687056   0.462698
     6  N   -0.012270  -0.000515  -0.000515  -0.000518   0.462698   6.278191
 Mulliken charges:
               1
     1  C   -0.367660
     2  H    0.373073
     3  H    0.373073
     4  H    0.373077
     5  N   -0.024491
     6  N    0.272928
 Sum of Mulliken charges =   1.00000
 Mulliken charges with hydrogens summed into heavy atoms:
               1
     1  C    0.751562
     5  N   -0.024491
     6  N    0.272928
 Electronic spatial extent (au):  <R**2>=            147.7800
 Charge=              1.0000 electrons
 Dipole moment (field-independent basis, Debye):
    X=             -2.1074    Y=              0.0000    Z=              0.0004  Tot=              2.1074
 Quadrupole moment (field-independent basis, Debye-Ang):
   XX=             -9.2788   YY=            -14.7922   ZZ=            -14.7927
   XY=              0.0000   XZ=             -0.0008   YZ=              0.0000
 Traceless Quadrupole moment (field-independent basis, Debye-Ang):
   XX=              3.6757   YY=             -1.8376   ZZ=             -1.8381
   XY=              0.0000   XZ=             -0.0008   YZ=              0.0000
 Octapole moment (field-independent basis, Debye-Ang**2):
  XXX=             -7.3562  YYY=              0.0060  ZZZ=              1.3601  XYY=             -1.1599
  XXY=              0.0000  XXZ=              0.0005  XZZ=             -1.1589  YZZ=             -0.0060
  YYZ=             -1.3590  XYZ=              0.0000
 Hexadecapole moment (field-independent basis, Debye-Ang**3):
 XXXX=           -126.7924 YYYY=            -16.6769 ZZZZ=            -16.6764 XXXY=              0.0000
 XXXZ=             -0.0027 YYYX=             -0.0094 YYYZ=              0.0000 ZZZX=             -2.1343
 ZZZY=              0.0000 XXYY=            -22.3379 XXZZ=            -22.3398 YYZZ=             -5.5594
 XXYZ=              0.0000 YYXZ=              2.1334 ZZXY=              0.0095
 N-N= 6.560944970305D+01 E-N=-4.683079371878D+02  KE= 1.468567812992D+02
 1|1|UNPC-KING|FOpt|RHF|3-21G*|C1H3N2(1+)|ROBERT|24-Oct-2016|0||# cbs-4
 m geom=connectivity||Title Card Required||1,1|C,-3.9031139433,3.352969
 8004,0.0000407892|H,-4.1786580869,2.4688037225,-0.5523619723|H,-4.1785
 991211,4.2735503285,-0.4893072165|H,-4.1783916636,3.3165736732,1.04200
 77175|N,-2.363436762,3.3529286924,-0.0003311258|N,-1.2852649231,3.3528
 515629,0.000026808||Version=EM64W-G09RevD.01|State=1-A|HF=-147.3673163
 |RMSD=2.657e-009|RMSF=1.113e-004|Dipole=-0.8291309,0.0000238,0.0001935
 |Quadrupole=2.7328255,-1.3662464,-1.366579,-0.00014,-0.0007631,0.00001
 09|PG=C01 [X(C1H3N2)]||@


 THE MORE POWERFUL THE METHOD, THE MORE CATASTROPHIC THE ERRORS.
     -- M.D. KAMEN
 Job cpu time:       0 days  0 hours  0 minutes  6.0 seconds.
 File lengths (MBytes):  RWF=      5 Int=      0 D2E=      0 Chk=      1 Scr=      1
 Normal termination of Gaussian 09 at Mon Oct 24 13:30:59 2016.
 Link1:  Proceeding to internal job step number  2.
 -------------------------------------------------------
 #N Geom=AllCheck Guess=TCheck SCRF=Check HF/3-21G* Freq
 -------------------------------------------------------
 1/10=4,29=7,30=1,38=1,40=1/1,3;
 2/12=2,40=1/2;
 3/5=5,7=1,11=9,14=-4,16=1,25=1,30=1,70=2,71=2,116=-2,140=1/1,2,3;
 4/5=101/1;
 5/5=2,98=1/2;
 8/6=4,10=90,11=11/1;
 10/13=10,15=4/2;
 11/6=3,8=1,9=11,15=111,16=1/1,2,10;
 10/6=1/2;
 6/7=2,8=2,9=2,10=2,18=1,28=1/1;
 7/8=1,10=1,25=1/1,2,3,16;
 1/10=4,30=1/3;
 99//99;
 Structure from the checkpoint file:  "C:\Users\Robert\Desktop\cbs_linear_ch3n2.chk"
 -------------------
 Title Card Required
 -------------------
 Charge =  1 Multiplicity = 1
 Redundant internal coordinates found in file.
 C,0,-3.9031139433,3.3529698004,0.0000407892
 H,0,-4.1786580869,2.4688037225,-0.5523619723
 H,0,-4.1785991211,4.2735503285,-0.4893072165
 H,0,-4.1783916636,3.3165736732,1.0420077175
 N,0,-2.363436762,3.3529286924,-0.0003311258
 N,0,-1.2852649231,3.3528515629,0.000026808
 Recover connectivity data from disk.

 GradGradGradGradGradGradGradGradGradGradGradGradGradGradGradGradGradGrad
 Berny optimization.
 Initialization pass.
                           ----------------------------
                           !    Initial Parameters    !
                           ! (Angstroms and Degrees)  !
 --------------------------                            --------------------------
 ! Name  Definition              Value          Derivative Info.                !
 --------------------------------------------------------------------------------
 ! R1    R(1,2)                  1.0783         calculate D2E/DX2 analytically  !
 ! R2    R(1,3)                  1.0783         calculate D2E/DX2 analytically  !
 ! R3    R(1,4)                  1.0783         calculate D2E/DX2 analytically  !
 ! R4    R(1,5)                  1.5397         calculate D2E/DX2 analytically  !
 ! R5    R(5,6)                  1.0782         calculate D2E/DX2 analytically  !
 ! A1    A(2,1,3)              113.7176         calculate D2E/DX2 analytically  !
 ! A2    A(2,1,4)              113.7089         calculate D2E/DX2 analytically  !
 ! A3    A(2,1,5)              104.7961         calculate D2E/DX2 analytically  !
 ! A4    A(3,1,4)              113.7089         calculate D2E/DX2 analytically  !
 ! A5    A(3,1,5)              104.7964         calculate D2E/DX2 analytically  !
 ! A6    A(4,1,5)              104.804          calculate D2E/DX2 analytically  !
 ! A7    L(1,5,6,4,-1)         179.9671         calculate D2E/DX2 analytically  !
 ! A8    L(1,5,6,4,-2)         179.9972         calculate D2E/DX2 analytically  !
 ! D1    D(2,1,4,3)           -132.2726         calculate D2E/DX2 analytically  !
 ! D2    D(2,1,5,3)            120.0042         calculate D2E/DX2 analytically  !
 ! D3    D(2,1,5,4)           -119.9978         calculate D2E/DX2 analytically  !
 ! D4    D(3,1,5,4)            119.998          calculate D2E/DX2 analytically  !
 --------------------------------------------------------------------------------
 Trust Radius=3.00D-01 FncErr=1.00D-07 GrdErr=1.00D-07
 Number of steps in this run=      2 maximum allowed number of steps=      2.
 GradGradGradGradGradGradGradGradGradGradGradGradGradGradGradGradGradGrad

                          Input orientation:                          
 ---------------------------------------------------------------------
 Center     Atomic      Atomic             Coordinates (Angstroms)
 Number     Number       Type             X           Y           Z
 ---------------------------------------------------------------------
      1          6           0       -3.903114    3.352970    0.000041
      2          1           0       -4.178658    2.468804   -0.552362
      3          1           0       -4.178599    4.273550   -0.489307
      4          1           0       -4.178392    3.316574    1.042008
      5          7           0       -2.363437    3.352929   -0.000331
      6          7           0       -1.285265    3.352852    0.000027
 ---------------------------------------------------------------------
                    Distance matrix (angstroms):
                    1          2          3          4          5
     1  C    0.000000
     2  H    1.078343   0.000000
     3  H    1.078342   1.805848   0.000000
     4  H    1.078331   1.805749   1.805749   0.000000
     5  N    1.539677   2.093190   2.093193   2.093288   0.000000
     6  N    2.617849   3.075451   3.075470   3.075260   1.078172
                    6
     6  N    0.000000
 Stoichiometry    CH3N2(1+)
 Framework group  C1[X(CH3N2)]
 Deg. of freedom    12
 Full point group                 C1      NOp   1
 Largest Abelian subgroup         C1      NOp   1
 Largest concise Abelian subgroup C1      NOp   1
                         Standard orientation:                         
 ---------------------------------------------------------------------
 Center     Atomic      Atomic             Coordinates (Angstroms)
 Number     Number       Type             X           Y           Z
 ---------------------------------------------------------------------
      1          6           0       -1.229408   -0.000003    0.000064
      2          1           0       -1.504894   -0.902160   -0.522471
      3          1           0       -1.504915    0.903686   -0.519805
      4          1           0       -1.504721   -0.001546    1.042656
      5          7           0        0.310270    0.000011   -0.000253
      6          7           0        1.388441   -0.000006    0.000144
 ---------------------------------------------------------------------
 Rotational constants (GHZ):    153.7805115      9.2725698      9.2725292
 Standard basis: 3-21G* (6D, 7F)
[...]
 Alpha  occ. eigenvalues --  -16.02053 -16.00974 -11.57736  -1.79880  -1.34651
 Alpha  occ. eigenvalues --   -1.05182  -0.95680  -0.95680  -0.94387  -0.84447
 Alpha  occ. eigenvalues --   -0.84446
 Alpha virt. eigenvalues --   -0.12227  -0.12226  -0.10824  -0.06641  -0.05478
 Alpha virt. eigenvalues --   -0.05478  -0.00775   0.02228   0.02228   0.03092
 Alpha virt. eigenvalues --    0.10002   0.10594   0.10600   0.11105   0.11781
 Alpha virt. eigenvalues --    0.11786   0.19789   0.31495   0.45607   0.59403
 Alpha virt. eigenvalues --    0.59406   0.67178   0.76620   0.76625   0.83753
 Alpha virt. eigenvalues --    0.83753   0.88580   0.88582   0.92650   1.00476
 Alpha virt. eigenvalues --    1.01713   1.13040   1.13041   1.22503   1.41997
 Alpha virt. eigenvalues --    1.48643   1.57027   1.57029   1.61415   1.63930
 Alpha virt. eigenvalues --    1.63933   1.82363   1.82366   1.84900   1.99303
 Alpha virt. eigenvalues --    2.02659   2.02673   2.18611   2.18634   2.31767
 Alpha virt. eigenvalues --    2.31774   2.65519   2.71656   2.71662   2.91495
 Alpha virt. eigenvalues --    3.08259   3.08259   3.50896   3.69194   4.42530
 Alpha virt. eigenvalues --    4.73242
          Condensed to atoms (all electrons):
               1          2          3          4          5          6
     1  C    4.915963   0.426722   0.426722   0.426702   0.176878  -0.139238
     2  H    0.426722   0.415561  -0.011328  -0.011340  -0.012123  -0.028215
     3  H    0.426722  -0.011328   0.415562  -0.011340  -0.012118  -0.028221
     4  H    0.426702  -0.011340  -0.011340   0.415512  -0.012240  -0.028058
     5  N    0.176878  -0.012123  -0.012118  -0.012240   6.193634   0.694785
     6  N   -0.139238  -0.028215  -0.028221  -0.028058   0.694785   5.928592
 Mulliken charges:
               1
     1  C   -0.233749
     2  H    0.220724
     3  H    0.220723
     4  H    0.220763
     5  N   -0.028816
     6  N    0.600355
 Sum of Mulliken charges =   1.00000
 Mulliken charges with hydrogens summed into heavy atoms:
               1
     1  C    0.428461
     5  N   -0.028816
     6  N    0.600355
 Electronic spatial extent (au):  <R**2>=            146.8930
 Charge=              1.0000 electrons
 Dipole moment (field-independent basis, Debye):
    X=             -2.2227    Y=              0.0000    Z=              0.0002  Tot=              2.2227
 Quadrupole moment (field-independent basis, Debye-Ang):
   XX=             -8.7882   YY=            -14.4410   ZZ=            -14.4414
   XY=              0.0000   XZ=             -0.0006   YZ=              0.0000
 Traceless Quadrupole moment (field-independent basis, Debye-Ang):
   XX=              3.7687   YY=             -1.8841   ZZ=             -1.8845
   XY=              0.0000   XZ=             -0.0006   YZ=              0.0000
 Octapole moment (field-independent basis, Debye-Ang**2):
  XXX=             -6.7785  YYY=              0.0057  ZZZ=              1.2978  XYY=             -1.4077
  XXY=              0.0000  XXZ=              0.0007  XZZ=             -1.4068  YZZ=             -0.0058
  YYZ=             -1.2970  XYZ=              0.0000
 Hexadecapole moment (field-independent basis, Debye-Ang**3):
 XXXX=           -125.2838 YYYY=            -16.7520 ZZZZ=            -16.7512 XXXY=              0.0000
 XXXZ=             -0.0023 YYYX=             -0.0092 YYYZ=              0.0000 ZZZX=             -2.0760
 ZZZY=              0.0000 XXYY=            -22.4140 XXZZ=            -22.4156 YYZZ=             -5.5844
 XXYZ=              0.0000 YYXZ=              2.0751 ZZXY=              0.0092
 N-N= 6.560944970305D+01 E-N=-4.707638333038D+02  KE= 1.478001596536D+02
 1|1|UNPC-KING|SP|RMP2-FC|6-31+(d',p')|C1H3N2(1+)|ROBERT|24-Oct-2016|0|
 |#N Geom=AllCheck Guess=TCheck SCRF=Check MP2/6-31+D** CBSExtrap=(NMin
 =5,MinPop)||Title Card Required||1,1|C,0,-3.9031139433,3.3529698004,0.
 0000407892|H,0,-4.1786580869,2.4688037225,-0.5523619723|H,0,-4.1785991
 211,4.2735503285,-0.4893072165|H,0,-4.1783916636,3.3165736732,1.042007
 7175|N,0,-2.363436762,3.3529286924,-0.0003311258|N,0,-1.2852649231,3.3
 528515629,0.000026808||Version=EM64W-G09RevD.01|State=1-A|HF=-148.2235
 434|MP2=-148.6765317|E2(CBS)=-0.5607737|CBS-Int=-0.531035|OIii=4.84285
 66|RMSD=9.295e-009|PG=C01 [X(C1H3N2)]||@


 SI MONUMENTUM REQUIRIS, CIRCUMSPICE
     -- FROM SIR CHRISTOPHER WREN'S TOMBSTONE
 Job cpu time:       0 days  0 hours  0 minutes  4.0 seconds.
 File lengths (MBytes):  RWF=     42 Int=      0 D2E=      0 Chk=      1 Scr=      1
 Normal termination of Gaussian 09 at Mon Oct 24 13:31:08 2016.
 Link1:  Proceeding to internal job step number  5.
 -----------------------------------------------------------
 #N Geom=AllCheck Guess=TCheck SCRF=Check HF/CBSB1 SCF=Tight
 -----------------------------------------------------------
 1/29=7,38=1,40=1/1;
 2/12=2,40=1/2;
 3/5=10,11=9,14=-4,16=1,25=1,30=1,70=2,116=-2/1,2,3;
 4/5=101/1;
 5/5=2,32=2/2;
 6/7=2,8=2,9=2,10=2,28=1/1;
 99/5=1,9=1/99;
 Structure from the checkpoint file:  "C:\Users\Robert\Desktop\cbs_linear_ch3n2.chk"
 -------------------
 Title Card Required
 -------------------
 Charge =  1 Multiplicity = 1
 Redundant internal coordinates found in file.
 C,0,-3.9031139433,3.3529698004,0.0000407892
 H,0,-4.1786580869,2.4688037225,-0.5523619723
 H,0,-4.1785991211,4.2735503285,-0.4893072165
 H,0,-4.1783916636,3.3165736732,1.0420077175
 N,0,-2.363436762,3.3529286924,-0.0003311258
 N,0,-1.2852649231,3.3528515629,0.000026808
 Recover connectivity data from disk.
                          Input orientation:                          
 ---------------------------------------------------------------------
 Center     Atomic      Atomic             Coordinates (Angstroms)
 Number     Number       Type             X           Y           Z
 ---------------------------------------------------------------------
      1          6           0       -3.903114    3.352970    0.000041
      2          1           0       -4.178658    2.468804   -0.552362
      3          1           0       -4.178599    4.273550   -0.489307
      4          1           0       -4.178392    3.316574    1.042008
      5          7           0       -2.363437    3.352929   -0.000331
      6          7           0       -1.285265    3.352852    0.000027
 ---------------------------------------------------------------------
                    Distance matrix (angstroms):
                    1          2          3          4          5
     1  C    0.000000
     2  H    1.078343   0.000000
     3  H    1.078342   1.805848   0.000000
     4  H    1.078331   1.805749   1.805749   0.000000
     5  N    1.539677   2.093190   2.093193   2.093288   0.000000
     6  N    2.617849   3.075451   3.075470   3.075260   1.078172
                    6
     6  N    0.000000
 Stoichiometry    CH3N2(1+)
 Framework group  C1[X(CH3N2)]
 Deg. of freedom    12
 Full point group                 C1      NOp   1
 Largest Abelian subgroup         C1      NOp   1
 Largest concise Abelian subgroup C1      NOp   1
                         Standard orientation:                         
 ---------------------------------------------------------------------
 Center     Atomic      Atomic             Coordinates (Angstroms)
 Number     Number       Type             X           Y           Z
 ---------------------------------------------------------------------
      1          6           0       -1.229408   -0.000003    0.000064
      2          1           0       -1.504894   -0.902160   -0.522471
      3          1           0       -1.504915    0.903686   -0.519805
      4          1           0       -1.504721   -0.001546    1.042656
      5          7           0        0.310270    0.000011   -0.000253
      6          7           0        1.388441   -0.000006    0.000144
 ---------------------------------------------------------------------
 Rotational constants (GHZ):    153.7805115      9.2725698      9.2725292
 Standard basis: CBSB1 (5D, 7F)
 There are   135 symmetry adapted cartesian basis functions of A   symmetry.
 There are   120 symmetry adapted basis functions of A   symmetry.
   120 basis functions,   180 primitive gaussians,   135 cartesian basis functions
    11 alpha electrons       11 beta electrons
       nuclear repulsion energy        65.6094497030 Hartrees.
 NAtoms=    6 NActive=    6 NUniq=    6 SFac= 1.00D+00 NAtFMM=   60 NAOKFM=F Big=F
 Integral buffers will be    131072 words long.
 Raffenetti 1 integral format.
 Two-electron integral symmetry is turned on.
 One-electron integrals computed using PRISM.
 NBasis=   120 RedAO= T EigKep=  2.65D-05  NBF=   120
 NBsUse=   120 1.00D-06 EigRej= -1.00D+00 NBFU=   120
 Initial guess from the checkpoint file:  "C:\Users\Robert\Desktop\cbs_linear_ch3n2.chk"
 B after Tr=     0.000000    0.000000    0.000000
         Rot=    1.000000    0.000000    0.000000    0.000000 Ang=   0.00 deg.
 Keep R1 ints in memory in canonical form, NReq=28414893.
 Requested convergence on RMS density matrix=1.00D-08 within 128 cycles.
 Requested convergence on MAX density matrix=1.00D-06.
 Requested convergence on             energy=1.00D-06.
 No special actions if energy rises.
 SCF Done:  E(RHF) =  -148.266948815     A.U. after   10 cycles
            NFock= 10  Conv=0.32D-08     -V/T= 2.0011

 **********************************************************************

            Population analysis using the SCF density.

 **********************************************************************

 Orbital symmetries:
       Occupied  (A) (A) (A) (A) (A) (A) (A) (A) (A) (A) (A)
       Virtual   (A) (A) (A) (A) (A) (A) (A) (A) (A) (A) (A) (A)
                 (A) (A) (A) (A) (A) (A) (A) (A) (A) (A) (A) (A)
                 (A) (A) (A) (A) (A) (A) (A) (A) (A) (A) (A) (A)
                 (A) (A) (A) (A) (A) (A) (A) (A) (A) (A) (A) (A)
                 (A) (A) (A) (A) (A) (A) (A) (A) (A) (A) (A) (A)
                 (A) (A) (A) (A) (A) (A) (A) (A) (A) (A) (A) (A)
                 (A) (A) (A) (A) (A) (A) (A) (A) (A) (A) (A) (A)
                 (A) (A) (A) (A) (A) (A) (A) (A) (A) (A) (A) (A)
                 (A) (A) (A) (A) (A) (A) (A) (A) (A) (A) (A) (A)
                 (A)
 The electronic state is 1-A.
 Alpha  occ. eigenvalues --  -16.00487 -15.99312 -11.57398  -1.79168  -1.34469
 Alpha  occ. eigenvalues --   -1.05050  -0.95530  -0.95530  -0.94330  -0.84466
 Alpha  occ. eigenvalues --   -0.84465
 Alpha virt. eigenvalues --   -0.12081  -0.12081  -0.11408  -0.06875  -0.06599
 Alpha virt. eigenvalues --   -0.06598  -0.02353  -0.00862  -0.00861   0.01106
 Alpha virt. eigenvalues --    0.02552   0.02553   0.05229   0.10155   0.10158
 Alpha virt. eigenvalues --    0.10201   0.13642   0.13643   0.14829   0.20321
 Alpha virt. eigenvalues --    0.31710   0.44749   0.46748   0.46749   0.55795
 Alpha virt. eigenvalues --    0.59028   0.59030   0.65196   0.65198   0.69243
 Alpha virt. eigenvalues --    0.69244   0.72449   0.74995   0.74997   0.84163
 Alpha virt. eigenvalues --    0.84165   0.85376   0.89478   1.05243   1.16306
 Alpha virt. eigenvalues --    1.17471   1.17473   1.26193   1.26193   1.27966
 Alpha virt. eigenvalues --    1.41268   1.41936   1.55508   1.55520   1.71608
 Alpha virt. eigenvalues --    1.71627   1.84392   1.86568   1.86589   1.99837
 Alpha virt. eigenvalues --    2.29293   2.29299   2.30918   2.39034   2.39053
 Alpha virt. eigenvalues --    2.57748   3.06612   3.06640   3.23383   3.23426
 Alpha virt. eigenvalues --    3.29893   3.30338   3.31368   3.38579   3.38580
 Alpha virt. eigenvalues --    3.55145   3.55165   3.55540   3.57467   3.58661
 Alpha virt. eigenvalues --    3.58668   3.74233   3.76884   3.76884   3.80123
 Alpha virt. eigenvalues --    3.85294   3.85703   3.87561   3.87569   4.23287
 Alpha virt. eigenvalues --    4.31564   4.31566   4.58494   4.58574   4.58594
 Alpha virt. eigenvalues --    4.74351   4.74374   4.76428   4.76428   4.87287
 Alpha virt. eigenvalues --    4.87302   5.01763   5.01777   5.10021   5.19862
 Alpha virt. eigenvalues --    5.34602   5.34605   6.63913   6.76251   6.76253
 Alpha virt. eigenvalues --    7.63626  25.07668  36.36954  38.01089
          Condensed to atoms (all electrons):
               1          2          3          4          5          6
     1  C    5.340705   0.439200   0.439207   0.439067   0.238487  -0.348176
     2  H    0.439200   0.425635  -0.025681  -0.025669  -0.019609  -0.045342
     3  H    0.439207  -0.025681   0.425634  -0.025670  -0.019605  -0.045352
     4  H    0.439067  -0.025669  -0.025670   0.425629  -0.019701  -0.045118
     5  N    0.238487  -0.019609  -0.019605  -0.019701   6.447432   0.192545
     6  N   -0.348176  -0.045342  -0.045352  -0.045118   0.192545   6.677793
 Mulliken charges:
               1
     1  C   -0.548492
     2  H    0.251465
     3  H    0.251466
     4  H    0.251461
     5  N    0.180451
     6  N    0.613649
 Sum of Mulliken charges =   1.00000
 Mulliken charges with hydrogens summed into heavy atoms:
               1
     1  C    0.205900
     5  N    0.180451
     6  N    0.613649
 Electronic spatial extent (au):  <R**2>=            146.6531
 Charge=              1.0000 electrons
 Dipole moment (field-independent basis, Debye):
    X=             -2.2680    Y=              0.0000    Z=              0.0002  Tot=              2.2680
 Quadrupole moment (field-independent basis, Debye-Ang):
   XX=             -8.5868   YY=            -14.3803   ZZ=            -14.3807
   XY=              0.0000   XZ=             -0.0006   YZ=              0.0000
 Traceless Quadrupole moment (field-independent basis, Debye-Ang):
   XX=              3.8625   YY=             -1.9310   ZZ=             -1.9315
   XY=              0.0000   XZ=             -0.0006   YZ=              0.0000
 Octapole moment (field-independent basis, Debye-Ang**2):
  XXX=             -6.6563  YYY=              0.0056  ZZZ=              1.2787  XYY=             -1.4373
  XXY=              0.0000  XXZ=              0.0008  XZZ=             -1.4365  YZZ=             -0.0057
  YYZ=             -1.2781  XYZ=              0.0000
 Hexadecapole moment (field-independent basis, Debye-Ang**3):
 XXXX=           -124.0641 YYYY=            -16.7627 ZZZZ=            -16.7622 XXXY=              0.0000
 XXXZ=             -0.0023 YYYX=             -0.0091 YYYZ=              0.0000 ZZZX=             -2.0619
 ZZZY=              0.0000 XXYY=            -22.2294 XXZZ=            -22.2310 YYZZ=             -5.5880
 XXYZ=              0.0000 YYXZ=              2.0611 ZZXY=              0.0091
 N-N= 6.560944970305D+01 E-N=-4.712534788322D+02  KE= 1.481048063519D+02
 1|1|UNPC-KING|SP|RHF|CBSB1|C1H3N2(1+)|ROBERT|24-Oct-2016|0||#N Geom=Al
 lCheck Guess=TCheck SCRF=Check HF/CBSB1 SCF=Tight||Title Card Required
 ||1,1|C,0,-3.9031139433,3.3529698004,0.0000407892|H,0,-4.1786580869,2.
 4688037225,-0.5523619723|H,0,-4.1785991211,4.2735503285,-0.4893072165|
 H,0,-4.1783916636,3.3165736732,1.0420077175|N,0,-2.363436762,3.3529286
 924,-0.0003311258|N,0,-1.2852649231,3.3528515629,0.000026808||Version=
 EM64W-G09RevD.01|State=1-A|HF=-148.2669488|RMSD=3.160e-009|Dipole=-0.8
 923178,0.0000345,0.0000917|Quadrupole=2.8716773,-1.4356885,-1.4359888,
 -0.0001602,-0.000608,0.0000101|PG=C01 [X(C1H3N2)]||@


 SI MONUMENTUM REQUIRIS, CIRCUMSPICE
     -- FROM SIR CHRISTOPHER WREN'S TOMBSTONE
 Diagonal vibrational polarizability:
        0.0000000       0.0000000       0.0000000

 Complete Basis Set (CBS) Extrapolation:
 M. R. Nyden and G. A. Petersson, JCP 75, 1843 (1981)
 G. A. Petersson and M. A. Al-Laham, JCP 94, 6081 (1991)
 G. A. Petersson, T. Tensfeldt, and J. A. Montgomery, JCP 94, 6091 (1991)
 J. A. Montgomery, J. W. Ochterski, and G. A. Petersson, JCP 101, 5900 (1994)

 Temperature=               298.150000 Pressure=                       1.000000
 E(ZPE)=                      0.044407 E(Thermal)=                     0.048198
 E(SCF)=                   -148.266949 DE(MP2)=                       -0.452988
 DE(CBS)=                    -0.107785 DE(MP34)=                      -0.008518
 DE(Int)=                     0.029739 DE(Empirical)=                 -0.101760
 CBS-4 (0 K)=              -148.863855 CBS-4 Energy=                -148.860064
 CBS-4 Enthalpy=           -148.859120 CBS-4 Free Energy=           -148.888048
 1|1|UNPC-KING|Mixed|CBS-4M|CBS-4M|C1H3N2(1+)|ROBERT|24-Oct-2016|0||# c
 bs-4m geom=connectivity||Title Card Required||1,1|C,0,-3.9031139433,3.
 3529698004,0.0000407892|H,0,-4.1786580869,2.4688037225,-0.5523619723|H
 ,0,-4.1785991211,4.2735503285,-0.4893072165|H,0,-4.1783916636,3.316573
 6732,1.0420077175|N,0,-2.363436762,3.3529286924,-0.0003311258|N,0,-1.2
 852649231,3.3528515629,0.000026808||Version=EM64W-G09RevD.01|State=1-A
 |HF/CbsB1=-148.2669488|HF/CbsB2=-148.2235434|MP2/CbsB2=-148.6765317|E2
 (CBS)/CbsB2=-0.5607737|CBS-Int/CbsB2=0.0297387|OIii/CbsB2=4.8428566|MP
 2/6-31G=-148.4464353|MP4(SDQ)/6-31G=-148.4549532|CBS4M=-148.8638553|Fr
 eqCoord=-7.3758164183,6.3361946547,0.0000770804,-7.8965193872,4.665362
 9114,-1.043812854,-7.896407958,8.075839736,-0.9246566341,-7.8960159201
 ,6.2674159419,1.9691092144,-4.4662482126,6.3361169718,-0.000625737,-2.
 4287987129,6.3359712181,0.0000506598|PG=C01 [X(C1H3N2)]|NImag=0||0.238
 98614,0.00000944,0.68535416,0.00010064,-0.00000038,0.68533995,-0.06526
 507,-0.04996152,-0.03121973,0.08911038,-0.06313002,-0.27183609,-0.1347
 3959,0.06635932,0.28063392,-0.03944364,-0.13473770,-0.14036848,0.04145
 582,0.14273462,0.14137238,-0.06525757,0.05200447,-0.02764890,0.0069098
 4,-0.00841462,0.00716163,0.08910131,0.06571500,-0.28996559,0.12427630,
 0.00789266,-0.01849837,0.01461091,-0.06907764,0.29984007,-0.03493382,0
 .12427493,-0.12224758,0.00773042,-0.01664114,0.01051321,0.03671504,-0.
 13165125,0.12217604,-0.06523167,-0.00205429,0.05880567,0.00690646,0.00
 274847,-0.01070369,0.00690564,-0.00199509,-0.01086759,0.08905194,-0.00
 259620,-0.05654280,0.01046366,0.01039735,0.00414010,-0.02769075,-0.010
 63057,0.00238234,0.02870663,0.00272819,0.05257408,0.07431555,0.0104631
 4,-0.35571749,0.00370201,0.00356941,-0.01212853,0.00296712,-0.00255448
 ,-0.01036991,-0.07812051,-0.01108409,0.36950443,-0.05125301,-0.0000010
 8,-0.00000650,-0.03675450,-0.00013510,-0.00007729,-0.03675118,0.000143
 09,-0.00006800,-0.03673469,-0.00000463,0.00016377,2.01060945,0.0000040
 6,-0.09004897,-0.00000008,-0.03846946,0.00707356,0.00672041,0.04005559
 ,0.00797436,-0.00619942,-0.00158316,-0.00365613,-0.00052117,-0.0001320
 2,0.12242539,-0.00007680,-0.00000008,-0.09003992,-0.02403078,0.0067129
 5,0.00052678,-0.02128759,-0.00619052,-0.00037650,0.04534424,-0.0005226
 0,0.01123940,0.00059390,0.00000023,0.12241850,0.00802119,0.00000297,-0
 .00003118,-0.00090711,0.00257195,0.00160718,-0.00090803,-0.00267803,0.
 00142394,-0.00089768,0.00010587,-0.00302793,-1.84911608,0.00012500,-0.
 00054296,1.84380771,-0.00000227,0.02303929,0.00000008,0.00378164,-0.00
 151312,-0.00163750,-0.00393723,-0.00173282,0.00151025,0.00015589,0.001
 10242,0.00012718,0.00012974,-0.04376820,0.00000002,-0.00012777,0.02287
 242,0.00003807,0.00000008,0.02303353,0.00236227,-0.00163625,0.00008464
 ,0.00209270,0.00150904,0.00030474,-0.00445811,0.00012715,-0.00252789,-
 0.00060588,0.00000002,-0.04376826,0.00057095,-0.00000004,0.02287324||-
 0.00020273,-0.00000175,0.00003735,0.00014839,-0.00004699,-0.00001693,0
 .00014842,0.00004785,-0.00001363,0.00012423,-0.00000114,0.00002946,-0.
 00031712,0.00000413,-0.00006449,0.00009881,-0.00000211,0.00002825|||@
 Job cpu time:       0 days  0 hours  0 minutes  3.0 seconds.
 File lengths (MBytes):  RWF=     42 Int=      0 D2E=      0 Chk=      2 Scr=      1
 Normal termination of Gaussian 09 at Mon Oct 24 13:31:11 2016.
