 Entering Gaussian System, Link 0=g09
 Initial command:
 /cluster/software/gaussian/gaussian-09-D.01/g09/l1.exe "/local/scratch/rjw7c5/Gau-12086.inp" -scrdir="/local/scratch/rjw7c5/"
 Entering Link 1 = /cluster/software/gaussian/gaussian-09-D.01/g09/l1.exe PID=     12087.
  
 Copyright (c) 1988,1990,1992,1993,1995,1998,2003,2009,2013,
            Gaussian, Inc.  All Rights Reserved.
  
 This is part of the Gaussian(R) 09 program.  It is based on
 the Gaussian(R) 03 system (copyright 2003, Gaussian, Inc.),
 the Gaussian(R) 98 system (copyright 1998, Gaussian, Inc.),
 the Gaussian(R) 94 system (copyright 1995, Gaussian, Inc.),
 the Gaussian 92(TM) system (copyright 1992, Gaussian, Inc.),
 the Gaussian 90(TM) system (copyright 1990, Gaussian, Inc.),
 the Gaussian 88(TM) system (copyright 1988, Gaussian, Inc.),
 the Gaussian 86(TM) system (copyright 1986, Carnegie Mellon
 University), and the Gaussian 82(TM) system (copyright 1983,
 Carnegie Mellon University). Gaussian is a federally registered
 trademark of Gaussian, Inc.
  
 This software contains proprietary and confidential information,
 including trade secrets, belonging to Gaussian, Inc.
  
 This software is provided under written license and may be
 used, copied, transmitted, or stored only in accord with that
 written license.
  
 The following legend is applicable only to US Government
 contracts under FAR:
  
                    RESTRICTED RIGHTS LEGEND
  
 Use, reproduction and disclosure by the US Government is
 subject to restrictions as set forth in subparagraphs (a)
 and (c) of the Commercial Computer Software - Restricted
 Rights clause in FAR 52.227-19.
  
 Gaussian, Inc.
 340 Quinnipiac St., Bldg. 40, Wallingford CT 06492
  
  
 ---------------------------------------------------------------
 Warning -- This program may not be used in any manner that
 competes with the business of Gaussian, Inc. or will provide
 assistance to any competitor of Gaussian, Inc.  The licensee
 of this program is prohibited from giving any competitor of
 Gaussian, Inc. access to this program.  By using this program,
 the user acknowledges that Gaussian, Inc. is engaged in the
 business of creating and licensing software in the field of
 computational chemistry and represents and warrants to the
 licensee that it is not a competitor of Gaussian, Inc. and that
 it will not use this program in any manner prohibited above.
 ---------------------------------------------------------------
  

 Cite this work as:
 Gaussian 09, Revision D.01,
 M. J. Frisch, G. W. Trucks, H. B. Schlegel, G. E. Scuseria, 
 M. A. Robb, J. R. Cheeseman, G. Scalmani, V. Barone, B. Mennucci, 
 G. A. Petersson, H. Nakatsuji, M. Caricato, X. Li, H. P. Hratchian, 
 A. F. Izmaylov, J. Bloino, G. Zheng, J. L. Sonnenberg, M. Hada, 
 M. Ehara, K. Toyota, R. Fukuda, J. Hasegawa, M. Ishida, T. Nakajima, 
 Y. Honda, O. Kitao, H. Nakai, T. Vreven, J. A. Montgomery, Jr., 
 J. E. Peralta, F. Ogliaro, M. Bearpark, J. J. Heyd, E. Brothers, 
 K. N. Kudin, V. N. Staroverov, T. Keith, R. Kobayashi, J. Normand, 
 K. Raghavachari, A. Rendell, J. C. Burant, S. S. Iyengar, J. Tomasi, 
 M. Cossi, N. Rega, J. M. Millam, M. Klene, J. E. Knox, J. B. Cross, 
 V. Bakken, C. Adamo, J. Jaramillo, R. Gomperts, R. E. Stratmann, 
 O. Yazyev, A. J. Austin, R. Cammi, C. Pomelli, J. W. Ochterski, 
 R. L. Martin, K. Morokuma, V. G. Zakrzewski, G. A. Voth, 
 P. Salvador, J. J. Dannenberg, S. Dapprich, A. D. Daniels, 
 O. Farkas, J. B. Foresman, J. V. Ortiz, J. Cioslowski, 
 and D. J. Fox, Gaussian, Inc., Wallingford CT, 2013.
 
 ******************************************
 Gaussian 09:  ES64L-G09RevD.01 24-Apr-2013
                21-Oct-2016 
 ******************************************
 %int=/home/rjw7c5/scratch/ch3_g4_gas
 %d2e=/home/rjw7c5/scratch/ch3_g4_gas
 %rwf=ch3_g4_gas.rwf
 %nosave
 %nprocshared=12
 Will use up to   12 processors via shared memory.
 %mem=48GB
 %chk=/home/rjw7c5/ch3_g4_gas
 ----------------------
 # g4 geom=connectivity
 ----------------------
 1/14=-1,18=20,19=15,26=3,38=1,57=2/1,3;
 2/9=110,12=2,17=6,18=5,40=1/2;
 3/5=35,7=104,11=2,16=1,25=1,30=1,71=1,74=-5/1,2,3;
 4//1;
 5/5=2,38=5/2;
 6/7=2,8=2,9=2,10=2,28=1/1;
 7//1,2,3,16;
 1/14=-1,18=20,19=15,26=3/3(2);
 2/9=110/2;
 99//99;
 2/9=110/2;
 3/5=35,7=104,11=2,16=1,25=1,30=1,71=1,74=-5/1,2,3;
 4/5=5,16=3,69=1/1;
 5/5=2,38=5/2;
 7//1,2,3,16;
 1/14=-1,18=20,19=15,26=3/3(-5);
 2/9=110/2;
 6/7=2,8=2,9=2,10=2,19=2,28=1/1;
 99/9=1/99;
 -------------------
 Title Card Required
 -------------------
 Symbolic Z-matrix:
 Charge =  1 Multiplicity = 1
 C                    -1.67722   1.58228   0. 
 H                    -1.67722   2.67306   0.00002 
 H                    -2.62186   1.03689   0.00002 
 H                    -0.73257   1.03689   0.00002 
 

 GradGradGradGradGradGradGradGradGradGradGradGradGradGradGradGradGradGrad
 Berny optimization.
 Initialization pass.
                           ----------------------------
                           !    Initial Parameters    !
                           ! (Angstroms and Degrees)  !
 --------------------------                            --------------------------
 ! Name  Definition              Value          Derivative Info.                !
 --------------------------------------------------------------------------------
 ! R1    R(1,2)                  1.0908         estimate D2E/DX2                !
 ! R2    R(1,3)                  1.0908         estimate D2E/DX2                !
 ! R3    R(1,4)                  1.0908         estimate D2E/DX2                !
 ! A1    A(2,1,3)              120.0            estimate D2E/DX2                !
 ! A2    A(2,1,4)              120.0            estimate D2E/DX2                !
 ! A3    A(3,1,4)              120.0            estimate D2E/DX2                !
 ! D1    D(2,1,4,3)            179.9962         estimate D2E/DX2                !
 --------------------------------------------------------------------------------
 Trust Radius=3.00D-01 FncErr=1.00D-07 GrdErr=1.00D-06
 Number of steps in this run=     20 maximum allowed number of steps=    100.
 GradGradGradGradGradGradGradGradGradGradGradGradGradGradGradGradGradGrad

                          Input orientation:                          
 ---------------------------------------------------------------------
 Center     Atomic      Atomic             Coordinates (Angstroms)
 Number     Number       Type             X           Y           Z
 ---------------------------------------------------------------------
      1          6           0       -1.677215    1.582278    0.000000
      2          1           0       -1.677215    2.673057    0.000021
      3          1           0       -2.621857    1.036889    0.000021
      4          1           0       -0.732573    1.036889    0.000021
 ---------------------------------------------------------------------
                    Distance matrix (angstroms):
                    1          2          3          4
     1  C    0.000000
     2  H    1.090779   0.000000
     3  H    1.090778   1.889284   0.000000
     4  H    1.090778   1.889284   1.889284   0.000000
 Stoichiometry    CH3(1+)
 Framework group  C3[C3(C),X(H3)]
 Deg. of freedom     2
 Full point group                 C3      NOp   3
 Largest Abelian subgroup         C1      NOp   1
 Largest concise Abelian subgroup C1      NOp   1
                         Standard orientation:                         
 ---------------------------------------------------------------------
 Center     Atomic      Atomic             Coordinates (Angstroms)
 Number     Number       Type             X           Y           Z
 ---------------------------------------------------------------------
      1          6           0        0.000000    0.000000    0.000007
      2          1           0        0.000000    1.090779   -0.000014
      3          1           0        0.944642   -0.545389   -0.000014
      4          1           0       -0.944642   -0.545389   -0.000014
 ---------------------------------------------------------------------
 Rotational constants (GHZ):    280.9747838    280.9747838    140.4873920
 Standard basis: GTBas3 (6D, 7F)
 There are    46 symmetry adapted cartesian basis functions of A   symmetry.
 There are    43 symmetry adapted basis functions of A   symmetry.
    43 basis functions,    65 primitive gaussians,    46 cartesian basis functions
     4 alpha electrons        4 beta electrons
       nuclear repulsion energy         9.5727481259 Hartrees.
 NAtoms=    4 NActive=    4 NUniq=    2 SFac= 4.00D+00 NAtFMM=   60 NAOKFM=F Big=F
 Integral buffers will be    131072 words long.
 Raffenetti 2 integral format.
 Two-electron integral symmetry is turned on.
 One-electron integrals computed using PRISM.
 NBasis=    43 RedAO= T EigKep=  5.01D-03  NBF=    43
 NBsUse=    43 1.00D-06 EigRej= -1.00D+00 NBFU=    43
 ExpMin= 1.61D-01 ExpMax= 3.05D+03 ExpMxC= 4.57D+02 IAcc=1 IRadAn=         1 AccDes= 0.00D+00
 Harris functional with IExCor=  402 and IRadAn=       1 diagonalized for initial guess.
 HarFok:  IExCor=  402 AccDes= 0.00D+00 IRadAn=         1 IDoV= 1 UseB2=F ITyADJ=14
 ICtDFT=  3500011 ScaDFX=  1.000000  1.000000  1.000000  1.000000
 FoFCou: FMM=F IPFlag=           0 FMFlag=      100000 FMFlg1=           0
         NFxFlg=           0 DoJE=T BraDBF=F KetDBF=T FulRan=T
         wScrn=  0.000000 ICntrl=     500 IOpCl=  0 I1Cent=   200000004 NGrid=           0
         NMat0=    1 NMatS0=      1 NMatT0=    0 NMatD0=    1 NMtDS0=    0 NMtDT0=    0
 Petite list used in FoFCou.
 Initial guess orbital symmetries:
       Occupied  (A) (A) (E) (E)
       Virtual   (A) (A) (E) (E) (E) (E) (A) (A) (E) (E) (E) (E)
                 (A) (A) (E) (E) (A) (A) (A) (E) (E) (E) (E) (A)
                 (E) (E) (E) (E) (A) (E) (E) (A) (E) (E) (A) (E)
                 (E) (A) (A)
 The electronic state of the initial guess is 1-A.
 Keep R1 ints in memory in canonical form, NReq=2427552.
 Requested convergence on RMS density matrix=1.00D-08 within 128 cycles.
 Requested convergence on MAX density matrix=1.00D-06.
 Requested convergence on             energy=1.00D-06.
 No special actions if energy rises.
 Integral accuracy reduced to 1.0D-05 until final iterations.
 Initial convergence to 1.0D-05 achieved.  Increase integral accuracy.
 SCF Done:  E(RB3LYP) =  -39.4848187351     A.U. after    8 cycles
            NFock=  8  Conv=0.14D-08     -V/T= 2.0097

 **********************************************************************

            Population analysis using the SCF density.

 **********************************************************************

 Orbital symmetries:
       Occupied  (A) (A) (E) (E)
       Virtual   (A) (A) (E) (E) (E) (E) (A) (A) (E) (E) (E) (E)
                 (A) (A) (E) (E) (A) (A) (A) (E) (E) (E) (E) (A)
                 (E) (E) (A) (E) (E) (E) (E) (A) (E) (E) (A) (E)
                 (E) (A) (A)
 The electronic state is 1-A.
 Alpha  occ. eigenvalues --  -10.65343  -1.04968  -0.78760  -0.78760
 Alpha virt. eigenvalues --   -0.48634  -0.17306  -0.12053  -0.12053   0.18463
 Alpha virt. eigenvalues --    0.18463   0.21397   0.22049   0.43305   0.43305
 Alpha virt. eigenvalues --    0.43702   0.43702   0.57854   0.96670   1.22595
 Alpha virt. eigenvalues --    1.22595   1.54904   1.78858   1.84993   1.90835
 Alpha virt. eigenvalues --    1.90835   2.37483   2.37483   2.52321   2.57299
 Alpha virt. eigenvalues --    2.57300   3.00397   3.02144   3.02144   3.07566
 Alpha virt. eigenvalues --    3.07567   3.66601   3.80069   3.80069   3.89555
 Alpha virt. eigenvalues --    4.24544   4.24544   4.87996  10.10519
          Condensed to atoms (all electrons):
               1          2          3          4
     1  C    4.962307   0.350239   0.350239   0.350239
     2  H    0.350239   0.340289  -0.014102  -0.014102
     3  H    0.350239  -0.014102   0.340289  -0.014102
     4  H    0.350239  -0.014102  -0.014102   0.340289
 Mulliken charges:
               1
     1  C   -0.013026
     2  H    0.337675
     3  H    0.337675
     4  H    0.337675
 Sum of Mulliken charges =   1.00000
 Mulliken charges with hydrogens summed into heavy atoms:
               1
     1  C    1.000000
 Electronic spatial extent (au):  <R**2>=             22.5108
 Charge=              1.0000 electrons
 Dipole moment (field-independent basis, Debye):
    X=              0.0000    Y=              0.0000    Z=              0.0000  Tot=              0.0000
 Quadrupole moment (field-independent basis, Debye-Ang):
   XX=             -4.0319   YY=             -4.0319   ZZ=             -5.0696
   XY=              0.0000   XZ=              0.0000   YZ=              0.0000
 Traceless Quadrupole moment (field-independent basis, Debye-Ang):
   XX=              0.3459   YY=              0.3459   ZZ=             -0.6918
   XY=              0.0000   XZ=              0.0000   YZ=              0.0000
 Octapole moment (field-independent basis, Debye-Ang**2):
  XXX=              0.0000  YYY=              1.7528  ZZZ=              0.0000  XYY=              0.0000
  XXY=             -1.7528  XXZ=             -0.0001  XZZ=              0.0000  YZZ=              0.0000
  YYZ=             -0.0001  XYZ=              0.0000
 Hexadecapole moment (field-independent basis, Debye-Ang**3):
 XXXX=             -7.9426 YYYY=             -7.9426 ZZZZ=             -3.6130 XXXY=              0.0000
 XXXZ=              0.0000 YYYX=              0.0000 YYYZ=              0.0000 ZZZX=              0.0000
 ZZZY=              0.0000 XXYY=             -2.6475 XXZZ=             -2.5274 YYZZ=             -2.5274
 XXYZ=              0.0000 YYXZ=              0.0000 ZZXY=              0.0000
 N-N= 9.572748125861D+00 E-N=-1.070713639166D+02  KE= 3.910729234099D+01
 Calling FoFJK, ICntrl=      2127 FMM=F ISym2X=1 I1Cent= 0 IOpClX= 0 NMat=1 NMatS=1 NMatT=0.
 ***** Axes restored to original set *****
 -------------------------------------------------------------------
 Center     Atomic                   Forces (Hartrees/Bohr)
 Number     Number              X              Y              Z
 -------------------------------------------------------------------
      1        6           0.000000000   -0.000000181    0.000007227
      2        1           0.000000061    0.002996168   -0.000002409
      3        1          -0.002594567   -0.001497941   -0.000002409
      4        1           0.002594506   -0.001498046   -0.000002409
 -------------------------------------------------------------------
 Cartesian Forces:  Max     0.002996168 RMS     0.001498007

 GradGradGradGradGradGradGradGradGradGradGradGradGradGradGradGradGradGrad
 Berny optimization.
 FormGI is forming the generalized inverse of G from B-inverse, IUseBI=4.
 Internal  Forces:  Max     0.002996168 RMS     0.001961350
 Search for a local minimum.
 Step number   1 out of a maximum of   20
 All quantities printed in internal units (Hartrees-Bohrs-Radians)
 Mixed Optimization -- RFO/linear search
 Second derivative matrix not updated -- first step.
 The second derivative matrix:
                          R1        R2        R3        A1        A2
           R1           0.34723
           R2           0.00000   0.34723
           R3           0.00000   0.00000   0.34723
           A1           0.00000   0.00000   0.00000   0.16000
           A2           0.00000   0.00000   0.00000   0.00000   0.16000
           A3           0.00000   0.00000   0.00000   0.00000   0.00000
           D1           0.00000   0.00000   0.00000   0.00000   0.00000
                          A3        D1
           A3           0.16000
           D1           0.00000   0.00230
 ITU=  0
     Eigenvalues ---    0.00230   0.16000   0.16000   0.34723   0.34723
     Eigenvalues ---    0.34723
 RFO step:  Lambda=-7.75428870D-05 EMin= 2.30000018D-03
 Linear search not attempted -- first point.
 Iteration  1 RMS(Cart)=  0.00565885 RMS(Int)=  0.00000294
 Iteration  2 RMS(Cart)=  0.00000152 RMS(Int)=  0.00000032
 Iteration  3 RMS(Cart)=  0.00000000 RMS(Int)=  0.00000032
 ClnCor:  largest displacement from symmetrization is 6.94D-07 for atom     4.
 Variable       Old X    -DE/DX   Delta X   Delta X   Delta X     New X
                                 (Linear)    (Quad)   (Total)
    R1        2.06127   0.00300   0.00000   0.00863   0.00863   2.06990
    R2        2.06127   0.00300   0.00000   0.00863   0.00863   2.06990
    R3        2.06127   0.00300   0.00000   0.00863   0.00863   2.06990
    A1        2.09440   0.00000   0.00000   0.00000   0.00000   2.09439
    A2        2.09440   0.00000   0.00000   0.00000   0.00000   2.09439
    A3        2.09440   0.00000   0.00000   0.00000   0.00000   2.09439
    D1        3.14153   0.00000   0.00000   0.00185   0.00185  -3.13981
         Item               Value     Threshold  Converged?
 Maximum Force            0.002996     0.000450     NO 
 RMS     Force            0.001961     0.000300     NO 
 Maximum Displacement     0.008627     0.001800     NO 
 RMS     Displacement     0.005659     0.001200     NO 
 Predicted change in Energy=-3.878023D-05
 GradGradGradGradGradGradGradGradGradGradGradGradGradGradGradGradGradGrad

                          Input orientation:                          
 ---------------------------------------------------------------------
 Center     Atomic      Atomic             Coordinates (Angstroms)
 Number     Number       Type             X           Y           Z
 ---------------------------------------------------------------------
      1          6           0       -1.677215    1.582279    0.000439
      2          1           0       -1.677215    2.677622   -0.000125
      3          1           0       -2.625811    1.034607   -0.000125
      4          1           0       -0.728620    1.034607   -0.000125
 ---------------------------------------------------------------------
                    Distance matrix (angstroms):
                    1          2          3          4
     1  C    0.000000
     2  H    1.095344   0.000000
     3  H    1.095344   1.897191   0.000000
     4  H    1.095344   1.897191   1.897191   0.000000
 Stoichiometry    CH3(1+)
 Framework group  C3V[C3(C),3SGV(H)]
 Deg. of freedom     2
 Full point group                 C3V     NOp   6
 Omega: Change in point group or standard orientation.

 Old FWG=C03  [C3(C1),X(H3)]
 New FWG=C03V [C3(C1),3SGV(H1)]
 Largest Abelian subgroup         CS      NOp   2
 Largest concise Abelian subgroup CS      NOp   2
                         Standard orientation:                         
 ---------------------------------------------------------------------
 Center     Atomic      Atomic             Coordinates (Angstroms)
 Number     Number       Type             X           Y           Z
 ---------------------------------------------------------------------
      1          6           0        0.000000    0.000000   -0.000188
      2          1           0        0.000000    1.095344    0.000376
      3          1           0        0.948596   -0.547672    0.000376
      4          1           0       -0.948596   -0.547672    0.000376
 ---------------------------------------------------------------------
 Rotational constants (GHZ):    278.6375481    278.6375481    139.3188332
 Standard basis: GTBas3 (6D, 7F)
 There are    30 symmetry adapted cartesian basis functions of A'  symmetry.
 There are    16 symmetry adapted cartesian basis functions of A"  symmetry.
 There are    28 symmetry adapted basis functions of A'  symmetry.
 There are    15 symmetry adapted basis functions of A"  symmetry.
    43 basis functions,    65 primitive gaussians,    46 cartesian basis functions
     4 alpha electrons        4 beta electrons
       nuclear repulsion energy         9.5328512998 Hartrees.
 NAtoms=    4 NActive=    4 NUniq=    2 SFac= 4.00D+00 NAtFMM=   60 NAOKFM=F Big=F
 Integral buffers will be    131072 words long.
 Raffenetti 2 integral format.
 Two-electron integral symmetry is turned on.
 One-electron integrals computed using PRISM.
 NBasis=    43 RedAO= T EigKep=  6.91D-03  NBF=    28    15
 NBsUse=    43 1.00D-06 EigRej= -1.00D+00 NBFU=    28    15
 Initial guess from the checkpoint file:  "/home/rjw7c5/ch3_g4_gas.chk"
 B after Tr=     0.000000    0.000000    0.000000
         Rot=    1.000000    0.000000    0.000000    0.000000 Ang=   0.00 deg.
 Initial guess orbital symmetries:
       Occupied  (?A) (?A) (?A) (?A)
       Virtual   (?A) (?A) (?A) (?A) (?A) (?A) (?A) (?A) (?A) (?A)
                 (?A) (?A) (?A) (?A) (?A) (?A) (?A) (?A) (?A) (?A)
                 (?A) (?A) (?A) (?A) (?A) (?A) (?A) (?A) (?A) (?A)
                 (?A) (?A) (?A) (?A) (?A) (?A) (?A) (?A) (?A)
 Keep R1 ints in memory in symmetry-blocked form, NReq=2430035.
 Requested convergence on RMS density matrix=1.00D-08 within 128 cycles.
 Requested convergence on MAX density matrix=1.00D-06.
 Requested convergence on             energy=1.00D-06.
 No special actions if energy rises.
 SCF Done:  E(RB3LYP) =  -39.4848564969     A.U. after    6 cycles
            NFock=  6  Conv=0.32D-08     -V/T= 2.0101
 Calling FoFJK, ICntrl=      2127 FMM=F ISym2X=1 I1Cent= 0 IOpClX= 0 NMat=1 NMatS=1 NMatT=0.
 ***** Axes restored to original set *****
 -------------------------------------------------------------------
 Center     Atomic                   Forces (Hartrees/Bohr)
 Number     Number              X              Y              Z
 -------------------------------------------------------------------
      1        6           0.000000000    0.000000000   -0.000196754
      2        1           0.000000000   -0.000057904    0.000065585
      3        1           0.000050146    0.000028952    0.000065585
      4        1          -0.000050146    0.000028952    0.000065585
 -------------------------------------------------------------------
 Cartesian Forces:  Max     0.000196754 RMS     0.000071691

 GradGradGradGradGradGradGradGradGradGradGradGradGradGradGradGradGradGrad
 Berny optimization.
 Using GEDIIS/GDIIS optimizer.
 FormGI is forming the generalized inverse of G from B-inverse, IUseBI=4.
 Internal  Forces:  Max     0.000117513 RMS     0.000058407
 Search for a local minimum.
 Step number   2 out of a maximum of   20
 All quantities printed in internal units (Hartrees-Bohrs-Radians)
 Mixed Optimization -- En-DIIS/RFO-DIIS
 Update second derivatives using D2CorX and points    1    2
 DE= -3.78D-05 DEPred=-3.88D-05 R= 9.74D-01
 TightC=F SS=  1.41D+00  RLast= 1.51D-02 DXNew= 5.0454D-01 4.5169D-02
 Trust test= 9.74D-01 RLast= 1.51D-02 DXMaxT set to 3.00D-01
 The second derivative matrix:
                          R1        R2        R3        A1        A2
           R1           0.34917
           R2           0.00194   0.34916
           R3           0.00194   0.00193   0.34916
           A1           0.00000   0.00000   0.00000   0.16000
           A2           0.00000   0.00000   0.00000   0.00000   0.16000
           A3           0.00000   0.00000   0.00000   0.00000   0.00000
           D1           0.00453   0.00453   0.00453   0.00000   0.00000
                          A3        D1
           A3           0.16000
           D1           0.00000   0.00249
 ITU=  1  0
 Use linear search instead of GDIIS.
     Eigenvalues ---    0.00231   0.16000   0.16000   0.34723   0.34723
     Eigenvalues ---    0.35321
 RFO step:  Lambda=-5.73617864D-06 EMin= 2.31166886D-03
 Quartic linear search produced a step of -0.02191.
 Iteration  1 RMS(Cart)=  0.00974108 RMS(Int)=  0.00027275
 Iteration  2 RMS(Cart)=  0.00013991 RMS(Int)=  0.00023412
 Iteration  3 RMS(Cart)=  0.00000000 RMS(Int)=  0.00023412
 ClnCor:  largest displacement from symmetrization is 5.03D-07 for atom     4.
 Variable       Old X    -DE/DX   Delta X   Delta X   Delta X     New X
                                 (Linear)    (Quad)   (Total)
    R1        2.06990  -0.00006  -0.00019   0.00066   0.00047   2.07037
    R2        2.06990  -0.00006  -0.00019   0.00066   0.00047   2.07037
    R3        2.06990  -0.00006  -0.00019   0.00066   0.00047   2.07037
    A1        2.09439   0.00000   0.00000   0.00003  -0.00033   2.09406
    A2        2.09439   0.00000   0.00000   0.00003  -0.00033   2.09406
    A3        2.09439   0.00000   0.00000   0.00003  -0.00033   2.09406
    D1       -3.13981  -0.00012  -0.00004  -0.04974  -0.04976   3.09362
         Item               Value     Threshold  Converged?
 Maximum Force            0.000118     0.000450     YES
 RMS     Force            0.000058     0.000300     YES
 Maximum Displacement     0.022310     0.001800     NO 
 RMS     Displacement     0.009739     0.001200     NO 
 Predicted change in Energy=-2.860972D-06
 GradGradGradGradGradGradGradGradGradGradGradGradGradGradGradGradGradGrad

                          Input orientation:                          
 ---------------------------------------------------------------------
 Center     Atomic      Atomic             Coordinates (Angstroms)
 Number     Number       Type             X           Y           Z
 ---------------------------------------------------------------------
      1          6           0       -1.677215    1.582279   -0.011367
      2          1           0       -1.677215    2.677768    0.003810
      3          1           0       -2.625937    1.034534    0.003810
      4          1           0       -0.728494    1.034534    0.003810
 ---------------------------------------------------------------------
                    Distance matrix (angstroms):
                    1          2          3          4
     1  C    0.000000
     2  H    1.095594   0.000000
     3  H    1.095594   1.897443   0.000000
     4  H    1.095594   1.897443   1.897443   0.000000
 Stoichiometry    CH3(1+)
 Framework group  C3V[C3(C),3SGV(H)]
 Deg. of freedom     2
 Full point group                 C3V     NOp   6
 Largest Abelian subgroup         CS      NOp   2
 Largest concise Abelian subgroup CS      NOp   2
                         Standard orientation:                         
 ---------------------------------------------------------------------
 Center     Atomic      Atomic             Coordinates (Angstroms)
 Number     Number       Type             X           Y           Z
 ---------------------------------------------------------------------
      1          6           0        0.000000    0.000000    0.005059
      2          1           0        0.000000    1.095489   -0.010118
      3          1           0        0.948721   -0.547745   -0.010118
      4          1           0       -0.948721   -0.547745   -0.010118
 ---------------------------------------------------------------------
 Rotational constants (GHZ):    278.4784389    278.4784389    139.2819114
 Standard basis: GTBas3 (6D, 7F)
 There are    30 symmetry adapted cartesian basis functions of A'  symmetry.
 There are    16 symmetry adapted cartesian basis functions of A"  symmetry.
 There are    28 symmetry adapted basis functions of A'  symmetry.
 There are    15 symmetry adapted basis functions of A"  symmetry.
    43 basis functions,    65 primitive gaussians,    46 cartesian basis functions
     4 alpha electrons        4 beta electrons
       nuclear repulsion energy         9.5307549013 Hartrees.
 NAtoms=    4 NActive=    4 NUniq=    2 SFac= 4.00D+00 NAtFMM=   60 NAOKFM=F Big=F
 Integral buffers will be    131072 words long.
 Raffenetti 2 integral format.
 Two-electron integral symmetry is turned on.
 One-electron integrals computed using PRISM.
 NBasis=    43 RedAO= T EigKep=  6.91D-03  NBF=    28    15
 NBsUse=    43 1.00D-06 EigRej= -1.00D+00 NBFU=    28    15
 Initial guess from the checkpoint file:  "/home/rjw7c5/ch3_g4_gas.chk"
 B after Tr=     0.000000    0.000000    0.000000
         Rot=    1.000000    0.000000    0.000000    0.000000 Ang=   0.00 deg.
 Initial guess orbital symmetries:
       Occupied  (A1) (A1) (E) (E)
       Virtual   (?A) (?A) (?A) (?A) (?A) (?A) (?A) (?A) (?A) (?A)
                 (?A) (?A) (?A) (?A) (?A) (?A) (?A) (?A) (?A) (?A)
                 (?A) (?A) (?A) (?A) (?A) (?A) (?A) (?A) (?A) (?A)
                 (?A) (?A) (?A) (?A) (?A) (?A) (?A) (?A) (?A)
 ExpMin= 1.61D-01 ExpMax= 3.05D+03 ExpMxC= 4.57D+02 IAcc=1 IRadAn=         1 AccDes= 0.00D+00
 Harris functional with IExCor=  402 and IRadAn=       1 diagonalized for initial guess.
 HarFok:  IExCor=  402 AccDes= 0.00D+00 IRadAn=         1 IDoV= 1 UseB2=F ITyADJ=14
 ICtDFT=  3500011 ScaDFX=  1.000000  1.000000  1.000000  1.000000
 FoFCou: FMM=F IPFlag=           0 FMFlag=      100000 FMFlg1=           0
         NFxFlg=           0 DoJE=T BraDBF=F KetDBF=T FulRan=T
         wScrn=  0.000000 ICntrl=     500 IOpCl=  0 I1Cent=   200000004 NGrid=           0
         NMat0=    1 NMatS0=      1 NMatT0=    0 NMatD0=    1 NMtDS0=    0 NMtDT0=    0
 Petite list used in FoFCou.
 Keep R1 ints in memory in symmetry-blocked form, NReq=2430035.
 Requested convergence on RMS density matrix=1.00D-08 within 128 cycles.
 Requested convergence on MAX density matrix=1.00D-06.
 Requested convergence on             energy=1.00D-06.
 No special actions if energy rises.
 Integral accuracy reduced to 1.0D-05 until final iterations.
 Initial convergence to 1.0D-05 achieved.  Increase integral accuracy.
 SCF Done:  E(RB3LYP) =  -39.4847806298     A.U. after    7 cycles
            NFock=  7  Conv=0.37D-08     -V/T= 2.0101
 Calling FoFJK, ICntrl=      2127 FMM=F ISym2X=1 I1Cent= 0 IOpClX= 0 NMat=1 NMatS=1 NMatT=0.
 ***** Axes restored to original set *****
 -------------------------------------------------------------------
 Center     Atomic                   Forces (Hartrees/Bohr)
 Number     Number              X              Y              Z
 -------------------------------------------------------------------
      1        6           0.000000000    0.000000000    0.005292302
      2        1           0.000000000   -0.000189222   -0.001764101
      3        1           0.000163871    0.000094611   -0.001764101
      4        1          -0.000163871    0.000094611   -0.001764101
 -------------------------------------------------------------------
 Cartesian Forces:  Max     0.005292302 RMS     0.001766636

 GradGradGradGradGradGradGradGradGradGradGradGradGradGradGradGradGradGrad
 Berny optimization.
 Using GEDIIS/GDIIS optimizer.
 FormGI is forming the generalized inverse of G from B-inverse, IUseBI=4.
 Internal  Forces:  Max     0.003158322 RMS     0.001202544
 Search for a local minimum.
 Step number   3 out of a maximum of   20
 All quantities printed in internal units (Hartrees-Bohrs-Radians)
 Mixed Optimization -- RFO/linear search
 Update second derivatives using D2CorX and points    1    3    2
 DE=  7.59D-05 DEPred=-2.86D-06 R=-2.65D+01
 Trust test=-2.65D+01 RLast= 4.98D-02 DXMaxT set to 1.50D-01
 The second derivative matrix:
                          R1        R2        R3        A1        A2
           R1           0.34873
           R2           0.00149   0.34871
           R3           0.00149   0.00148   0.34871
           A1          -0.00052  -0.00052  -0.00052   0.15952
           A2          -0.00061  -0.00061  -0.00061  -0.00049   0.15955
           A3          -0.00061  -0.00061  -0.00061  -0.00049  -0.00045
           D1           0.00022   0.00022   0.00022  -0.00136   0.00039
                          A3        D1
           A3           0.15955
           D1           0.00039   0.06584
 ITU= -1  1  0
 Use linear search instead of GDIIS.
 Energy rises -- skip Quadratic/GDIIS search.
 Quartic linear search produced a step of -0.96468.
 Iteration  1 RMS(Cart)=  0.00939242 RMS(Int)=  0.00013053
 Iteration  2 RMS(Cart)=  0.00013028 RMS(Int)=  0.00000797
 Iteration  3 RMS(Cart)=  0.00000000 RMS(Int)=  0.00000797
 ClnCor:  largest displacement from symmetrization is 1.70D-09 for atom     4.
 Variable       Old X    -DE/DX   Delta X   Delta X   Delta X     New X
                                 (Linear)    (Quad)   (Total)
    R1        2.07037  -0.00021  -0.00046   0.00000  -0.00046   2.06992
    R2        2.07037  -0.00021  -0.00046   0.00000  -0.00046   2.06992
    R3        2.07037  -0.00021  -0.00046   0.00000  -0.00046   2.06992
    A1        2.09406  -0.00001   0.00032   0.00000   0.00033   2.09440
    A2        2.09406   0.00007   0.00032   0.00000   0.00033   2.09440
    A3        2.09406   0.00007   0.00032   0.00000   0.00033   2.09440
    D1        3.09362   0.00316   0.04801   0.00000   0.04801  -3.14156
         Item               Value     Threshold  Converged?
 Maximum Force            0.003158     0.000450     NO 
 RMS     Force            0.001203     0.000300     NO 
 Maximum Displacement     0.021522     0.001800     NO 
 RMS     Displacement     0.009395     0.001200     NO 
 Predicted change in Energy=-1.089253D-07
 GradGradGradGradGradGradGradGradGradGradGradGradGradGradGradGradGradGrad

                          Input orientation:                          
 ---------------------------------------------------------------------
 Center     Atomic      Atomic             Coordinates (Angstroms)
 Number     Number       Type             X           Y           Z
 ---------------------------------------------------------------------
      1          6           0       -1.677215    1.582279    0.000022
      2          1           0       -1.677215    2.677631    0.000014
      3          1           0       -2.625819    1.034602    0.000014
      4          1           0       -0.728612    1.034602    0.000014
 ---------------------------------------------------------------------
                    Distance matrix (angstroms):
                    1          2          3          4
     1  C    0.000000
     2  H    1.095353   0.000000
     3  H    1.095353   1.897207   0.000000
     4  H    1.095353   1.897207   1.897207   0.000000
 Stoichiometry    CH3(1+)
 Framework group  C3V[C3(C),3SGV(H)]
 Deg. of freedom     2
 Full point group                 C3V     NOp   6
 Largest Abelian subgroup         CS      NOp   2
 Largest concise Abelian subgroup CS      NOp   2
                         Standard orientation:                         
 ---------------------------------------------------------------------
 Center     Atomic      Atomic             Coordinates (Angstroms)
 Number     Number       Type             X           Y           Z
 ---------------------------------------------------------------------
      1          6           0        0.000000    0.000000   -0.000003
      2          1           0        0.000000    1.095353    0.000006
      3          1           0        0.948603   -0.547676    0.000006
      4          1           0       -0.948603   -0.547676    0.000006
 ---------------------------------------------------------------------
 Rotational constants (GHZ):    278.6330973    278.6330973    139.3165487
 Standard basis: GTBas3 (6D, 7F)
 There are    30 symmetry adapted cartesian basis functions of A'  symmetry.
 There are    16 symmetry adapted cartesian basis functions of A"  symmetry.
 There are    28 symmetry adapted basis functions of A'  symmetry.
 There are    15 symmetry adapted basis functions of A"  symmetry.
    43 basis functions,    65 primitive gaussians,    46 cartesian basis functions
     4 alpha electrons        4 beta electrons
       nuclear repulsion energy         9.5327742957 Hartrees.
 NAtoms=    4 NActive=    4 NUniq=    2 SFac= 4.00D+00 NAtFMM=   60 NAOKFM=F Big=F
 Integral buffers will be    131072 words long.
 Raffenetti 2 integral format.
 Two-electron integral symmetry is turned on.
 One-electron integrals computed using PRISM.
 NBasis=    43 RedAO= T EigKep=  6.91D-03  NBF=    28    15
 NBsUse=    43 1.00D-06 EigRej= -1.00D+00 NBFU=    28    15
 Lowest energy guess from the checkpoint file:  "/home/rjw7c5/ch3_g4_gas.chk"
 B after Tr=     0.000000    0.000000    0.000000
         Rot=    1.000000    0.000000    0.000000    0.000000 Ang=   0.00 deg.
 B after Tr=     0.000000    0.000000    0.000000
         Rot=    1.000000    0.000000    0.000000    0.000000 Ang=   0.00 deg.
 Initial guess orbital symmetries:
       Occupied  (?A) (?A) (?A) (?A)
       Virtual   (A1) (?A) (?A) (?A) (?A) (?A) (?A) (?A) (?A) (?A)
                 (?A) (?A) (?A) (?A) (?A) (?A) (?A) (?A) (?A) (?A)
                 (?A) (?A) (?A) (?A) (?A) (?A) (?A) (?A) (?A) (?A)
                 (?A) (?A) (?A) (?A) (?A) (?A) (?A) (?A) (?A)
 Keep R1 ints in memory in symmetry-blocked form, NReq=2430035.
 Requested convergence on RMS density matrix=1.00D-08 within 128 cycles.
 Requested convergence on MAX density matrix=1.00D-06.
 Requested convergence on             energy=1.00D-06.
 No special actions if energy rises.
 Integral accuracy reduced to 1.0D-05 until final iterations.
 An orbital has undefined symmetry, so N**3 symmetry is turned off.
 Initial convergence to 1.0D-05 achieved.  Increase integral accuracy.
 SCF Done:  E(RB3LYP) =  -39.4848565988     A.U. after    5 cycles
            NFock=  5  Conv=0.49D-09     -V/T= 2.0101
 Calling FoFJK, ICntrl=      2127 FMM=F ISym2X=1 I1Cent= 0 IOpClX= 0 NMat=1 NMatS=1 NMatT=0.
 ***** Axes restored to original set *****
 -------------------------------------------------------------------
 Center     Atomic                   Forces (Hartrees/Bohr)
 Number     Number              X              Y              Z
 -------------------------------------------------------------------
      1        6           0.000000000    0.000000000   -0.000003065
      2        1           0.000000000   -0.000063784    0.000001022
      3        1           0.000055239    0.000031892    0.000001022
      4        1          -0.000055239    0.000031892    0.000001022
 -------------------------------------------------------------------
 Cartesian Forces:  Max     0.000063784 RMS     0.000031908

 GradGradGradGradGradGradGradGradGradGradGradGradGradGradGradGradGradGrad
 Berny optimization.
 Using GEDIIS/GDIIS optimizer.
 FormGI is forming the generalized inverse of G from B-inverse, IUseBI=4.
 Internal  Forces:  Max     0.000063784 RMS     0.000041762
 Search for a local minimum.
 Step number   4 out of a maximum of   20
 All quantities printed in internal units (Hartrees-Bohrs-Radians)
 Mixed Optimization -- En-DIIS/RFO-DIIS
 Update second derivatives using D2CorX and points    1    3    2    4
 The second derivative matrix:
                          R1        R2        R3        A1        A2
           R1           0.34949
           R2           0.00226   0.34947
           R3           0.00226   0.00225   0.34947
           A1          -0.00006  -0.00006  -0.00006   0.15948
           A2           0.00002   0.00002   0.00002  -0.00049   0.15954
           A3           0.00002   0.00002   0.00002  -0.00049  -0.00046
           D1           0.00004   0.00004   0.00004   0.00005  -0.00002
                          A3        D1
           A3           0.15954
           D1          -0.00002   0.06582
 ITU=  0 -1  1  0
 Use linear search instead of GDIIS.
     Eigenvalues ---    0.06582   0.16000   0.16000   0.34723   0.34723
     Eigenvalues ---    0.35399
 RFO step:  Lambda=-3.45293462D-08 EMin= 6.58185900D-02
 Quartic linear search produced a step of  0.00011.
 Iteration  1 RMS(Cart)=  0.00011808 RMS(Int)=  0.00000000
 Iteration  2 RMS(Cart)=  0.00000000 RMS(Int)=  0.00000000
 ClnCor:  largest displacement from symmetrization is 1.21D-07 for atom     2.
 Variable       Old X    -DE/DX   Delta X   Delta X   Delta X     New X
                                 (Linear)    (Quad)   (Total)
    R1        2.06992  -0.00006   0.00000  -0.00018  -0.00018   2.06974
    R2        2.06992  -0.00006   0.00000  -0.00018  -0.00018   2.06974
    R3        2.06992  -0.00006   0.00000  -0.00018  -0.00018   2.06974
    A1        2.09440   0.00000   0.00000   0.00000   0.00000   2.09440
    A2        2.09440   0.00000   0.00000   0.00000   0.00000   2.09440
    A3        2.09440   0.00000   0.00000   0.00000   0.00000   2.09440
    D1       -3.14156   0.00000   0.00000  -0.00003  -0.00003  -3.14159
         Item               Value     Threshold  Converged?
 Maximum Force            0.000064     0.000450     YES
 RMS     Force            0.000042     0.000300     YES
 Maximum Displacement     0.000180     0.001800     YES
 RMS     Displacement     0.000118     0.001200     YES
 Predicted change in Energy=-1.726467D-08
 Optimization completed.
    -- Stationary point found.
                           ----------------------------
                           !   Optimized Parameters   !
                           ! (Angstroms and Degrees)  !
 --------------------------                            --------------------------
 ! Name  Definition              Value          Derivative Info.                !
 --------------------------------------------------------------------------------
 ! R1    R(1,2)                  1.0954         -DE/DX =   -0.0001              !
 ! R2    R(1,3)                  1.0954         -DE/DX =   -0.0001              !
 ! R3    R(1,4)                  1.0954         -DE/DX =   -0.0001              !
 ! A1    A(2,1,3)              120.0            -DE/DX =    0.0                 !
 ! A2    A(2,1,4)              120.0            -DE/DX =    0.0                 !
 ! A3    A(3,1,4)              120.0            -DE/DX =    0.0                 !
 ! D1    D(2,1,4,3)           -179.9984         -DE/DX =    0.0                 !
 --------------------------------------------------------------------------------
 GradGradGradGradGradGradGradGradGradGradGradGradGradGradGradGradGradGrad

                          Input orientation:                          
 ---------------------------------------------------------------------
 Center     Atomic      Atomic             Coordinates (Angstroms)
 Number     Number       Type             X           Y           Z
 ---------------------------------------------------------------------
      1          6           0       -1.677215    1.582279    0.000022
      2          1           0       -1.677215    2.677631    0.000014
      3          1           0       -2.625819    1.034602    0.000014
      4          1           0       -0.728612    1.034602    0.000014
 ---------------------------------------------------------------------
                    Distance matrix (angstroms):
                    1          2          3          4
     1  C    0.000000
     2  H    1.095353   0.000000
     3  H    1.095353   1.897207   0.000000
     4  H    1.095353   1.897207   1.897207   0.000000
 Stoichiometry    CH3(1+)
 Framework group  C3V[C3(C),3SGV(H)]
 Deg. of freedom     2
 Full point group                 C3V     NOp   6
 Largest Abelian subgroup         CS      NOp   2
 Largest concise Abelian subgroup CS      NOp   2
                         Standard orientation:                         
 ---------------------------------------------------------------------
 Center     Atomic      Atomic             Coordinates (Angstroms)
 Number     Number       Type             X           Y           Z
 ---------------------------------------------------------------------
      1          6           0        0.000000    0.000000   -0.000003
      2          1           0        0.000000    1.095353    0.000006
      3          1           0        0.948603   -0.547676    0.000006
      4          1           0       -0.948603   -0.547676    0.000006
 ---------------------------------------------------------------------
 Rotational constants (GHZ):    278.6330973    278.6330973    139.3165487

 **********************************************************************

            Population analysis using the SCF density.

 **********************************************************************

 Orbital symmetries:
       Occupied  (?A) (?A) (?B) (?B)
       Virtual   (A1) (?A) (?B) (?B) (?B) (?B) (?A) (A1) (?C) (?C)
                 (?B) (?B) (?A) (?A) (?B) (?B) (?A) (A1) (?A) (?C)
                 (?C) (?B) (?B) (?A) (?B) (?B) (A1) (?B) (?B) (?C)
                 (?C) (?A) (?C) (?C) (?A) (?B) (?B) (?A) (?A)
 Unable to determine electronic state:  an orbital has unidentified symmetry.
 Alpha  occ. eigenvalues --  -10.65388  -1.04785  -0.78594  -0.78594
 Alpha virt. eigenvalues --   -0.48582  -0.17478  -0.12192  -0.12192   0.18588
 Alpha virt. eigenvalues --    0.18588   0.21424   0.22068   0.43358   0.43358
 Alpha virt. eigenvalues --    0.43562   0.43562   0.57634   0.96376   1.22147
 Alpha virt. eigenvalues --    1.22147   1.54665   1.78569   1.84898   1.90583
 Alpha virt. eigenvalues --    1.90583   2.36532   2.36532   2.51537   2.57000
 Alpha virt. eigenvalues --    2.57000   3.00051   3.02194   3.02194   3.06875
 Alpha virt. eigenvalues --    3.06875   3.65370   3.80308   3.80308   3.89725
 Alpha virt. eigenvalues --    4.23801   4.23801   4.86014  10.09531
          Condensed to atoms (all electrons):
               1          2          3          4
     1  C    4.967607   0.349312   0.349312   0.349312
     2  H    0.349312   0.340151  -0.013988  -0.013988
     3  H    0.349312  -0.013988   0.340151  -0.013988
     4  H    0.349312  -0.013988  -0.013988   0.340151
 Mulliken charges:
               1
     1  C   -0.015543
     2  H    0.338514
     3  H    0.338514
     4  H    0.338514
 Sum of Mulliken charges =   1.00000
 Mulliken charges with hydrogens summed into heavy atoms:
               1
     1  C    1.000000
 Electronic spatial extent (au):  <R**2>=             22.6100
 Charge=              1.0000 electrons
 Dipole moment (field-independent basis, Debye):
    X=              0.0000    Y=              0.0000    Z=              0.0000  Tot=              0.0000
 Quadrupole moment (field-independent basis, Debye-Ang):
   XX=             -4.0191   YY=             -4.0191   ZZ=             -5.0845
   XY=              0.0000   XZ=              0.0000   YZ=              0.0000
 Traceless Quadrupole moment (field-independent basis, Debye-Ang):
   XX=              0.3552   YY=              0.3552   ZZ=             -0.7103
   XY=              0.0000   XZ=              0.0000   YZ=              0.0000
 Octapole moment (field-independent basis, Debye-Ang**2):
  XXX=              0.0000  YYY=              1.7799  ZZZ=              0.0000  XYY=              0.0000
  XXY=             -1.7799  XXZ=              0.0000  XZZ=              0.0000  YZZ=              0.0000
  YYZ=              0.0000  XYZ=              0.0000
 Hexadecapole moment (field-independent basis, Debye-Ang**3):
 XXXX=             -7.9665 YYYY=             -7.9665 ZZZZ=             -3.6335 XXXY=              0.0000
 XXXZ=              0.0000 YYYX=              0.0000 YYYZ=              0.0000 ZZZX=              0.0000
 ZZZY=              0.0000 XXYY=             -2.6555 XXZZ=             -2.5459 YYZZ=             -2.5459
 XXYZ=              0.0000 YYXZ=              0.0000 ZZXY=              0.0000
 N-N= 9.532774295747D+00 E-N=-1.069859969924D+02  KE= 3.908969498864D+01
 Symmetry A'   KE= 3.688731348622D+01
 Symmetry A"   KE= 2.202381502414D+00
 1\1\GINC-TC-NODE158\FOpt\RB3LYP\GTBas3\C1H3(1+)\RJW7C5\21-Oct-2016\0\\
 # g4 geom=connectivity\\Title Card Required\\1,1\C,-1.67721522,1.58227
 85711,0.0000223455\H,-1.6772152202,2.6776314287,0.0000135515\H,-2.6258
 186207,1.0346021421,0.0000135515\H,-0.7286118191,1.0346021425,0.000013
 5515\\Version=ES64L-G09RevD.01\HF=-39.4848566\RMSD=4.894e-10\RMSF=3.19
 1e-05\Dipole=0.,0.,-0.0000005\Quadrupole=0.264054,0.264054,-0.5281079,
 0.,0.,0.\PG=C03V [C3(C1),3SGV(H1)]\\@


 THE MORE PROGRESS PHYSICAL SCIENCES MAKE, THE MORE THEY TEND TO ENTER
 THE DOMAIN OF MATHEMATICS, WHICH IS A KIND OF CENTRE TO WHICH THEY ALL
 CONVERGE.  WE MAY EVEN JUDGE THE DEGREE OF PERFECTION TO WHICH A 
 SCIENCE HAS ARRIVED BY THE FACILITY WITH WHICH IT MAY BE SUBMITTED
 TO CALCULATION.

                               -- ADOLPHE QUETELET, 1796-1874
 Job cpu time:       0 days  0 hours  1 minutes 52.8 seconds.
 File lengths (MBytes):  RWF=     72 Int=      0 D2E=      0 Chk=      2 Scr=      1
 Normal termination of Gaussian 09 at Fri Oct 21 12:07:31 2016.
 Link1:  Proceeding to internal job step number  2.
 ----------------------------------------------------------
 #N Geom=AllCheck Guess=TCheck SCRF=Check B3LYP/GTBas3 Freq
 ----------------------------------------------------------
 1/10=4,29=7,30=1,38=1,40=1/1,3;
 2/12=2,40=1/2;
 3/5=35,11=2,14=-4,16=1,25=1,30=1,70=2,71=2,74=-5,116=-2,140=1/1,2,3;
 4/5=101/1;
 5/5=2,98=1/2;
 8/6=4,10=90,11=11/1;
 11/6=1,8=1,9=11,15=111,16=1/1,2,10;
 10/6=1/2;
 6/7=2,8=2,9=2,10=2,18=1,28=1/1;
 7/8=1,10=1,25=1/1,2,3,16;
 1/10=4,30=1/3;
 99//99;
 Structure from the checkpoint file:  "/home/rjw7c5/ch3_g4_gas.chk"
 -------------------
 Title Card Required
 -------------------
 Charge =  1 Multiplicity = 1
 Redundant internal coordinates found in file.
 C,0,-1.67721522,1.5822785711,0.0000223455
 H,0,-1.6772152202,2.6776314287,0.0000135515
 H,0,-2.6258186207,1.0346021421,0.0000135515
 H,0,-0.7286118191,1.0346021425,0.0000135515
 Recover connectivity data from disk.

 GradGradGradGradGradGradGradGradGradGradGradGradGradGradGradGradGradGrad
 Berny optimization.
 Initialization pass.
                           ----------------------------
                           !    Initial Parameters    !
                           ! (Angstroms and Degrees)  !
 --------------------------                            --------------------------
 ! Name  Definition              Value          Derivative Info.                !
 --------------------------------------------------------------------------------
 ! R1    R(1,2)                  1.0954         calculate D2E/DX2 analytically  !
 ! R2    R(1,3)                  1.0954         calculate D2E/DX2 analytically  !
 ! R3    R(1,4)                  1.0954         calculate D2E/DX2 analytically  !
 ! A1    A(2,1,3)              120.0            calculate D2E/DX2 analytically  !
 ! A2    A(2,1,4)              120.0            calculate D2E/DX2 analytically  !
 ! A3    A(3,1,4)              120.0            calculate D2E/DX2 analytically  !
 ! D1    D(2,1,4,3)           -179.9984         calculate D2E/DX2 analytically  !
 --------------------------------------------------------------------------------
 Trust Radius=3.00D-01 FncErr=1.00D-07 GrdErr=1.00D-07
 Number of steps in this run=      2 maximum allowed number of steps=      2.
 GradGradGradGradGradGradGradGradGradGradGradGradGradGradGradGradGradGrad

                          Input orientation:                          
 ---------------------------------------------------------------------
 Center     Atomic      Atomic             Coordinates (Angstroms)
 Number     Number       Type             X           Y           Z
 ---------------------------------------------------------------------
      1          6           0       -1.677215    1.582279    0.000022
      2          1           0       -1.677215    2.677631    0.000014
      3          1           0       -2.625819    1.034602    0.000014
      4          1           0       -0.728612    1.034602    0.000014
 ---------------------------------------------------------------------
                    Distance matrix (angstroms):
                    1          2          3          4
     1  C    0.000000
     2  H    1.095353   0.000000
     3  H    1.095353   1.897207   0.000000
     4  H    1.095353   1.897207   1.897207   0.000000
 Stoichiometry    CH3(1+)
 Framework group  C3V[C3(C),3SGV(H)]
 Deg. of freedom     2
 Full point group                 C3V     NOp   6
 Largest Abelian subgroup         CS      NOp   2
 Largest concise Abelian subgroup CS      NOp   2
                         Standard orientation:                         
 ---------------------------------------------------------------------
 Center     Atomic      Atomic             Coordinates (Angstroms)
 Number     Number       Type             X           Y           Z
 ---------------------------------------------------------------------
      1          6           0        0.000000    0.000000   -0.000003
      2          1           0        0.000000    1.095353    0.000006
      3          1           0        0.948603   -0.547676    0.000006
      4          1           0       -0.948603   -0.547676    0.000006
 ---------------------------------------------------------------------
 Rotational constants (GHZ):    278.6330973    278.6330973    139.3165487
 Standard basis: GTBas3 (6D, 7F)
 There are    30 symmetry adapted cartesian basis functions of A'  symmetry.
 There are    16 symmetry adapted cartesian basis functions of A"  symmetry.
 There are    28 symmetry adapted basis functions of A'  symmetry.
 There are    15 symmetry adapted basis functions of A"  symmetry.
    43 basis functions,    65 primitive gaussians,    46 cartesian basis functions
     4 alpha electrons        4 beta electrons
       nuclear repulsion energy         9.5327742957 Hartrees.
 NAtoms=    4 NActive=    4 NUniq=    2 SFac= 4.00D+00 NAtFMM=   60 NAOKFM=F Big=F
 Integral buffers will be    131072 words long.
 Raffenetti 2 integral format.
 Two-electron integral symmetry is turned on.
 One-electron integrals computed using PRISM.
 NBasis=    43 RedAO= T EigKep=  6.91D-03  NBF=    28    15
 NBsUse=    43 1.00D-06 EigRej= -1.00D+00 NBFU=    28    15
 Initial guess from the checkpoint file:  "/home/rjw7c5/ch3_g4_gas.chk"
 B after Tr=     0.000000    0.000000    0.000000
         Rot=    1.000000    0.000000    0.000000    0.000000 Ang=   0.00 deg.
 Initial guess orbital symmetries:
       Occupied  (?A) (?A) (?B) (?B)
       Virtual   (A1) (?A) (?B) (?B) (?B) (?B) (?A) (A1) (?C) (?C)
                 (?B) (?B) (?A) (?A) (?B) (?B) (?A) (A1) (?A) (?C)
                 (?C) (?B) (?B) (?A) (?B) (?B) (A1) (?B) (?B) (?C)
                 (?C) (?A) (?C) (?C) (?A) (?B) (?B) (?A) (?A)
 Keep R1 ints in memory in symmetry-blocked form, NReq=2430035.
 Requested convergence on RMS density matrix=1.00D-08 within 128 cycles.
 Requested convergence on MAX density matrix=1.00D-06.
 Requested convergence on             energy=1.00D-06.
 No special actions if energy rises.
 An orbital has undefined symmetry, so N**3 symmetry is turned off.
 Skip diagonalization as Alpha Fock matrix is already diagonal.
 SCF Done:  E(RB3LYP) =  -39.4848565988     A.U. after    1 cycles
            NFock=  1  Conv=0.91D-18     -V/T= 2.0101
 DoSCS=F DFT=T ScalE2(SS,OS)=  1.000000  1.000000
 Range of M.O.s used for correlation:     1    43
 NBasis=    43 NAE=     4 NBE=     4 NFC=     0 NFV=     0
 NROrb=     43 NOA=     4 NOB=     4 NVA=    39 NVB=    39
 Symmetrizing basis deriv contribution to polar:
 IMax=3 JMax=2 DiffMx= 0.00D+00
 G2DrvN: will do     5 centers at a time, making    1 passes.
 Calling FoFCou, ICntrl=  3107 FMM=F I1Cent=   0 AccDes= 0.00D+00.
 End of G2Drv F.D. properties file   721 does not exist.
 End of G2Drv F.D. properties file   722 does not exist.
 End of G2Drv F.D. properties file   788 does not exist.
          IDoAtm=1111
          Differentiating once with respect to electric field.
                with respect to dipole field.
          Differentiating once with respect to nuclear coordinates.
 Keep R1 ints in memory in canonical form, NReq=2411173.
          There are     9 degrees of freedom in the 1st order CPHF.  IDoFFX=4 NUNeed=     9.
      9 vectors produced by pass  0 Test12= 1.73D-15 1.11D-08 XBig12= 4.05D+00 1.44D+00.
 AX will form     9 AO Fock derivatives at one time.
      9 vectors produced by pass  1 Test12= 1.73D-15 1.11D-08 XBig12= 4.41D-02 1.11D-01.
      9 vectors produced by pass  2 Test12= 1.73D-15 1.11D-08 XBig12= 2.56D-04 7.12D-03.
      9 vectors produced by pass  3 Test12= 1.73D-15 1.11D-08 XBig12= 2.51D-07 1.97D-04.
      8 vectors produced by pass  4 Test12= 1.73D-15 1.11D-08 XBig12= 1.45D-10 4.86D-06.
      3 vectors produced by pass  5 Test12= 1.73D-15 1.11D-08 XBig12= 4.69D-14 8.29D-08.
 InvSVY:  IOpt=1 It=  1 EMax= 4.44D-16
 Solved reduced A of dimension    47 with     9 vectors.
 Isotropic polarizability for W=    0.000000        8.20 Bohr**3.
 End of Minotr F.D. properties file   721 does not exist.
 End of Minotr F.D. properties file   722 does not exist.
 End of Minotr F.D. properties file   788 does not exist.

 **********************************************************************

            Population analysis using the SCF density.

 **********************************************************************

 Orbital symmetries:
       Occupied  (?A) (?A) (?B) (?B)
       Virtual   (A1) (?A) (?B) (?B) (?B) (?B) (?A) (A1) (?C) (?C)
                 (?B) (?B) (?A) (?A) (?B) (?B) (?A) (A1) (?A) (?C)
                 (?C) (?B) (?B) (?A) (?B) (?B) (A1) (?B) (?B) (?C)
                 (?C) (?A) (?C) (?C) (?A) (?B) (?B) (?A) (?A)
 Unable to determine electronic state:  an orbital has unidentified symmetry.
 Alpha  occ. eigenvalues --  -10.65388  -1.04785  -0.78594  -0.78594
 Alpha virt. eigenvalues --   -0.48582  -0.17478  -0.12192  -0.12192   0.18588
 Alpha virt. eigenvalues --    0.18588   0.21424   0.22068   0.43358   0.43358
 Alpha virt. eigenvalues --    0.43562   0.43562   0.57634   0.96376   1.22147
 Alpha virt. eigenvalues --    1.22147   1.54665   1.78569   1.84898   1.90583
 Alpha virt. eigenvalues --    1.90583   2.36532   2.36532   2.51537   2.57000
 Alpha virt. eigenvalues --    2.57000   3.00051   3.02194   3.02194   3.06875
 Alpha virt. eigenvalues --    3.06875   3.65370   3.80308   3.80308   3.89725
 Alpha virt. eigenvalues --    4.23801   4.23801   4.86014  10.09531
          Condensed to atoms (all electrons):
               1          2          3          4
     1  C    4.967607   0.349312   0.349312   0.349312
     2  H    0.349312   0.340151  -0.013988  -0.013988
     3  H    0.349312  -0.013988   0.340151  -0.013988
     4  H    0.349312  -0.013988  -0.013988   0.340151
 Mulliken charges:
               1
     1  C   -0.015543
     2  H    0.338514
     3  H    0.338514
     4  H    0.338514
 Sum of Mulliken charges =   1.00000
 Mulliken charges with hydrogens summed into heavy atoms:
               1
     1  C    1.000000
 APT charges:
               1
     1  C    0.435083
     2  H    0.188307
     3  H    0.188306
     4  H    0.188306
 Sum of APT charges =   1.00000
 APT charges with hydrogens summed into heavy atoms:
               1
     1  C    1.000002
 Electronic spatial extent (au):  <R**2>=             22.6100
 Charge=              1.0000 electrons
 Dipole moment (field-independent basis, Debye):
    X=              0.0000    Y=              0.0000    Z=              0.0000  Tot=              0.0000
 Quadrupole moment (field-independent basis, Debye-Ang):
   XX=             -4.0191   YY=             -4.0191   ZZ=             -5.0845
   XY=              0.0000   XZ=              0.0000   YZ=              0.0000
 Traceless Quadrupole moment (field-independent basis, Debye-Ang):
   XX=              0.3552   YY=              0.3552   ZZ=             -0.7103
   XY=              0.0000   XZ=              0.0000   YZ=              0.0000
 Octapole moment (field-independent basis, Debye-Ang**2):
  XXX=              0.0000  YYY=              1.7799  ZZZ=              0.0000  XYY=              0.0000
  XXY=             -1.7799  XXZ=              0.0000  XZZ=              0.0000  YZZ=              0.0000
  YYZ=              0.0000  XYZ=              0.0000
 Hexadecapole moment (field-independent basis, Debye-Ang**3):
 XXXX=             -7.9665 YYYY=             -7.9665 ZZZZ=             -3.6335 XXXY=              0.0000
 XXXZ=              0.0000 YYYX=              0.0000 YYYZ=              0.0000 ZZZX=              0.0000
 ZZZY=              0.0000 XXYY=             -2.6555 XXZZ=             -2.5459 YYZZ=             -2.5459
 XXYZ=              0.0000 YYXZ=              0.0000 ZZXY=              0.0000
 N-N= 9.532774295747D+00 E-N=-1.069859969924D+02  KE= 3.908969498864D+01
 Symmetry A'   KE= 3.688731348622D+01
 Symmetry A"   KE= 2.202381502414D+00
  Exact polarizability:   9.511   0.000   9.511   0.000   0.000   5.590
 Approx polarizability:  11.256   0.000  11.256   0.000   0.000   7.940
 Calling FoFJK, ICntrl=    100127 FMM=F ISym2X=1 I1Cent= 0 IOpClX= 0 NMat=1 NMatS=1 NMatT=0.
 Full mass-weighted force constant matrix:
 Low frequencies ---   -0.6378   -0.1380   -0.0065   17.5939   17.6054   27.0826
 Low frequencies --- 1403.0626 1403.0638 1420.6216
 Diagonal vibrational polarizability:
        0.4478504       0.4479016       0.1414448
 Harmonic frequencies (cm**-1), IR intensities (KM/Mole), Raman scattering
 activities (A**4/AMU), depolarization ratios for plane and unpolarized
 incident light, reduced masses (AMU), force constants (mDyne/A),
 and normal coordinates:
                      1                      2                      3
                     ?A                     ?A                     A1
 Frequencies --   1403.0626              1403.0638              1420.6216
 Red. masses --      1.0980                 1.0980                 1.2356
 Frc consts  --      1.2735                 1.2735                 1.4692
 IR Inten    --     18.5263                18.5232                10.6074
  Atom  AN      X      Y      Z        X      Y      Z        X      Y      Z
     1   6     0.00   0.09   0.00    -0.09   0.00   0.00     0.00   0.00   0.14
     2   1     0.00   0.09   0.00     0.81   0.00   0.00     0.00   0.00  -0.57
     3   1    -0.39  -0.58   0.00     0.14   0.39   0.00     0.00   0.00  -0.57
     4   1     0.39  -0.58   0.00     0.14  -0.39   0.00     0.00   0.00  -0.57
                      4                      5                      6
                     ?B                     ?A                     ?A
 Frequencies --   3026.7567              3225.0345              3225.0347
 Red. masses --      1.0078                 1.1226                 1.1226
 Frc consts  --      5.4399                 6.8794                 6.8794
 IR Inten    --      0.0000                75.2228                75.2265
  Atom  AN      X      Y      Z        X      Y      Z        X      Y      Z
     1   6     0.00   0.00   0.00     0.10   0.00   0.00     0.00   0.10   0.00
     2   1     0.00   0.58   0.00     0.00   0.00   0.00     0.00  -0.81   0.00
     3   1     0.50  -0.29   0.00    -0.61   0.35   0.00     0.35  -0.20   0.00
     4   1    -0.50  -0.29   0.00    -0.61  -0.35   0.00    -0.35  -0.20   0.00

 -------------------
 - Thermochemistry -
 -------------------
 Temperature   298.150 Kelvin.  Pressure   1.00000 Atm.
 Atom     1 has atomic number  6 and mass  12.00000
 Atom     2 has atomic number  1 and mass   1.00783
 Atom     3 has atomic number  1 and mass   1.00783
 Atom     4 has atomic number  1 and mass   1.00783
 Molecular mass:    15.02348 amu.
 Principal axes and moments of inertia in atomic units:
                           1         2         3
     Eigenvalues --     6.47712   6.47712  12.95425
           X           -0.06880   0.99763   0.00000
           Y            0.99763   0.06880   0.00000
           Z            0.00000   0.00000   1.00000
 This molecule is an oblate symmetric top.
 Rotational symmetry number  3.
 Rotational temperatures (Kelvin)     13.37226    13.37226     6.68613
 Rotational constants (GHZ):         278.63310   278.63310   139.31655
 Zero-point vibrational energy      81965.6 (Joules/Mol)
                                   19.59024 (Kcal/Mol)
 Vibrational temperatures:   2018.69  2018.69  2043.96  4354.82  4640.10
          (Kelvin)           4640.10
 
 Zero-point correction=                           0.031219 (Hartree/Particle)
 Thermal correction to Energy=                    0.034073
 Thermal correction to Enthalpy=                  0.035017
 Thermal correction to Gibbs Free Energy=         0.013163
 Sum of electronic and zero-point Energies=            -39.453638
 Sum of electronic and thermal Energies=               -39.450783
 Sum of electronic and thermal Enthalpies=             -39.449839
 Sum of electronic and thermal Free Energies=          -39.471694
 
                     E (Thermal)             CV                S
                      KCal/Mol        Cal/Mol-Kelvin    Cal/Mol-Kelvin
 Total                   21.381              6.270             45.997
 Electronic               0.000              0.000              0.000
 Translational            0.889              2.981             34.068
 Rotational               0.889              2.981             11.877
 Vibrational             19.604              0.308              0.052
                       Q            Log10(Q)             Ln(Q)
 Total Bot       0.882367D-06         -6.054351        -13.940658
 Total V=0       0.202013D+09          8.305379         19.123842
 Vib (Bot)       0.438253D-14        -14.358275        -33.061151
 Vib (V=0)       0.100336D+01          0.001455          0.003350
 Electronic      0.100000D+01          0.000000          0.000000
 Translational   0.228882D+07          6.359611         14.643545
 Rotational      0.879657D+02          1.944314          4.476947
 ***** Axes restored to original set *****
 -------------------------------------------------------------------
 Center     Atomic                   Forces (Hartrees/Bohr)
 Number     Number              X              Y              Z
 -------------------------------------------------------------------
      1        6           0.000000000    0.000000000   -0.000003065
      2        1           0.000000000   -0.000063785    0.000001022
      3        1           0.000055239    0.000031892    0.000001022
      4        1          -0.000055239    0.000031892    0.000001022
 -------------------------------------------------------------------
 Cartesian Forces:  Max     0.000063785 RMS     0.000031909
 FormGI is forming the generalized inverse of G from B-inverse, IUseBI=4.

 GradGradGradGradGradGradGradGradGradGradGradGradGradGradGradGradGradGrad
 Berny optimization.
 Internal  Forces:  Max     0.000063785 RMS     0.000041763
 Search for a local minimum.
 Step number   1 out of a maximum of    2
 All quantities printed in internal units (Hartrees-Bohrs-Radians)
 Second derivative matrix not updated -- analytic derivatives used.
 The second derivative matrix:
                          R1        R2        R3        A1        A2
           R1           0.35196
           R2          -0.00127   0.35196
           R3          -0.00127  -0.00127   0.35196
           A1           0.00316   0.00316  -0.00632   0.06426
           A2           0.00316  -0.00632   0.00316  -0.03213   0.06426
           A3          -0.00632   0.00316   0.00316  -0.03213  -0.03213
           D1           0.00000   0.00000   0.00000   0.00000   0.00000
                          A3        D1
           A3           0.06426
           D1           0.00000   0.06582
 ITU=  0
     Eigenvalues ---    0.06582   0.09605   0.09605   0.34941   0.35358
     Eigenvalues ---    0.35358
 Angle between quadratic step and forces=   4.08 degrees.
 Linear search not attempted -- first point.
 Iteration  1 RMS(Cart)=  0.00011963 RMS(Int)=  0.00000000
 Iteration  2 RMS(Cart)=  0.00000000 RMS(Int)=  0.00000000
 ClnCor:  largest displacement from symmetrization is 5.55D-10 for atom     4.
 Variable       Old X    -DE/DX   Delta X   Delta X   Delta X     New X
                                 (Linear)    (Quad)   (Total)
    R1        2.06992  -0.00006   0.00000  -0.00018  -0.00018   2.06973
    R2        2.06992  -0.00006   0.00000  -0.00018  -0.00018   2.06973
    R3        2.06992  -0.00006   0.00000  -0.00018  -0.00018   2.06973
    A1        2.09440   0.00000   0.00000   0.00000   0.00000   2.09440
    A2        2.09440   0.00000   0.00000   0.00000   0.00000   2.09440
    A3        2.09440   0.00000   0.00000   0.00000   0.00000   2.09440
    D1       -3.14156   0.00000   0.00000  -0.00003  -0.00003   3.14159
         Item               Value     Threshold  Converged?
 Maximum Force            0.000064     0.000450     YES
 RMS     Force            0.000042     0.000300     YES
 Maximum Displacement     0.000183     0.001800     YES
 RMS     Displacement     0.000120     0.001200     YES
 Predicted change in Energy=-1.749147D-08
 Optimization completed.
    -- Stationary point found.
                           ----------------------------
                           !   Optimized Parameters   !
                           ! (Angstroms and Degrees)  !
 --------------------------                            --------------------------
 ! Name  Definition              Value          Derivative Info.                !
 --------------------------------------------------------------------------------
 ! R1    R(1,2)                  1.0954         -DE/DX =   -0.0001              !
 ! R2    R(1,3)                  1.0954         -DE/DX =   -0.0001              !
 ! R3    R(1,4)                  1.0954         -DE/DX =   -0.0001              !
 ! A1    A(2,1,3)              120.0            -DE/DX =    0.0                 !
 ! A2    A(2,1,4)              120.0            -DE/DX =    0.0                 !
 ! A3    A(3,1,4)              120.0            -DE/DX =    0.0                 !
 ! D1    D(2,1,4,3)            180.0016         -DE/DX =    0.0                 !
 --------------------------------------------------------------------------------
 GradGradGradGradGradGradGradGradGradGradGradGradGradGradGradGradGradGrad

 1\1\GINC-TC-NODE158\Freq\RB3LYP\GTBas3\C1H3(1+)\RJW7C5\21-Oct-2016\0\\
 #N Geom=AllCheck Guess=TCheck SCRF=Check B3LYP/GTBas3 Freq\\Title Card
  Required\\1,1\C,-1.67721522,1.5822785711,0.0000223455\H,-1.6772152202
 ,2.6776314287,0.0000135515\H,-2.6258186207,1.0346021421,0.0000135515\H
 ,-0.7286118191,1.0346021425,0.0000135515\\Version=ES64L-G09RevD.01\HF=
 -39.4848566\RMSD=9.095e-19\RMSF=3.191e-05\ZeroPoint=0.031219\Thermal=0
 .0340731\Dipole=0.,0.,-0.0000005\DipoleDeriv=0.3343127,0.,0.,0.,0.3342
 803,0.,0.,0.,0.6366556,0.1739586,0.,0.,0.,0.2698416,-0.0000033,0.,-0.0
 000016,0.1211212,0.2458676,0.0415202,0.0000029,0.0415231,0.1979342,0.0
 000017,0.0000014,0.0000008,0.1211164,0.2458676,-0.0415202,-0.0000029,-
 0.0415231,0.1979342,0.0000017,-0.0000014,0.0000008,0.1211164\Polar=9.5
 10631,0.,9.5107752,0.,0.,5.5903956\PG=C03V [C3(C1),3SGV(H1)]\NImag=0\\
 0.60734701,0.,0.60734578,0.,0.,0.18443794,-0.05959913,0.,0.,0.04502696
 ,0.,-0.34530089,0.00000144,0.,0.35195639,0.,0.00000226,-0.06148201,0.,
 -0.00000200,0.02050187,-0.27387470,-0.12371223,-0.00000125,0.00728537,
 0.00339275,-0.00000025,0.27522404,-0.12371261,-0.13102351,-0.00000072,
 -0.02177397,-0.00332704,-0.00000013,0.13290434,0.12175932,-0.00000196,
 -0.00000113,-0.06147999,0.,0.00000028,0.02049007,0.00000173,0.00000100
 ,0.02050187,-0.27387470,0.12371223,0.00000125,0.00728537,-0.00339275,0
 .00000025,-0.00863324,0.01258336,0.00000024,0.27522404,0.12371261,-0.1
 3102351,-0.00000072,0.02177397,-0.00332704,-0.00000013,-0.01258336,0.0
 1259157,-0.00000015,-0.13290434,0.12175932,0.00000196,-0.00000113,-0.0
 6147999,0.,0.00000028,0.02049007,-0.00000024,-0.00000015,0.02049007,-0
 .00000173,0.00000100,0.02050187\\0.,0.,0.00000307,0.,0.00006378,-0.000
 00102,-0.00005524,-0.00003189,-0.00000102,0.00005524,-0.00003189,-0.00
 000102\\\@


 MAN IS THE MEASURE OF ALL THINGS.
  -- PROTAGORAS (5TH CENTURY B.C.)
 Job cpu time:       0 days  0 hours  1 minutes  2.2 seconds.
 File lengths (MBytes):  RWF=     82 Int=      0 D2E=      0 Chk=      2 Scr=      1
 Normal termination of Gaussian 09 at Fri Oct 21 12:07:38 2016.
 Link1:  Proceeding to internal job step number  3.
 -----------------------------------------------------------------
 #N Geom=AllCheck Guess=TCheck SCRF=Check CCSD(T,E4T,FrzG4)/GTBas1
 -----------------------------------------------------------------
 1/29=7,38=1,40=1/1;
 2/12=2,40=1/2;
 3/5=33,11=9,14=-4,16=1,25=1,30=1,70=2,116=-2/1,2,3;
 4/5=101/1;
 5/5=2/2;
 8/6=4,9=120000,10=6/1,4;
 9/5=7,14=4/13;
 6/7=2,8=2,9=2,10=2/1;
 99/5=1,9=1/99;
 Structure from the checkpoint file:  "/home/rjw7c5/ch3_g4_gas.chk"
 -------------------
 Title Card Required
 -------------------
 Charge =  1 Multiplicity = 1
 Redundant internal coordinates found in file.
 C,0,-1.67721522,1.5822785711,0.0000223455
 H,0,-1.6772152202,2.6776314287,0.0000135515
 H,0,-2.6258186207,1.0346021421,0.0000135515
 H,0,-0.7286118191,1.0346021425,0.0000135515
 Recover connectivity data from disk.
                          Input orientation:                          
 ---------------------------------------------------------------------
 Center     Atomic      Atomic             Coordinates (Angstroms)
 Number     Number       Type             X           Y           Z
 ---------------------------------------------------------------------
      1          6           0       -1.677215    1.582279    0.000022
      2          1           0       -1.677215    2.677631    0.000014
      3          1           0       -2.625819    1.034602    0.000014
      4          1           0       -0.728612    1.034602    0.000014
 ---------------------------------------------------------------------
                    Distance matrix (angstroms):
                    1          2          3          4
     1  C    0.000000
     2  H    1.095353   0.000000
     3  H    1.095353   1.897207   0.000000
     4  H    1.095353   1.897207   1.897207   0.000000
 Stoichiometry    CH3(1+)
 Framework group  C3V[C3(C),3SGV(H)]
 Deg. of freedom     2
 Full point group                 C3V     NOp   6
 Largest Abelian subgroup         CS      NOp   2
 Largest concise Abelian subgroup CS      NOp   2
                         Standard orientation:                         
 ---------------------------------------------------------------------
 Center     Atomic      Atomic             Coordinates (Angstroms)
 Number     Number       Type             X           Y           Z
 ---------------------------------------------------------------------
      1          6           0        0.000000    0.000000   -0.000003
      2          1           0        0.000000    1.095353    0.000006
      3          1           0        0.948603   -0.547676    0.000006
      4          1           0       -0.948603   -0.547676    0.000006
 ---------------------------------------------------------------------
 Rotational constants (GHZ):    278.6330973    278.6330973    139.3165487
 Standard basis: GTBas1 (6D, 7F)
 There are    15 symmetry adapted cartesian basis functions of A'  symmetry.
 There are     6 symmetry adapted cartesian basis functions of A"  symmetry.
 There are    15 symmetry adapted basis functions of A'  symmetry.
 There are     6 symmetry adapted basis functions of A"  symmetry.
    21 basis functions,    40 primitive gaussians,    21 cartesian basis functions
     4 alpha electrons        4 beta electrons
       nuclear repulsion energy         9.5327742957 Hartrees.
 NAtoms=    4 NActive=    4 NUniq=    2 SFac= 4.00D+00 NAtFMM=   60 NAOKFM=F Big=F
 Integral buffers will be    131072 words long.
 Raffenetti 1 integral format.
 Two-electron integral symmetry is turned on.
 One-electron integrals computed using PRISM.
 NBasis=    21 RedAO= T EigKep=  3.52D-02  NBF=    15     6
 NBsUse=    21 1.00D-06 EigRej= -1.00D+00 NBFU=    15     6
 Initial guess from the checkpoint file:  "/home/rjw7c5/ch3_g4_gas.chk"
 B after Tr=     0.000000    0.000000    0.000000
         Rot=    1.000000    0.000000    0.000000    0.000000 Ang=   0.00 deg.
 Initial guess orbital symmetries:
       Occupied  (A1) (A1) (?A) (?A)
       Virtual   (A1) (A1) (?A) (?A) (?A) (?A) (A1) (A1) (E) (E)
                 (?A) (?A) (A1) (A1) (?A) (?A) (A1)
 Keep R1 ints in memory in symmetry-blocked form, NReq=875527.
 Requested convergence on RMS density matrix=1.00D-08 within 128 cycles.
 Requested convergence on MAX density matrix=1.00D-06.
 Requested convergence on             energy=1.00D-06.
 No special actions if energy rises.
 An orbital has undefined symmetry, so N**3 symmetry is turned off.
 SCF Done:  E(RHF) =  -39.2300314933     A.U. after    7 cycles
            NFock=  7  Conv=0.71D-08     -V/T= 2.0023
 ExpMin= 1.61D-01 ExpMax= 3.05D+03 ExpMxC= 4.57D+02 IAcc=3 IRadAn=         5 AccDes= 0.00D+00
 HarFok:  IExCor=  205 AccDes= 0.00D+00 IRadAn=         5 IDoV=-2 UseB2=F ITyADJ=14
 ICtDFT= 12500011 ScaDFX=  1.000000  1.000000  1.000000  1.000000
 Range of M.O.s used for correlation:     2    21
 NBasis=    21 NAE=     4 NBE=     4 NFC=     1 NFV=     0
 NROrb=     20 NOA=     3 NOB=     3 NVA=    17 NVB=    17
 Semi-Direct transformation.
 ModeAB=           2 MOrb=             3 LenV=    6442283331
 LASXX=        10104 LTotXX=       10104 LenRXX=       10104
 LTotAB=       11664 MaxLAS=       13860 LenRXY=       13860
 NonZer=       20208 LenScr=      655360 LnRSAI=           0
 LnScr1=           0 LExtra=           0 Total=       679324
 MaxDsk=          -1 SrtSym=           F ITran=            4
 JobTyp=0 Pass  1:  I=   1 to   3.
 (rs|ai) integrals will be sorted in core.
 SymMOI:  orbitals are not symmetric.
 Spin components of T(2) and E(2):
     alpha-alpha T2 =       0.2106571537D-02 E2=     -0.6801919151D-02
     alpha-beta  T2 =       0.2613601615D-01 E2=     -0.8165997615D-01
     beta-beta   T2 =       0.2106571537D-02 E2=     -0.6801919151D-02
 ANorm=    0.1015061160D+01
 E2 =    -0.9526381445D-01 EUMP2 =    -0.39325295307740D+02
 Keep R2 and R3 ints in memory in canonical form, NReq=874872.
 Iterations=  50 Convergence= 0.100D-06
 Iteration Nr.   1
 **********************
 DD1Dir will call FoFMem   1 times, MxPair=        12
 NAB=     6 NAA=     0 NBB=     0.
 MP4(R+Q)=  0.12091344D-02
 T4(AAA)= -0.86739148D-05
 T4(AAB)= -0.56564051D-03
 Time for triples=        0.13 seconds.
 MP4(T)=   -0.11486288D-02
 E3=       -0.16601601D-01        EUMP3=      -0.39341896908D+02
 E4(DQ)=   -0.27963428D-02        UMP4(DQ)=   -0.39344693251D+02
 E4(SDQ)=  -0.31560343D-02        UMP4(SDQ)=  -0.39345052943D+02
 E4(SDTQ)= -0.43046631D-02        UMP4(SDTQ)= -0.39346201572D+02
 DE(Corr)= -0.11063398     E(Corr)=     -39.340665473    
 NORM(A)=   0.10222109D+01
 Iteration Nr.   2
 **********************
 DD1Dir will call FoFMem   1 times, MxPair=        12
 NAB=     6 NAA=     0 NBB=     0.
 DE(Corr)= -0.11495138     E(CORR)=     -39.344982870     Delta=-4.32D-03
 NORM(A)=   0.10234690D+01
 Iteration Nr.   3
 **********************
 DD1Dir will call FoFMem   1 times, MxPair=        12
 NAB=     6 NAA=     0 NBB=     0.
 DE(Corr)= -0.11573446     E(CORR)=     -39.345765950     Delta=-7.83D-04
 NORM(A)=   0.10236404D+01
 Iteration Nr.   4
 **********************
 DD1Dir will call FoFMem   1 times, MxPair=        12
 NAB=     6 NAA=     0 NBB=     0.
 DE(Corr)= -0.11584301     E(CORR)=     -39.345874504     Delta=-1.09D-04
 NORM(A)=   0.10236481D+01
 Iteration Nr.   5
 **********************
 DD1Dir will call FoFMem   1 times, MxPair=        12
 NAB=     6 NAA=     0 NBB=     0.
 DE(Corr)= -0.11584678     E(CORR)=     -39.345878277     Delta=-3.77D-06
 NORM(A)=   0.10236456D+01
 Iteration Nr.   6
 **********************
 DD1Dir will call FoFMem   1 times, MxPair=        12
 NAB=     6 NAA=     0 NBB=     0.
 DE(Corr)= -0.11584656     E(CORR)=     -39.345878054     Delta= 2.24D-07
 NORM(A)=   0.10236455D+01
 Iteration Nr.   7
 **********************
 DD1Dir will call FoFMem   1 times, MxPair=        12
 NAB=     6 NAA=     0 NBB=     0.
 DE(Corr)= -0.11584673     E(CORR)=     -39.345878226     Delta=-1.72D-07
 NORM(A)=   0.10236455D+01
 Iteration Nr.   8
 **********************
 DD1Dir will call FoFMem   1 times, MxPair=        12
 NAB=     6 NAA=     0 NBB=     0.
 DE(Corr)= -0.11584673     E(CORR)=     -39.345878228     Delta=-2.13D-09
 NORM(A)=   0.10236455D+01
 Largest amplitude= 6.02D-02
 T4(AAA)= -0.89024731D-05
 T4(AAB)= -0.81825899D-03
 T5(AAA)=  0.53469420D-06
 T5(AAB)=  0.23587352D-04
 Time for triples=        0.11 seconds.
 T4(CCSD)= -0.16543229D-02
 T5(CCSD)=  0.48244093D-04
 CCSD(T)= -0.39347484307D+02
 Discarding MO integrals.

 **********************************************************************

[...]
                 (?B) (?C) (?D) (?D) (?B) (?B) (?A) (?D) (?D) (?A)
                 (?C) (?B) (?B) (?A) (?B) (?B) (?A) (?B) (?B) (?A)
 Unable to determine electronic state:  an orbital has unidentified symmetry.
 Alpha  occ. eigenvalues --  -11.68300  -1.27339  -0.94770  -0.94770
 Alpha virt. eigenvalues --   -0.28405  -0.12283  -0.08415  -0.08415  -0.06680
 Alpha virt. eigenvalues --   -0.00681  -0.00681   0.00556   0.13286   0.13286
 Alpha virt. eigenvalues --    0.20699   0.21019   0.28838   0.28838   0.29840
 Alpha virt. eigenvalues --    0.29840   0.32244   0.49643   0.54100   0.54100
 Alpha virt. eigenvalues --    0.66160   0.84547   0.87273   0.87273   1.17623
 Alpha virt. eigenvalues --    1.17623   1.22884   1.26708   1.26708   1.28390
 Alpha virt. eigenvalues --    1.30930   1.32389   1.32389   1.38865   1.38865
 Alpha virt. eigenvalues --    1.69195   1.69195   1.80458   1.80550   1.80550
 Alpha virt. eigenvalues --    1.86551   1.90025   1.90025   2.01056   2.02778
 Alpha virt. eigenvalues --    2.77746   2.77746   3.03618   3.11277   3.49825
 Alpha virt. eigenvalues --    3.49825   3.58035   3.58035   3.62629   3.79690
 Alpha virt. eigenvalues --    3.85992   3.86166   3.86166   3.92541   3.92541
 Alpha virt. eigenvalues --    4.05109   4.05109   4.17604   4.43953   4.43953
 Alpha virt. eigenvalues --    4.48679   4.48679   4.60723   4.78062   4.92738
 Alpha virt. eigenvalues --    4.92738   5.09497   5.24942   5.24942   5.28781
 Alpha virt. eigenvalues --    5.45712   5.53113   5.53113   5.69127   5.81641
 Alpha virt. eigenvalues --    5.81641   5.89075   6.04449   6.04449   6.43689
 Alpha virt. eigenvalues --    6.43689   6.85643   6.86454   6.86454   6.93274
 Alpha virt. eigenvalues --    6.95627   7.28882   7.28882   7.32648   7.75854
 Alpha virt. eigenvalues --    7.75854   9.38064   9.89143   9.89143  22.20986
          Condensed to atoms (all electrons):
               1          2          3          4
     1  C    4.599199   0.389652   0.389652   0.389652
     2  H    0.389652   0.376432  -0.011068  -0.011068
     3  H    0.389652  -0.011068   0.376432  -0.011068
     4  H    0.389652  -0.011068  -0.011068   0.376432
 Mulliken charges:
               1
     1  C    0.231845
     2  H    0.256052
     3  H    0.256052
     4  H    0.256052
 Sum of Mulliken charges =   1.00000
 Mulliken charges with hydrogens summed into heavy atoms:
               1
     1  C    1.000000
 Electronic spatial extent (au):  <R**2>=             22.5846
 Charge=              1.0000 electrons
 Dipole moment (field-independent basis, Debye):
    X=              0.0000    Y=              0.0000    Z=              0.0000  Tot=              0.0000
 Quadrupole moment (field-independent basis, Debye-Ang):
   XX=             -4.0324   YY=             -4.0324   ZZ=             -5.0237
   XY=              0.0000   XZ=              0.0000   YZ=              0.0000
 Traceless Quadrupole moment (field-independent basis, Debye-Ang):
   XX=              0.3304   YY=              0.3304   ZZ=             -0.6609
   XY=              0.0000   XZ=              0.0000   YZ=              0.0000
 Octapole moment (field-independent basis, Debye-Ang**2):
  XXX=              0.0000  YYY=              1.7996  ZZZ=              0.0000  XYY=              0.0000
  XXY=             -1.7996  XXZ=              0.0000  XZZ=              0.0000  YZZ=              0.0000
  YYZ=              0.0000  XYZ=              0.0000
 Hexadecapole moment (field-independent basis, Debye-Ang**3):
 XXXX=             -7.7490 YYYY=             -7.7490 ZZZZ=             -3.3933 XXXY=              0.0000
 XXXZ=              0.0000 YYYX=              0.0000 YYYZ=              0.0000 ZZZX=              0.0000
 ZZZY=              0.0000 XXYY=             -2.5830 XXZZ=             -2.5057 YYZZ=             -2.5057
 XXYZ=              0.0000 YYXZ=              0.0000 ZZXY=              0.0000
 N-N= 9.532774295747D+00 E-N=-1.070382253075D+02  KE= 3.917717923148D+01
 Symmetry A'   KE= 3.700229967392D+01
 Symmetry A"   KE= 2.174879557561D+00
 1\1\GINC-TC-NODE158\SP\RHF\GFHFB1\C1H3(1+)\RJW7C5\21-Oct-2016\0\\#N Ge
 om=AllCheck Guess=TCheck SCRF=Check HF/GFHFB1 SCF=Tight\\Title Card Re
 quired\\1,1\C,0,-1.67721522,1.5822785711,0.0000223455\H,0,-1.677215220
 2,2.6776314287,0.0000135515\H,0,-2.6258186207,1.0346021421,0.000013551
 5\H,0,-0.7286118191,1.0346021425,0.0000135515\\Version=ES64L-G09RevD.0
 1\HF=-39.2495399\RMSD=2.888e-09\Dipole=0.,0.,0.\Quadrupole=0.2456766,0
 .2456766,-0.4913532,0.,0.,0.\PG=C03V [C3(C1),3SGV(H1)]\\@


 A MAN THINKING OR WORKING IS ALWAYS ALONE, 
 LET HIM BE WHERE HE WILL.

                                    -- THOREAU
 Job cpu time:       0 days  0 hours  0 minutes 30.7 seconds.
 File lengths (MBytes):  RWF=    147 Int=      0 D2E=      0 Chk=      2 Scr=      1
 Normal termination of Gaussian 09 at Fri Oct 21 12:07:54 2016.
 Link1:  Proceeding to internal job step number  8.
 ------------------------------------------------------------
 #N Geom=AllCheck Guess=TCheck SCRF=Check HF/GFHFB2 SCF=Tight
 ------------------------------------------------------------
 1/29=7,38=1,40=1/1;
 2/12=2,40=1/2;
 3/5=37,11=9,14=-4,16=1,25=1,30=1,70=2,116=-2/1,2,3;
 4/5=101/1;
 5/5=2,32=2/2;
 6/7=2,8=2,9=2,10=2,28=1/1;
 99/5=1,9=1/99;
 Structure from the checkpoint file:  "/home/rjw7c5/ch3_g4_gas.chk"
 -------------------
 Title Card Required
 -------------------
 Charge =  1 Multiplicity = 1
 Redundant internal coordinates found in file.
 C,0,-1.67721522,1.5822785711,0.0000223455
 H,0,-1.6772152202,2.6776314287,0.0000135515
 H,0,-2.6258186207,1.0346021421,0.0000135515
 H,0,-0.7286118191,1.0346021425,0.0000135515
 Recover connectivity data from disk.
                          Input orientation:                          
 ---------------------------------------------------------------------
 Center     Atomic      Atomic             Coordinates (Angstroms)
 Number     Number       Type             X           Y           Z
 ---------------------------------------------------------------------
      1          6           0       -1.677215    1.582279    0.000022
      2          1           0       -1.677215    2.677631    0.000014
      3          1           0       -2.625819    1.034602    0.000014
      4          1           0       -0.728612    1.034602    0.000014
 ---------------------------------------------------------------------
                    Distance matrix (angstroms):
                    1          2          3          4
     1  C    0.000000
     2  H    1.095353   0.000000
     3  H    1.095353   1.897207   0.000000
     4  H    1.095353   1.897207   1.897207   0.000000
 Stoichiometry    CH3(1+)
 Framework group  C3V[C3(C),3SGV(H)]
 Deg. of freedom     2
 Full point group                 C3V     NOp   6
 Largest Abelian subgroup         CS      NOp   2
 Largest concise Abelian subgroup CS      NOp   2
                         Standard orientation:                         
 ---------------------------------------------------------------------
 Center     Atomic      Atomic             Coordinates (Angstroms)
 Number     Number       Type             X           Y           Z
 ---------------------------------------------------------------------
      1          6           0        0.000000    0.000000   -0.000003
      2          1           0        0.000000    1.095353    0.000006
      3          1           0        0.948603   -0.547676    0.000006
      4          1           0       -0.948603   -0.547676    0.000006
 ---------------------------------------------------------------------
 Rotational constants (GHZ):    278.6330973    278.6330973    139.3165487
 Standard basis: GFHFB2 (5D, 7F)
 There are   128 symmetry adapted cartesian basis functions of A'  symmetry.
 There are    80 symmetry adapted cartesian basis functions of A"  symmetry.
 There are   100 symmetry adapted basis functions of A'  symmetry.
 There are    67 symmetry adapted basis functions of A"  symmetry.
   167 basis functions,   240 primitive gaussians,   208 cartesian basis functions
     4 alpha electrons        4 beta electrons
       nuclear repulsion energy         9.5327742957 Hartrees.
 NAtoms=    4 NActive=    4 NUniq=    2 SFac= 4.00D+00 NAtFMM=   60 NAOKFM=F Big=F
 Integral buffers will be    131072 words long.
 Raffenetti 1 integral format.
 Two-electron integral symmetry is turned on.
 One-electron integrals computed using PRISM.
 NBasis=   167 RedAO= T EigKep=  8.42D-05  NBF=   100    67
 NBsUse=   167 1.00D-06 EigRej= -1.00D+00 NBFU=   100    67
 Initial guess from the checkpoint file:  "/home/rjw7c5/ch3_g4_gas.chk"
 B after Tr=     0.000000    0.000000    0.000000
         Rot=    1.000000    0.000000    0.000000    0.000000 Ang=   0.00 deg.
 Initial guess orbital symmetries:
       Occupied  (?A) (?A) (?A) (?A)
       Virtual   (?A) (?A) (?A) (?A) (?A) (?A) (?A) (?A) (?A) (?A)
                 (?A) (?A) (?A) (?A) (?A) (?A) (?A) (?A) (?A) (?A)
                 (?A) (?A) (?A) (?A) (?A) (?A) (?A) (?A) (?A) (?A)
                 (?A) (?A) (?A) (?A) (?A) (?A) (?A) (?A) (?A) (?A)
                 (?A) (?A) (?A) (?A) (?A) (?A) (?A) (?A) (?A) (?A)
                 (?A) (?A) (?A) (?A) (?A) (?A) (?A) (?A) (?A) (?A)
                 (?A) (?A) (?A) (?A) (?A) (?A) (?A) (?A) (?A) (?A)
                 (?A) (?A) (?A) (?A) (?A) (?A) (?A) (?A) (?A) (?A)
                 (?A) (?A) (?A) (?A) (?A) (?A) (?A) (?A) (?A) (?A)
                 (?A) (?A) (?A) (?A) (?A) (?A) (?A) (?A) (?A) (?A)
                 (?A) (?A) (?A) (?A) (?A) (?A) (?A) (?A) (?A) (?A)
                 (?A) (?A) (?A) (?A) (?A) (?A) (?A) (?A) (?A) (?A)
                 (?A) (?A) (?A) (?A) (?A) (?A) (?A) (?A) (?A) (?A)
                 (?A) (?A) (?A) (?A) (?A) (?A) (?A) (?A) (?A) (?A)
                 (?A) (?A) (?A) (?A) (?A) (?A) (?A) (?A) (?A) (?A)
                 (?A) (?A) (?A) (?A) (?A) (?A) (?A) (?A) (?A) (?A)
                 (?A) (?A) (?A)
 Keep R1 ints in memory in symmetry-blocked form, NReq=147884068.
 Requested convergence on RMS density matrix=1.00D-08 within 128 cycles.
 Requested convergence on MAX density matrix=1.00D-06.
 Requested convergence on             energy=1.00D-06.
 No special actions if energy rises.
 SCF Done:  E(RHF) =  -39.2502977073     A.U. after    6 cycles
            NFock=  6  Conv=0.27D-08     -V/T= 2.0018

 **********************************************************************

            Population analysis using the SCF density.

 **********************************************************************

 Orbital symmetries:
       Occupied  (?A) (?A) (?B) (?B)
       Virtual   (?C) (?A) (?B) (?B) (?C) (?B) (?B) (?A) (?B) (?B)
                 (?C) (?A) (?B) (?B) (?D) (?D) (?A) (?A) (?B) (?B)
                 (?A) (?C) (?D) (?D) (?B) (?B) (?C) (?A) (?B) (?B)
                 (?B) (?B) (?A) (?B) (?B) (?D) (?D) (?C) (?A) (?B)
                 (?B) (?D) (?D) (?A) (?A) (?B) (?B) (?C) (?A) (?C)
                 (?B) (?B) (?D) (?D) (?C) (?B) (?B) (?B) (?B) (?A)
                 (?D) (?D) (?A) (?B) (?B) (?A) (?D) (?D) (?C) (?A)
                 (?A) (?B) (?B) (?B) (?B) (?D) (?D) (?A) (?C) (?B)
                 (?B) (?B) (?B) (?C) (?A) (?D) (?D) (?A) (?D) (?D)
                 (?C) (?B) (?B) (?A) (?B) (?B) (?A) (?B) (?B) (?C)
                 (?A) (?D) (?D) (?B) (?B) (?A) (?D) (?D) (?A) (?B)
                 (?B) (?C) (?B) (?B) (?C) (?D) (?D) (?C) (?A) (?A)
                 (?B) (?B) (?D) (?D) (?B) (?B) (?B) (?B) (?C) (?A)
                 (?D) (?D) (?A) (?A) (?B) (?B) (?B) (?B) (?C) (?D)
                 (?D) (?C) (?A) (?D) (?D) (?A) (?C) (?B) (?B) (?B)
                 (?B) (?A) (?B) (?B) (?D) (?D) (?A) (?B) (?B) (?A)
                 (?B) (?B) (?A)
 Unable to determine electronic state:  an orbital has unidentified symmetry.
 Alpha  occ. eigenvalues --  -11.68287  -1.27329  -0.94772  -0.94772
 Alpha virt. eigenvalues --   -0.28402  -0.12544  -0.08744  -0.08744  -0.07305
 Alpha virt. eigenvalues --   -0.02561  -0.02561  -0.00922   0.06452   0.06452
 Alpha virt. eigenvalues --    0.11031   0.12820   0.19382   0.19382   0.21181
 Alpha virt. eigenvalues --    0.21181   0.24041   0.38027   0.39113   0.39113
 Alpha virt. eigenvalues --    0.46338   0.61452   0.61955   0.61955   0.66787
 Alpha virt. eigenvalues --    0.66787   0.70184   0.71744   0.76908   0.76908
 Alpha virt. eigenvalues --    0.90713   0.90713   0.94868   1.07328   1.07328
 Alpha virt. eigenvalues --    1.22490   1.22490   1.27741   1.27913   1.28345
 Alpha virt. eigenvalues --    1.28345   1.32061   1.32061   1.37929   1.46882
 Alpha virt. eigenvalues --    1.75534   1.75534   1.91788   2.06418   2.21144
 Alpha virt. eigenvalues --    2.25530   2.25530   2.28622   2.28622   2.36643
 Alpha virt. eigenvalues --    2.38246   2.38246   2.46957   2.46957   2.53477
 Alpha virt. eigenvalues --    2.56921   2.56921   2.60729   2.74876   2.74876
 Alpha virt. eigenvalues --    2.77185   2.99501   2.99501   3.00614   3.07069
 Alpha virt. eigenvalues --    3.10857   3.12092   3.12092   3.44366   3.44366
 Alpha virt. eigenvalues --    3.50606   3.50606   3.52168   3.60872   3.61193
 Alpha virt. eigenvalues --    3.61193   3.75579   3.75579   3.94806   4.00039
 Alpha virt. eigenvalues --    4.01107   4.01107   4.42443   4.72468   4.72468
 Alpha virt. eigenvalues --    4.77564   4.86270   4.86270   4.89657   4.91226
 Alpha virt. eigenvalues --    4.91226   5.17930   5.84667   5.84667   7.20311
 Alpha virt. eigenvalues --    7.21433   7.23610   7.23610   7.38763   7.38763
 Alpha virt. eigenvalues --    7.46625   7.53239   7.53239   7.66831   7.83202
 Alpha virt. eigenvalues --    7.83202   7.95447   8.16606   8.16606   8.16956
 Alpha virt. eigenvalues --    8.29964   8.29964   8.33740   8.46067   8.56765
 Alpha virt. eigenvalues --    8.64302   8.64302   8.73609   8.73609   8.80830
 Alpha virt. eigenvalues --    8.80830   8.89789   8.89789   9.13706   9.31778
 Alpha virt. eigenvalues --    9.40049   9.40049   9.55781   9.74431   9.75389
 Alpha virt. eigenvalues --    9.75389  10.03923  10.03923  10.05144  10.13720
 Alpha virt. eigenvalues --   10.13720  10.41875  10.43946  10.76259  10.76259
 Alpha virt. eigenvalues --   10.87763  10.98436  11.05574  11.05574  11.33759
 Alpha virt. eigenvalues --   11.33759  11.40297  11.75481  11.75481  11.90612
 Alpha virt. eigenvalues --   11.90612  12.28533  12.64942  12.64942  15.53728
 Alpha virt. eigenvalues --   16.86926  16.86926  38.63354
          Condensed to atoms (all electrons):
               1          2          3          4
     1  C    4.890083   0.371647   0.371647   0.371647
     2  H    0.371647   0.309825  -0.008240  -0.008240
     3  H    0.371647  -0.008240   0.309825  -0.008240
     4  H    0.371647  -0.008240  -0.008240   0.309825
 Mulliken charges:
               1
     1  C   -0.005023
     2  H    0.335008
     3  H    0.335008
     4  H    0.335008
 Sum of Mulliken charges =   1.00000
 Mulliken charges with hydrogens summed into heavy atoms:
               1
     1  C    1.000000
 Electronic spatial extent (au):  <R**2>=             22.5811
 Charge=              1.0000 electrons
 Dipole moment (field-independent basis, Debye):
    X=              0.0000    Y=              0.0000    Z=              0.0000  Tot=              0.0000
 Quadrupole moment (field-independent basis, Debye-Ang):
   XX=             -4.0312   YY=             -4.0312   ZZ=             -5.0213
   XY=              0.0000   XZ=              0.0000   YZ=              0.0000
 Traceless Quadrupole moment (field-independent basis, Debye-Ang):
   XX=              0.3300   YY=              0.3300   ZZ=             -0.6600
   XY=              0.0000   XZ=              0.0000   YZ=              0.0000
 Octapole moment (field-independent basis, Debye-Ang**2):
  XXX=              0.0000  YYY=              1.7946  ZZZ=              0.0000  XYY=              0.0000
  XXY=             -1.7946  XXZ=              0.0000  XZZ=              0.0000  YZZ=              0.0000
  YYZ=              0.0000  XYZ=              0.0000
 Hexadecapole moment (field-independent basis, Debye-Ang**3):
 XXXX=             -7.7433 YYYY=             -7.7433 ZZZZ=             -3.3935 XXXY=              0.0000
 XXXZ=              0.0000 YYYX=              0.0000 YYYZ=              0.0000 ZZZX=              0.0000
 ZZZY=              0.0000 XXYY=             -2.5811 XXZZ=             -2.5041 YYZZ=             -2.5041
 XXYZ=              0.0000 YYXZ=              0.0000 ZZXY=              0.0000
 N-N= 9.532774295747D+00 E-N=-1.070414090442D+02  KE= 3.917844593397D+01
 Symmetry A'   KE= 3.700220271242D+01
 Symmetry A"   KE= 2.176243221544D+00
 1\1\GINC-TC-NODE158\SP\RHF\GFHFB2\C1H3(1+)\RJW7C5\21-Oct-2016\0\\#N Ge
 om=AllCheck Guess=TCheck SCRF=Check HF/GFHFB2 SCF=Tight\\Title Card Re
 quired\\1,1\C,0,-1.67721522,1.5822785711,0.0000223455\H,0,-1.677215220
 2,2.6776314287,0.0000135515\H,0,-2.6258186207,1.0346021421,0.000013551
 5\H,0,-0.7286118191,1.0346021425,0.0000135515\\Version=ES64L-G09RevD.0
 1\HF=-39.2502977\RMSD=2.750e-09\Dipole=0.,0.,0.\Quadrupole=0.2453623,0
 .2453623,-0.4907246,0.,0.,0.\PG=C03V [C3(C1),3SGV(H1)]\\@


 ADVERTISING--  HE WHO HAS SOMETHING TO SELL AND GOES AND WHISPERS
                IN A WELL, IS NOT SO APT TO GET THE DOLLARS AS HE
                WHO CLIMBS A TREE AND HOLLERS.

                   -- FROM THE BACK OF A SUGAR PACKET
 Diagonal vibrational polarizability:
        0.0000000       0.0000000       0.0000000

 Temperature=              298.150000 Pressure=                      1.000000
 E(ZPE)=                     0.030763 E(Thermal)=                    0.033619
 E(CCSD(T))=               -39.347484 E(Empiric)=                   -0.020841
 DE(Plus)=                  -0.000505 DE(2DF)=                      -0.038041
 E(Delta-G3XP)=             -0.057303 DE(HF)=                       -0.004268
 G4(0 K)=                  -39.437680 G4 Energy=                   -39.434824
 G4 Enthalpy=              -39.433880 G4 Free Energy=              -39.455737
 1\1\GINC-TC-NODE158\Mixed\G4\G4\C1H3(1+)\RJW7C5\21-Oct-2016\0\\# g4 ge
 om=connectivity\\Title Card Required\\1,1\C,0,-1.67721522,1.5822785711
 ,0.0000223455\H,0,-1.6772152202,2.6776314287,0.0000135515\H,0,-2.62581
 86207,1.0346021421,0.0000135515\H,0,-0.7286118191,1.0346021425,0.00001
 35515\\Version=ES64L-G09RevD.01\MP2/GTBas1=-39.3252953\MP4/GTBas1=-39.
 3462016\CCSD(T)/G3Bas1=-39.3474843\MP2/GTBas2=-39.3257001\MP4/GTBas2=-
 39.346707\MP2/GTBas3=-39.3601733\MP4/GTBas3=-39.3842427\HF/GTLargeXP=-
 39.2462145\MP2/GTLargeXP=-39.4178813\HF/GFHFB1=-39.2495399\HF/GFHFB2=-
 39.2502977\G4=-39.4376797\FreqCoord=-3.1694774317,2.9900731653,0.00004
 22269,-3.1694774322,5.0599900851,0.0000256085,-4.9620780677,1.95511470
 51,0.0000256085,-1.3768767952,1.9551147059,0.0000256085\PG=C03V [C3(C1
 ),3SGV(H1)]\NImag=0\\0.60734701,0.,0.60734578,0.,0.,0.18443794,-0.0595
 9913,0.,0.,0.04502696,0.,-0.34530089,0.00000144,0.,0.35195639,0.,0.000
 00226,-0.06148201,0.,-0.00000200,0.02050187,-0.27387470,-0.12371223,-0
 .00000125,0.00728537,0.00339275,-0.00000025,0.27522404,-0.12371261,-0.
 13102351,-0.00000072,-0.02177397,-0.00332704,-0.00000013,0.13290434,0.
 12175932,-0.00000196,-0.00000113,-0.06147999,0.,0.00000028,0.02049007,
 0.00000173,0.00000100,0.02050187,-0.27387470,0.12371223,0.00000125,0.0
 0728537,-0.00339275,0.00000025,-0.00863324,0.01258336,0.00000024,0.275
 22404,0.12371261,-0.13102351,-0.00000072,0.02177397,-0.00332704,-0.000
 00013,-0.01258336,0.01259157,-0.00000015,-0.13290434,0.12175932,0.0000
 0196,-0.00000113,-0.06147999,0.,0.00000028,0.02049007,-0.00000024,-0.0
 0000015,0.02049007,-0.00000173,0.00000100,0.02050187\\0.,0.,0.00000307
 ,0.,0.00006378,-0.00000102,-0.00005524,-0.00003189,-0.00000102,0.00005
 524,-0.00003189,-0.00000102\\\@
 Job cpu time:       0 days  0 hours  1 minutes 33.9 seconds.
 File lengths (MBytes):  RWF=    147 Int=      0 D2E=      0 Chk=      3 Scr=      1
 Normal termination of Gaussian 09 at Fri Oct 21 12:08:03 2016.
