 Entering Gaussian System, Link 0=g09
 Initial command:
 /cluster/software/gaussian/gaussian-09-D.01/g09/l1.exe "/local/scratch/maxb2/Gau-23490.inp" -scrdir="/local/scratch/maxb2/"
 Entering Link 1 = /cluster/software/gaussian/gaussian-09-D.01/g09/l1.exe PID=     23491.
  
 Copyright (c) 1988,1990,1992,1993,1995,1998,2003,2009,2013,
            Gaussian, Inc.  All Rights Reserved.
  
 This is part of the Gaussian(R) 09 program.  It is based on
 the Gaussian(R) 03 system (copyright 2003, Gaussian, Inc.),
 the Gaussian(R) 98 system (copyright 1998, Gaussian, Inc.),
 the Gaussian(R) 94 system (copyright 1995, Gaussian, Inc.),
 the Gaussian 92(TM) system (copyright 1992, Gaussian, Inc.),
 the Gaussian 90(TM) system (copyright 1990, Gaussian, Inc.),
 the Gaussian 88(TM) system (copyright 1988, Gaussian, Inc.),
 the Gaussian 86(TM) system (copyright 1986, Carnegie Mellon
 University), and the Gaussian 82(TM) system (copyright 1983,
 Carnegie Mellon University). Gaussian is a federally registered
 trademark of Gaussian, Inc.
  
 This software contains proprietary and confidential information,
 including trade secrets, belonging to Gaussian, Inc.
  
 This software is provided under written license and may be
 used, copied, transmitted, or stored only in accord with that
 written license.
  
 The following legend is applicable only to US Government
 contracts under FAR:
  
                    RESTRICTED RIGHTS LEGEND
  
 Use, reproduction and disclosure by the US Government is
 subject to restrictions as set forth in subparagraphs (a)
 and (c) of the Commercial Computer Software - Restricted
 Rights clause in FAR 52.227-19.
  
 Gaussian, Inc.
 340 Quinnipiac St., Bldg. 40, Wallingford CT 06492
  
  
 ---------------------------------------------------------------
 Warning -- This program may not be used in any manner that
 competes with the business of Gaussian, Inc. or will provide
 assistance to any competitor of Gaussian, Inc.  The licensee
 of this program is prohibited from giving any competitor of
 Gaussian, Inc. access to this program.  By using this program,
 the user acknowledges that Gaussian, Inc. is engaged in the
 business of creating and licensing software in the field of
 computational chemistry and represents and warrants to the
 licensee that it is not a competitor of Gaussian, Inc. and that
 it will not use this program in any manner prohibited above.
 ---------------------------------------------------------------
  

 Cite this work as:
 Gaussian 09, Revision D.01,
 M. J. Frisch, G. W. Trucks, H. B. Schlegel, G. E. Scuseria, 
 M. A. Robb, J. R. Cheeseman, G. Scalmani, V. Barone, B. Mennucci, 
 G. A. Petersson, H. Nakatsuji, M. Caricato, X. Li, H. P. Hratchian, 
 A. F. Izmaylov, J. Bloino, G. Zheng, J. L. Sonnenberg, M. Hada, 
 M. Ehara, K. Toyota, R. Fukuda, J. Hasegawa, M. Ishida, T. Nakajima, 
 Y. Honda, O. Kitao, H. Nakai, T. Vreven, J. A. Montgomery, Jr., 
 J. E. Peralta, F. Ogliaro, M. Bearpark, J. J. Heyd, E. Brothers, 
 K. N. Kudin, V. N. Staroverov, T. Keith, R. Kobayashi, J. Normand, 
 K. Raghavachari, A. Rendell, J. C. Burant, S. S. Iyengar, J. Tomasi, 
 M. Cossi, N. Rega, J. M. Millam, M. Klene, J. E. Knox, J. B. Cross, 
 V. Bakken, C. Adamo, J. Jaramillo, R. Gomperts, R. E. Stratmann, 
 O. Yazyev, A. J. Austin, R. Cammi, C. Pomelli, J. W. Ochterski, 
 R. L. Martin, K. Morokuma, V. G. Zakrzewski, G. A. Voth, 
 P. Salvador, J. J. Dannenberg, S. Dapprich, A. D. Daniels, 
 O. Farkas, J. B. Foresman, J. V. Ortiz, J. Cioslowski, 
 and D. J. Fox, Gaussian, Inc., Wallingford CT, 2013.
 
 ******************************************
 Gaussian 09:  ES64L-G09RevD.01 24-Apr-2013
                25-Oct-2016 
 ******************************************
 %nprocshared=8
 Will use up to    8 processors via shared memory.
 %mem=4gb
 %chk=CH3popt
 -----------------------------
 # opt freq mp2(full)/6-311g**
 -----------------------------
 1/18=20,19=15,38=1/1,3;
 2/9=110,12=2,17=6,18=5,40=1/2;
 3/5=4,6=6,7=101,11=9,16=1,25=1,30=1,71=1/1,2,3;
 4//1;
 5/5=2,38=5/2;
 8/6=4,10=90/1;
 9/15=2,16=-3/6;
 10/5=1/2;
 6/7=2,8=2,9=2,10=2/1;
 7/12=2/1,2,3,16;
 1/18=20,19=15/3(2);
 2/9=110/2;
 99//99;
 2/9=110/2;
 3/5=4,6=6,7=101,11=9,16=1,25=1,30=1,71=1/1,2,3;
 4/5=5,16=3,69=1/1;
 5/5=2,38=5/2;
 8/6=4,10=90/1;
 9/15=2,16=-3/6;
 10/5=1/2;
 7/12=2/1,2,3,16;
 1/18=20,19=15/3(-8);
 2/9=110/2;
 6/7=2,8=2,9=2,10=2/1;
 99//99;
 -------------------
 Title Card Required
 -------------------
 Symbolic Z-matrix:
 Charge =  1 Multiplicity = 1
 C
 H                    1    B1
 H                    1    B2       2    A1
 H                    1    B3       3    A2       2    D1       0
       Variables:
  B1                    1.07                     
  B2                    1.07                     
  B3                    1.07                     
  A1                  109.4712                   
  A2                  109.47122                  
  D1                  120.                       
 
     2 tetrahedral angles replaced.

 GradGradGradGradGradGradGradGradGradGradGradGradGradGradGradGradGradGrad
 Berny optimization.
 Initialization pass.
                           ----------------------------
                           !    Initial Parameters    !
                           ! (Angstroms and Degrees)  !
 --------------------------                            --------------------------
 ! Name  Definition              Value          Derivative Info.                !
 --------------------------------------------------------------------------------
 ! R1    R(1,2)                  1.07           estimate D2E/DX2                !
 ! R2    R(1,3)                  1.07           estimate D2E/DX2                !
 ! R3    R(1,4)                  1.07           estimate D2E/DX2                !
 ! A1    A(2,1,3)              109.4712         estimate D2E/DX2                !
 ! A2    A(2,1,4)              109.4712         estimate D2E/DX2                !
 ! A3    A(3,1,4)              109.4712         estimate D2E/DX2                !
 ! D1    D(2,1,4,3)            120.0            estimate D2E/DX2                !
 --------------------------------------------------------------------------------
 Trust Radius=3.00D-01 FncErr=1.00D-07 GrdErr=1.00D-07
 Number of steps in this run=     20 maximum allowed number of steps=    100.
 GradGradGradGradGradGradGradGradGradGradGradGradGradGradGradGradGradGrad

                          Input orientation:                          
 ---------------------------------------------------------------------
 Center     Atomic      Atomic             Coordinates (Angstroms)
 Number     Number       Type             X           Y           Z
 ---------------------------------------------------------------------
      1          6           0        0.000000    0.000000    0.000000
      2          1           0        0.000000    0.000000    1.070000
      3          1           0        1.008806    0.000000   -0.356667
      4          1           0       -0.504403    0.873651   -0.356667
 ---------------------------------------------------------------------
                    Distance matrix (angstroms):
                    1          2          3          4
     1  C    0.000000
     2  H    1.070000   0.000000
     3  H    1.070000   1.747303   0.000000
     4  H    1.070000   1.747303   1.747303   0.000000
 Stoichiometry    CH3(1+)
 Framework group  C3V[C3(C),3SGV(H)]
 Deg. of freedom     2
 Full point group                 C3V     NOp   6
 Largest Abelian subgroup         CS      NOp   2
 Largest concise Abelian subgroup CS      NOp   2
                         Standard orientation:                         
 ---------------------------------------------------------------------
 Center     Atomic      Atomic             Coordinates (Angstroms)
 Number     Number       Type             X           Y           Z
 ---------------------------------------------------------------------
      1          6           0        0.000000    0.000000    0.118889
      2          1           0        0.000000    1.008806   -0.237778
      3          1           0        0.873651   -0.504403   -0.237778
      4          1           0       -0.873651   -0.504403   -0.237778
 ---------------------------------------------------------------------
 Rotational constants (GHZ):    273.8152496    273.8152496    164.2463640
 Standard basis: 6-311G(d,p) (5D, 7F)
 There are    25 symmetry adapted cartesian basis functions of A'  symmetry.
 There are    12 symmetry adapted cartesian basis functions of A"  symmetry.
 There are    24 symmetry adapted basis functions of A'  symmetry.
 There are    12 symmetry adapted basis functions of A"  symmetry.
    36 basis functions,    56 primitive gaussians,    37 cartesian basis functions
     4 alpha electrons        4 beta electrons
       nuclear repulsion energy         9.8106078116 Hartrees.
 NAtoms=    4 NActive=    4 NUniq=    2 SFac= 4.00D+00 NAtFMM=   60 NAOKFM=F Big=F
 Integral buffers will be    131072 words long.
 Raffenetti 1 integral format.
 Two-electron integral symmetry is turned on.
 One-electron integrals computed using PRISM.
 NBasis=    36 RedAO= T EigKep=  1.76D-02  NBF=    24    12
 NBsUse=    36 1.00D-06 EigRej= -1.00D+00 NBFU=    24    12
 ExpMin= 1.03D-01 ExpMax= 4.56D+03 ExpMxC= 6.82D+02 IAcc=1 IRadAn=         1 AccDes= 0.00D+00
 Harris functional with IExCor=  205 and IRadAn=       1 diagonalized for initial guess.
 HarFok:  IExCor=  205 AccDes= 0.00D+00 IRadAn=         1 IDoV= 1 UseB2=F ITyADJ=14
 ICtDFT=  3500011 ScaDFX=  1.000000  1.000000  1.000000  1.000000
 FoFCou: FMM=F IPFlag=           0 FMFlag=      100000 FMFlg1=           0
         NFxFlg=           0 DoJE=T BraDBF=F KetDBF=T FulRan=T
         wScrn=  0.000000 ICntrl=     500 IOpCl=  0 I1Cent=   200000004 NGrid=           0
         NMat0=    1 NMatS0=      1 NMatT0=    0 NMatD0=    1 NMtDS0=    0 NMtDT0=    0
 Petite list used in FoFCou.
 Initial guess orbital symmetries:
       Occupied  (A1) (A1) (E) (E)
       Virtual   (A1) (A1) (E) (E) (E) (E) (A1) (A1) (E) (E) (A1)
                 (E) (E) (A1) (E) (E) (A2) (E) (E) (A1) (E) (E)
                 (A1) (E) (E) (E) (E) (A1) (A1) (E) (E) (A1)
 The electronic state of the initial guess is 1-A1.
 Keep R1 ints in memory in symmetry-blocked form, NReq=1080446.
 Requested convergence on RMS density matrix=1.00D-08 within 128 cycles.
 Requested convergence on MAX density matrix=1.00D-06.
 Requested convergence on             energy=1.00D-06.
 No special actions if energy rises.
 SCF Done:  E(RHF) =  -39.1926200258     A.U. after    8 cycles
            NFock=  8  Conv=0.68D-08     -V/T= 1.9982
 Range of M.O.s used for correlation:     1    36
 NBasis=    36 NAE=     4 NBE=     4 NFC=     0 NFV=     0
 NROrb=     36 NOA=     4 NOB=     4 NVA=    32 NVB=    32
 Fully direct method using O(ONN) memory.
 JobTyp=1 Pass  1:  I=   1 to   4 NPSUse=  8 ParTrn=T ParDer=T DoDerP=T.
 Spin components of T(2) and E(2):
     alpha-alpha T2 =       0.2518353183D-02 E2=     -0.8776618462D-02
     alpha-beta  T2 =       0.3132402205D-01 E2=     -0.1153093180D+00
     beta-beta   T2 =       0.2518353183D-02 E2=     -0.8776618462D-02
 ANorm=    0.1018018039D+01
 E2 =    -0.1328625549D+00 EUMP2 =    -0.39325482580746D+02
          IDoAtm=1111
          Differentiating once with respect to electric field.
                with respect to dipole field.
          Differentiating once with respect to nuclear coordinates.
 Keep R1 ints in memory in symmetry-blocked form, NReq=1064258.
          There are     1 degrees of freedom in the 1st order CPHF.  IDoFFX=0 NUNeed=     1.
 LinEq1:  Iter=  0 NonCon=     1 RMS=3.18D-03 Max=1.57D-02 NDo=     1
 AX will form     1 AO Fock derivatives at one time.
 LinEq1:  Iter=  1 NonCon=     1 RMS=5.00D-04 Max=2.31D-03 NDo=     1
 LinEq1:  Iter=  2 NonCon=     1 RMS=8.32D-05 Max=6.16D-04 NDo=     1
 LinEq1:  Iter=  3 NonCon=     1 RMS=9.36D-06 Max=6.01D-05 NDo=     1
 LinEq1:  Iter=  4 NonCon=     1 RMS=1.17D-06 Max=7.33D-06 NDo=     1
 LinEq1:  Iter=  5 NonCon=     1 RMS=1.59D-07 Max=7.81D-07 NDo=     1
 LinEq1:  Iter=  6 NonCon=     1 RMS=1.04D-08 Max=4.53D-08 NDo=     1
 LinEq1:  Iter=  7 NonCon=     1 RMS=6.82D-10 Max=3.06D-09 NDo=     1
 LinEq1:  Iter=  8 NonCon=     0 RMS=5.02D-11 Max=2.54D-10 NDo=     1
 Linear equations converged to 1.000D-10 1.000D-09 after     8 iterations.
 End of Minotr F.D. properties file   721 does not exist.
 End of Minotr F.D. properties file   722 does not exist.
 End of Minotr F.D. properties file   788 does not exist.

 **********************************************************************

            Population analysis using the SCF density.

 **********************************************************************

 Orbital symmetries:
       Occupied  (A1) (A1) (E) (E)
       Virtual   (A1) (A1) (E) (E) (E) (E) (A1) (A1) (E) (E) (A1)
                 (E) (E) (A1) (E) (E) (A2) (E) (E) (A1) (E) (E)
                 (A1) (E) (E) (E) (E) (A1) (A1) (E) (E) (A1)
 The electronic state is 1-A1.
 Alpha  occ. eigenvalues --  -11.68361  -1.29394  -0.94144  -0.94144
 Alpha virt. eigenvalues --   -0.31906  -0.07686  -0.01231  -0.01231   0.13897
 Alpha virt. eigenvalues --    0.13897   0.27560   0.34363   0.47616   0.47616
 Alpha virt. eigenvalues --    0.56526   0.89096   0.89096   1.22588   1.36496
 Alpha virt. eigenvalues --    1.36496   1.39093   1.59604   1.59604   1.84634
 Alpha virt. eigenvalues --    2.10007   2.10007   2.26086   2.33623   2.33623
 Alpha virt. eigenvalues --    2.52805   2.52805   2.63521   2.79001   3.77587
 Alpha virt. eigenvalues --    3.77587  24.63618
          Condensed to atoms (all electrons):
               1          2          3          4
     1  C    4.644870   0.381468   0.381468   0.381468
     2  H    0.381468   0.378559  -0.011559  -0.011559
     3  H    0.381468  -0.011559   0.378559  -0.011559
     4  H    0.381468  -0.011559  -0.011559   0.378559
 Mulliken charges:
               1
     1  C    0.210726
     2  H    0.263091
     3  H    0.263091
     4  H    0.263091
 Sum of Mulliken charges =   1.00000
 Mulliken charges with hydrogens summed into heavy atoms:
               1
     1  C    1.000000
 Electronic spatial extent (au):  <R**2>=             21.8019
 Charge=              1.0000 electrons
 Dipole moment (field-independent basis, Debye):
    X=              0.0000    Y=              0.0000    Z=              0.0372  Tot=              0.0372
 Quadrupole moment (field-independent basis, Debye-Ang):
   XX=             -4.5706   YY=             -4.5706   ZZ=             -4.2967
   XY=              0.0000   XZ=              0.0000   YZ=              0.0000
 Traceless Quadrupole moment (field-independent basis, Debye-Ang):
   XX=             -0.0913   YY=             -0.0913   ZZ=              0.1826
   XY=              0.0000   XZ=              0.0000   YZ=              0.0000
 Octapole moment (field-independent basis, Debye-Ang**2):
  XXX=              0.0000  YYY=              1.3016  ZZZ=              0.3078  XYY=              0.0000
  XXY=             -1.3016  XXZ=             -0.8752  XZZ=              0.0000  YZZ=              0.0000
  YYZ=             -0.8752  XYZ=              0.0000
 Hexadecapole moment (field-independent basis, Debye-Ang**3):
 XXXX=             -8.2412 YYYY=             -8.2412 ZZZZ=             -3.6922 XXXY=              0.0000
 XXXZ=              0.0000 YYYX=              0.0000 YYYZ=             -0.4934 ZZZX=              0.0000
 ZZZY=              0.0000 XXYY=             -2.7471 XXZZ=             -2.1828 YYZZ=             -2.1828
 XXYZ=              0.4934 YYXZ=              0.0000 ZZXY=              0.0000
 N-N= 9.810607811634D+00 E-N=-1.075507585826D+02  KE= 3.926516819613D+01
 Symmetry A'   KE= 3.704233349058D+01
 Symmetry A"   KE= 2.222834705553D+00
 Calling FoFJK, ICntrl=  10002127 FMM=F ISym2X=1 I1Cent= 0 IOpClX= 0 NMat=1 NMatS=1 NMatT=0.
 ***** Axes restored to original set *****
 -------------------------------------------------------------------
 Center     Atomic                   Forces (Hartrees/Bohr)
 Number     Number              X              Y              Z
 -------------------------------------------------------------------
      1        6           0.052713169    0.091301888    0.037273839
      2        1          -0.023434996   -0.040590604    0.020746838
      3        1           0.011748641   -0.040590604   -0.029010339
      4        1          -0.041026815   -0.010120681   -0.029010339
 -------------------------------------------------------------------
 Cartesian Forces:  Max     0.091301888 RMS     0.041216638

 GradGradGradGradGradGradGradGradGradGradGradGradGradGradGradGradGradGrad
 Berny optimization.
 FormGI is forming the generalized inverse of G from B-inverse, IUseBI=4.
 Internal  Forces:  Max     0.071428214 RMS     0.040803905
 Search for a local minimum.
 Step number   1 out of a maximum of   20
 All quantities printed in internal units (Hartrees-Bohrs-Radians)
 Mixed Optimization -- RFO/linear search
 Second derivative matrix not updated -- first step.
 The second derivative matrix:
                          R1        R2        R3        A1        A2
           R1           0.37230
           R2           0.00000   0.37230
           R3           0.00000   0.00000   0.37230
           A1           0.00000   0.00000   0.00000   0.16000
           A2           0.00000   0.00000   0.00000   0.00000   0.16000
           A3           0.00000   0.00000   0.00000   0.00000   0.00000
           D1           0.00000   0.00000   0.00000   0.00000   0.00000
                          A3        D1
           A3           0.16000
           D1           0.00000   0.00499
 ITU=  0
     Eigenvalues ---    0.05269   0.16000   0.16000   0.37230   0.37230
     Eigenvalues ---    0.37230
 RFO step:  Lambda=-7.39068856D-02 EMin= 5.26880960D-02
 Linear search not attempted -- first point.
 Maximum step size (   0.300) exceeded in Quadratic search.
    -- Step size scaled by   0.661
 Iteration  1 RMS(Cart)=  0.10252815 RMS(Int)=  0.05969745
 Iteration  2 RMS(Cart)=  0.02831199 RMS(Int)=  0.02889601
 Iteration  3 RMS(Cart)=  0.00205553 RMS(Int)=  0.02879322
 Iteration  4 RMS(Cart)=  0.00007959 RMS(Int)=  0.02879301
 Iteration  5 RMS(Cart)=  0.00000409 RMS(Int)=  0.02879301
 Iteration  6 RMS(Cart)=  0.00000021 RMS(Int)=  0.02879301
 ClnCor:  largest displacement from symmetrization is 4.27D-02 for atom     4.
 Variable       Old X    -DE/DX   Delta X   Delta X   Delta X     New X
                                 (Linear)    (Quad)   (Total)
    R1        2.02201   0.02075   0.00000   0.03074   0.01738   2.03938
    R2        2.02201   0.02075   0.00000   0.03074   0.01738   2.03938
    R3        2.02201   0.02075   0.00000   0.03074   0.01738   2.03938
    A1        1.91063   0.00729   0.00000   0.11377   0.12176   2.03240
    A2        1.91063   0.05103   0.00000   0.19083   0.12176   2.03240
    A3        1.91063   0.05103   0.00000   0.19083   0.12176   2.03240
    D1        2.09440   0.07143   0.00000   0.37305   0.40878   2.50317
         Item               Value     Threshold  Converged?
 Maximum Force            0.071428     0.000450     NO 
 RMS     Force            0.040804     0.000300     NO 
 Maximum Displacement     0.176718     0.001800     NO 
 RMS     Displacement     0.112294     0.001200     NO 
 Predicted change in Energy=-3.945069D-02
 GradGradGradGradGradGradGradGradGradGradGradGradGradGradGradGradGradGrad

                          Input orientation:                          
 ---------------------------------------------------------------------
 Center     Atomic      Atomic             Coordinates (Angstroms)
 Number     Number       Type             X           Y           Z
 ---------------------------------------------------------------------
      1          6           0        0.053991    0.093515    0.038177
      2          1           0       -0.025492   -0.044154    1.105600
      3          1           0        1.033873   -0.044154   -0.392568
      4          1           0       -0.555174    0.873283   -0.392568
 ---------------------------------------------------------------------
                    Distance matrix (angstroms):
                    1          2          3          4
     1  C    0.000000
     2  H    1.079195   0.000000
     3  H    1.079195   1.834873   0.000000
     4  H    1.079195   1.834873   1.834873   0.000000
 Stoichiometry    CH3(1+)
 Framework group  C3V[C3(C),3SGV(H)]
 Deg. of freedom     2
 Full point group                 C3V     NOp   6
 Largest Abelian subgroup         CS      NOp   2
 Largest concise Abelian subgroup CS      NOp   2
                         Standard orientation:                         
 ---------------------------------------------------------------------
 Center     Atomic      Atomic             Coordinates (Angstroms)
 Number     Number       Type             X           Y           Z
 ---------------------------------------------------------------------
      1          6           0        0.000000    0.000000    0.068644
      2          1           0        0.000000    1.059365   -0.137289
      3          1           0        0.917437   -0.529682   -0.137289
      4          1           0       -0.917437   -0.529682   -0.137289
 ---------------------------------------------------------------------
 Rotational constants (GHZ):    280.9270153    280.9270153    148.9429306
 Standard basis: 6-311G(d,p) (5D, 7F)
 There are    25 symmetry adapted cartesian basis functions of A'  symmetry.
 There are    12 symmetry adapted cartesian basis functions of A"  symmetry.
 There are    24 symmetry adapted basis functions of A'  symmetry.
 There are    12 symmetry adapted basis functions of A"  symmetry.
    36 basis functions,    56 primitive gaussians,    37 cartesian basis functions
     4 alpha electrons        4 beta electrons
       nuclear repulsion energy         9.6913986079 Hartrees.
 NAtoms=    4 NActive=    4 NUniq=    2 SFac= 4.00D+00 NAtFMM=   60 NAOKFM=F Big=F
 Integral buffers will be    131072 words long.
 Raffenetti 1 integral format.
 Two-electron integral symmetry is turned on.
 One-electron integrals computed using PRISM.
 NBasis=    36 RedAO= T EigKep=  2.02D-02  NBF=    24    12
 NBsUse=    36 1.00D-06 EigRej= -1.00D+00 NBFU=    24    12
 Initial guess from the checkpoint file:  "CH3popt.chk"
 B after Tr=     0.000000    0.000000    0.000000
         Rot=    1.000000    0.000000    0.000000    0.000000 Ang=   0.00 deg.
 Initial guess orbital symmetries:
       Occupied  (A1) (A1) (E) (E)
       Virtual   (?A) (?A) (?A) (?A) (?A) (?A) (?A) (?A) (?A) (?A)
                 (?A) (?A) (?A) (?A) (?A) (?A) (?A) (?A) (?A) (?A)
                 (?A) (?A) (?A) (?A) (?A) (?A) (?A) (?A) (?A) (?A)
                 (?A) (?A)
 ExpMin= 1.03D-01 ExpMax= 4.56D+03 ExpMxC= 6.82D+02 IAcc=1 IRadAn=         1 AccDes= 0.00D+00
 Harris functional with IExCor=  205 and IRadAn=       1 diagonalized for initial guess.
 HarFok:  IExCor=  205 AccDes= 0.00D+00 IRadAn=         1 IDoV= 1 UseB2=F ITyADJ=14
 ICtDFT=  3500011 ScaDFX=  1.000000  1.000000  1.000000  1.000000
 FoFCou: FMM=F IPFlag=           0 FMFlag=      100000 FMFlg1=           0
         NFxFlg=           0 DoJE=T BraDBF=F KetDBF=T FulRan=T
         wScrn=  0.000000 ICntrl=     500 IOpCl=  0 I1Cent=   200000004 NGrid=           0
         NMat0=    1 NMatS0=      1 NMatT0=    0 NMatD0=    1 NMtDS0=    0 NMtDT0=    0
 Petite list used in FoFCou.
 Keep R1 ints in memory in symmetry-blocked form, NReq=1080446.
 Requested convergence on RMS density matrix=1.00D-08 within 128 cycles.
 Requested convergence on MAX density matrix=1.00D-06.
 Requested convergence on             energy=1.00D-06.
 No special actions if energy rises.
 SCF Done:  E(RHF) =  -39.2276475639     A.U. after    8 cycles
            NFock=  8  Conv=0.24D-08     -V/T= 1.9997
 Range of M.O.s used for correlation:     1    36
 NBasis=    36 NAE=     4 NBE=     4 NFC=     0 NFV=     0
 NROrb=     36 NOA=     4 NOB=     4 NVA=    32 NVB=    32
 Fully direct method using O(ONN) memory.
 JobTyp=1 Pass  1:  I=   1 to   4 NPSUse=  8 ParTrn=T ParDer=T DoDerP=T.
 Spin components of T(2) and E(2):
     alpha-alpha T2 =       0.2432340400D-02 E2=     -0.8491490398D-02
     alpha-beta  T2 =       0.3074638274D-01 E2=     -0.1142761138D+00
     beta-beta   T2 =       0.2432340400D-02 E2=     -0.8491490398D-02
 ANorm=    0.1017649775D+01
 E2 =    -0.1312590946D+00 EUMP2 =    -0.39358906658423D+02
          IDoAtm=1111
          Differentiating once with respect to electric field.
                with respect to dipole field.
          Differentiating once with respect to nuclear coordinates.
 Keep R1 ints in memory in symmetry-blocked form, NReq=1064258.
          There are     1 degrees of freedom in the 1st order CPHF.  IDoFFX=0 NUNeed=     1.
 LinEq1:  Iter=  0 NonCon=     1 RMS=3.02D-03 Max=1.49D-02 NDo=     1
 AX will form     1 AO Fock derivatives at one time.
 LinEq1:  Iter=  1 NonCon=     1 RMS=4.70D-04 Max=2.10D-03 NDo=     1
 LinEq1:  Iter=  2 NonCon=     1 RMS=6.65D-05 Max=3.41D-04 NDo=     1
 LinEq1:  Iter=  3 NonCon=     1 RMS=6.68D-06 Max=4.59D-05 NDo=     1
 LinEq1:  Iter=  4 NonCon=     1 RMS=6.33D-07 Max=3.26D-06 NDo=     1
 LinEq1:  Iter=  5 NonCon=     1 RMS=1.09D-07 Max=6.12D-07 NDo=     1
 LinEq1:  Iter=  6 NonCon=     1 RMS=8.48D-09 Max=3.32D-08 NDo=     1
 LinEq1:  Iter=  7 NonCon=     1 RMS=7.10D-10 Max=3.34D-09 NDo=     1
 LinEq1:  Iter=  8 NonCon=     0 RMS=4.90D-11 Max=2.24D-10 NDo=     1
 Linear equations converged to 1.000D-10 1.000D-09 after     8 iterations.
 End of Minotr F.D. properties file   721 does not exist.
 End of Minotr F.D. properties file   722 does not exist.
 End of Minotr F.D. properties file   788 does not exist.
 Calling FoFJK, ICntrl=  10002127 FMM=F ISym2X=1 I1Cent= 0 IOpClX= 0 NMat=1 NMatS=1 NMatT=0.
 ***** Axes restored to original set *****
 -------------------------------------------------------------------
 Center     Atomic                   Forces (Hartrees/Bohr)
 Number     Number              X              Y              Z
 -------------------------------------------------------------------
      1        6           0.033145694    0.057410027    0.023437545
      2        1          -0.013519758   -0.023416908    0.006166665
      3        1           0.001307401   -0.023416908   -0.014802105
      4        1          -0.020933338   -0.010576211   -0.014802105
 -------------------------------------------------------------------
 Cartesian Forces:  Max     0.057410027 RMS     0.024582101

 GradGradGradGradGradGradGradGradGradGradGradGradGradGradGradGradGradGrad
 Berny optimization.
 Using GEDIIS/GDIIS optimizer.
 FormGI is forming the generalized inverse of G from B-inverse, IUseBI=4.
 Internal  Forces:  Max     0.045343040 RMS     0.020196815
 Search for a local minimum.
 Step number   2 out of a maximum of   20
 All quantities printed in internal units (Hartrees-Bohrs-Radians)
 Mixed Optimization -- RFO/linear search
 Update second derivatives using D2CorX and points    1    2
 DE= -3.34D-02 DEPred=-3.95D-02 R= 8.47D-01
 TightC=F SS=  1.41D+00  RLast= 4.61D-01 DXNew= 5.0454D-01 1.3829D+00
 Trust test= 8.47D-01 RLast= 4.61D-01 DXMaxT set to 5.05D-01
 The second derivative matrix:
                          R1        R2        R3        A1        A2
           R1           0.37271
           R2           0.00041   0.37271
           R3           0.00041   0.00041   0.37271
           A1          -0.01095  -0.01095  -0.01095   0.11753
           A2           0.00288   0.00288   0.00288  -0.03168   0.17410
           A3           0.00288   0.00288   0.00288  -0.03168   0.01410
           D1           0.01176   0.01176   0.01176   0.00562   0.03943
                          A3        D1
           A3           0.17410
           D1           0.03943   0.03715
 ITU=  1  0
 Use linear search instead of GDIIS.
     Eigenvalues ---    0.05907   0.16000   0.20438   0.37230   0.37230
     Eigenvalues ---    0.37702
 RFO step:  Lambda=-1.34944458D-03 EMin= 5.90670805D-02
 Quartic linear search produced a step of  0.95518.
 Iteration  1 RMS(Cart)=  0.06176108 RMS(Int)=  0.11054878
 Iteration  2 RMS(Cart)=  0.04700218 RMS(Int)=  0.04927271
 Iteration  3 RMS(Cart)=  0.00622566 RMS(Int)=  0.04817348
 Iteration  4 RMS(Cart)=  0.00038817 RMS(Int)=  0.04816881
 Iteration  5 RMS(Cart)=  0.00002692 RMS(Int)=  0.04816878
 Iteration  6 RMS(Cart)=  0.00000190 RMS(Int)=  0.04816878
 Iteration  7 RMS(Cart)=  0.00000013 RMS(Int)=  0.04816878
 ClnCor:  largest displacement from symmetrization is 4.44D-02 for atom     4.
 Variable       Old X    -DE/DX   Delta X   Delta X   Delta X     New X
                                 (Linear)    (Quad)   (Total)
    R1        2.03938   0.01008   0.01660  -0.00147   0.02887   2.06825
    R2        2.03938   0.01008   0.01660  -0.00147   0.02887   2.06825
    R3        2.03938   0.01008   0.01660  -0.00147   0.02887   2.06825
    A1        2.03240  -0.00103   0.11631   0.08321   0.05936   2.09176
    A2        2.03240   0.01571   0.11631  -0.01725   0.05936   2.09176
    A3        2.03240   0.01571   0.11631  -0.01725   0.05936   2.09176
    D1        2.50317   0.04534   0.39046   0.10404   0.50337   3.00654
         Item               Value     Threshold  Converged?
 Maximum Force            0.045343     0.000450     NO 
 RMS     Force            0.020197     0.000300     NO 
 Maximum Displacement     0.187381     0.001800     NO 
 RMS     Displacement     0.109499     0.001200     NO 
 Predicted change in Energy=-1.667041D-02
 GradGradGradGradGradGradGradGradGradGradGradGradGradGradGradGradGradGrad

                          Input orientation:                          
 ---------------------------------------------------------------------
 Center     Atomic      Atomic             Coordinates (Angstroms)
 Number     Number       Type             X           Y           Z
 ---------------------------------------------------------------------
      1          6           0        0.111240    0.192673    0.078658
      2          1           0       -0.050888   -0.088141    1.123993
      3          1           0        1.042747   -0.088141   -0.422642
      4          1           0       -0.597706    0.858975   -0.422642
 ---------------------------------------------------------------------
                    Distance matrix (angstroms):
                    1          2          3          4
     1  C    0.000000
     2  H    1.094471   0.000000
     3  H    1.094471   1.894233   0.000000
     4  H    1.094471   1.894233   1.894233   0.000000
 Stoichiometry    CH3(1+)
 Framework group  C3V[C3(C),3SGV(H)]
 Deg. of freedom     2
 Full point group                 C3V     NOp   6
 Largest Abelian subgroup         CS      NOp   2
 Largest concise Abelian subgroup CS      NOp   2
                         Standard orientation:                         
 ---------------------------------------------------------------------
 Center     Atomic      Atomic             Coordinates (Angstroms)
 Number     Number       Type             X           Y           Z
 ---------------------------------------------------------------------
      1          6           0        0.000000    0.000000    0.014244
      2          1           0        0.000000    1.093636   -0.028489
      3          1           0        0.947117   -0.546818   -0.028489
      4          1           0       -0.947117   -0.546818   -0.028489
 ---------------------------------------------------------------------
 Rotational constants (GHZ):    278.8285563    278.8285563    139.7543180
 Standard basis: 6-311G(d,p) (5D, 7F)
 There are    25 symmetry adapted cartesian basis functions of A'  symmetry.
 There are    12 symmetry adapted cartesian basis functions of A"  symmetry.
 There are    24 symmetry adapted basis functions of A'  symmetry.
 There are    12 symmetry adapted basis functions of A"  symmetry.
    36 basis functions,    56 primitive gaussians,    37 cartesian basis functions
     4 alpha electrons        4 beta electrons
       nuclear repulsion energy         9.5410984566 Hartrees.
 NAtoms=    4 NActive=    4 NUniq=    2 SFac= 4.00D+00 NAtFMM=   60 NAOKFM=F Big=F
 Integral buffers will be    131072 words long.
 Raffenetti 1 integral format.
 Two-electron integral symmetry is turned on.
 One-electron integrals computed using PRISM.
 NBasis=    36 RedAO= T EigKep=  2.17D-02  NBF=    24    12
 NBsUse=    36 1.00D-06 EigRej= -1.00D+00 NBFU=    24    12
 Initial guess from the checkpoint file:  "CH3popt.chk"
 B after Tr=     0.000000    0.000000    0.000000
         Rot=    1.000000    0.000000    0.000000    0.000000 Ang=   0.00 deg.
 Initial guess orbital symmetries:
       Occupied  (A1) (A1) (E) (E)
       Virtual   (?A) (?A) (?A) (?A) (?A) (?A) (?A) (?A) (?A) (?A)
                 (?A) (?A) (?A) (?A) (?A) (?A) (?A) (?A) (?A) (?A)
                 (?A) (?A) (?A) (?A) (?A) (?A) (?A) (?A) (?A) (?A)
                 (?A) (?A)
 ExpMin= 1.03D-01 ExpMax= 4.56D+03 ExpMxC= 6.82D+02 IAcc=1 IRadAn=         1 AccDes= 0.00D+00
 Harris functional with IExCor=  205 and IRadAn=       1 diagonalized for initial guess.
 HarFok:  IExCor=  205 AccDes= 0.00D+00 IRadAn=         1 IDoV= 1 UseB2=F ITyADJ=14
 ICtDFT=  3500011 ScaDFX=  1.000000  1.000000  1.000000  1.000000
 FoFCou: FMM=F IPFlag=           0 FMFlag=      100000 FMFlg1=           0
         NFxFlg=           0 DoJE=T BraDBF=F KetDBF=T FulRan=T
         wScrn=  0.000000 ICntrl=     500 IOpCl=  0 I1Cent=   200000004 NGrid=           0
         NMat0=    1 NMatS0=      1 NMatT0=    0 NMatD0=    1 NMtDS0=    0 NMtDT0=    0
 Petite list used in FoFCou.
 Keep R1 ints in memory in symmetry-blocked form, NReq=1080404.
 Requested convergence on RMS density matrix=1.00D-08 within 128 cycles.
 Requested convergence on MAX density matrix=1.00D-06.
 Requested convergence on             energy=1.00D-06.
 No special actions if energy rises.
 SCF Done:  E(RHF) =  -39.2426867865     A.U. after    8 cycles
            NFock=  8  Conv=0.97D-09     -V/T= 2.0016
 Range of M.O.s used for correlation:     1    36
 NBasis=    36 NAE=     4 NBE=     4 NFC=     0 NFV=     0
 NROrb=     36 NOA=     4 NOB=     4 NVA=    32 NVB=    32
 Fully direct method using O(ONN) memory.
 JobTyp=1 Pass  1:  I=   1 to   4 NPSUse=  8 ParTrn=T ParDer=T DoDerP=T.
 Spin components of T(2) and E(2):
     alpha-alpha T2 =       0.2425294863D-02 E2=     -0.8396074184D-02
     alpha-beta  T2 =       0.3089218798D-01 E2=     -0.1141982926D+00
     beta-beta   T2 =       0.2425294863D-02 E2=     -0.8396074184D-02
 ANorm=    0.1017714487D+01
 E2 =    -0.1309904410D+00 EUMP2 =    -0.39373677227412D+02
          IDoAtm=1111
          Differentiating once with respect to electric field.
                with respect to dipole field.
          Differentiating once with respect to nuclear coordinates.
 Keep R1 ints in memory in symmetry-blocked form, NReq=1064258.
          There are     1 degrees of freedom in the 1st order CPHF.  IDoFFX=0 NUNeed=     1.
 LinEq1:  Iter=  0 NonCon=     1 RMS=2.98D-03 Max=1.52D-02 NDo=     1
 AX will form     1 AO Fock derivatives at one time.
 LinEq1:  Iter=  1 NonCon=     1 RMS=4.75D-04 Max=2.11D-03 NDo=     1
 LinEq1:  Iter=  2 NonCon=     1 RMS=6.15D-05 Max=3.08D-04 NDo=     1
 LinEq1:  Iter=  3 NonCon=     1 RMS=5.12D-06 Max=2.28D-05 NDo=     1
 LinEq1:  Iter=  4 NonCon=     1 RMS=3.48D-07 Max=1.76D-06 NDo=     1
 LinEq1:  Iter=  5 NonCon=     1 RMS=3.87D-08 Max=2.40D-07 NDo=     1
 LinEq1:  Iter=  6 NonCon=     1 RMS=3.03D-09 Max=1.59D-08 NDo=     1
 LinEq1:  Iter=  7 NonCon=     1 RMS=3.66D-10 Max=2.70D-09 NDo=     1
 LinEq1:  Iter=  8 NonCon=     0 RMS=3.82D-11 Max=1.62D-10 NDo=     1
 Linear equations converged to 1.000D-10 1.000D-09 after     8 iterations.
 End of Minotr F.D. properties file   721 does not exist.
 End of Minotr F.D. properties file   722 does not exist.
 End of Minotr F.D. properties file   788 does not exist.
 Calling FoFJK, ICntrl=  10002127 FMM=F ISym2X=1 I1Cent= 0 IOpClX= 0 NMat=1 NMatS=1 NMatT=0.
 ***** Axes restored to original set *****
 -------------------------------------------------------------------
 Center     Atomic                   Forces (Hartrees/Bohr)
 Number     Number              X              Y              Z
 -------------------------------------------------------------------
      1        6           0.007355465    0.012740039    0.005201099
      2        1          -0.002080867   -0.003604167   -0.003832137
      3        1          -0.004306596   -0.003604167   -0.000684481
      4        1          -0.000968002   -0.005531705   -0.000684481
 -------------------------------------------------------------------
 Cartesian Forces:  Max     0.012740039 RMS     0.005318825

 GradGradGradGradGradGradGradGradGradGradGradGradGradGradGradGradGradGrad
 Berny optimization.
 Using GEDIIS/GDIIS optimizer.
 FormGI is forming the generalized inverse of G from B-inverse, IUseBI=4.
 Internal  Forces:  Max     0.009159784 RMS     0.003822927
 Search for a local minimum.
 Step number   3 out of a maximum of   20
 All quantities printed in internal units (Hartrees-Bohrs-Radians)
 Mixed Optimization -- RFO/linear search
 Update second derivatives using D2CorX and points    2    3
 DE= -1.48D-02 DEPred=-1.67D-02 R= 8.86D-01
 TightC=F SS=  1.41D+00  RLast= 5.16D-01 DXNew= 8.4853D-01 1.5486D+00
 Trust test= 8.86D-01 RLast= 5.16D-01 DXMaxT set to 8.49D-01
 The second derivative matrix:
                          R1        R2        R3        A1        A2
           R1           0.36493
           R2          -0.00737   0.36493
           R3          -0.00737  -0.00737   0.36493
           A1          -0.01622  -0.01622  -0.01622   0.11610
           A2          -0.01542  -0.01542  -0.01542  -0.04082   0.13605
           A3          -0.01542  -0.01542  -0.01542  -0.04082  -0.02395
           D1           0.01032   0.01032   0.01032  -0.00309   0.02426
                          A3        D1
           A3           0.13605
           D1           0.02426   0.06475
 ITU=  1  1  0
 Use linear search instead of GDIIS.
     Eigenvalues ---    0.06235   0.16000   0.17446   0.35098   0.37230
     Eigenvalues ---    0.37230
 RFO step:  Lambda=-3.34510566D-04 EMin= 6.23493200D-02
 Quartic linear search produced a step of  0.22903.
 Iteration  1 RMS(Cart)=  0.02987519 RMS(Int)=  0.00806917
 Iteration  2 RMS(Cart)=  0.00127121 RMS(Int)=  0.00796157
 Iteration  3 RMS(Cart)=  0.00000233 RMS(Int)=  0.00796156
 Iteration  4 RMS(Cart)=  0.00000002 RMS(Int)=  0.00796156
 ClnCor:  largest displacement from symmetrization is 1.01D-02 for atom     4.
 Variable       Old X    -DE/DX   Delta X   Delta X   Delta X     New X
                                 (Linear)    (Quad)   (Total)
    R1        2.06825  -0.00243   0.00661  -0.01572  -0.00579   2.06246
    R2        2.06825  -0.00243   0.00661  -0.01572  -0.00579   2.06246
    R3        2.06825  -0.00243   0.00661  -0.01572  -0.00579   2.06246
    A1        2.09176  -0.00012   0.01360   0.01632   0.00262   2.09438
    A2        2.09176   0.00060   0.01360  -0.00638   0.00262   2.09438
    A3        2.09176   0.00060   0.01360  -0.00638   0.00262   2.09438
    D1        3.00654   0.00916   0.11528   0.03144   0.14683  -3.12981
         Item               Value     Threshold  Converged?
 Maximum Force            0.009160     0.000450     NO 
 RMS     Force            0.003823     0.000300     NO 
 Maximum Displacement     0.053692     0.001800     NO 
 RMS     Displacement     0.028861     0.001200     NO 
 Predicted change in Energy=-6.804255D-04
 GradGradGradGradGradGradGradGradGradGradGradGradGradGradGradGradGradGrad

                          Input orientation:                          
 ---------------------------------------------------------------------
 Center     Atomic      Atomic             Coordinates (Angstroms)
 Number     Number       Type             X           Y           Z
 ---------------------------------------------------------------------
      1          6           0        0.127644    0.221085    0.090258
      2          1           0       -0.056006   -0.097005    1.118004
      3          1           0        1.035396   -0.097005   -0.425471
      4          1           0       -0.601707    0.848177   -0.425471
 ---------------------------------------------------------------------
                    Distance matrix (angstroms):
                    1          2          3          4
     1  C    0.000000
     2  H    1.091408   0.000000
     3  H    1.091408   1.890363   0.000000
     4  H    1.091408   1.890363   1.890363   0.000000
 Stoichiometry    CH3(1+)
 Framework group  C3V[C3(C),3SGV(H)]
 Deg. of freedom     2
 Full point group                 C3V     NOp   6
 Largest Abelian subgroup         CS      NOp   2
 Largest concise Abelian subgroup CS      NOp   2
                         Standard orientation:                         
 ---------------------------------------------------------------------
 Center     Atomic      Atomic             Coordinates (Angstroms)
 Number     Number       Type             X           Y           Z
 ---------------------------------------------------------------------
      1          6           0        0.000000    0.000000   -0.001237
      2          1           0        0.000000    1.091402    0.002474
      3          1           0        0.945182   -0.545701    0.002474
      4          1           0       -0.945182   -0.545701    0.002474
 ---------------------------------------------------------------------
 Rotational constants (GHZ):    280.6489526    280.6489526    140.3270677
 Standard basis: 6-311G(d,p) (5D, 7F)
 There are    25 symmetry adapted cartesian basis functions of A'  symmetry.
 There are    12 symmetry adapted cartesian basis functions of A"  symmetry.
 There are    24 symmetry adapted basis functions of A'  symmetry.
 There are    12 symmetry adapted basis functions of A"  symmetry.
    36 basis functions,    56 primitive gaussians,    37 cartesian basis functions
     4 alpha electrons        4 beta electrons
       nuclear repulsion energy         9.5672339114 Hartrees.
 NAtoms=    4 NActive=    4 NUniq=    2 SFac= 4.00D+00 NAtFMM=   60 NAOKFM=F Big=F
 Integral buffers will be    131072 words long.
 Raffenetti 1 integral format.
 Two-electron integral symmetry is turned on.
 One-electron integrals computed using PRISM.
 NBasis=    36 RedAO= T EigKep=  2.14D-02  NBF=    24    12
 NBsUse=    36 1.00D-06 EigRej= -1.00D+00 NBFU=    24    12
 Initial guess from the checkpoint file:  "CH3popt.chk"
 B after Tr=     0.000000    0.000000    0.000000
         Rot=    1.000000    0.000000    0.000000    0.000000 Ang=   0.00 deg.
 Initial guess orbital symmetries:
       Occupied  (?A) (?A) (?A) (?A)
       Virtual   (?A) (?A) (?A) (?A) (?A) (?A) (?A) (?A) (?A) (?A)
                 (?A) (?A) (?A) (?A) (?A) (?A) (?A) (?A) (?A) (?A)
                 (?A) (?A) (?A) (?A) (?A) (?A) (?A) (?A) (?A) (?A)
                 (?A) (?A)
 ExpMin= 1.03D-01 ExpMax= 4.56D+03 ExpMxC= 6.82D+02 IAcc=1 IRadAn=         1 AccDes= 0.00D+00
 Harris functional with IExCor=  205 and IRadAn=       1 diagonalized for initial guess.
 HarFok:  IExCor=  205 AccDes= 0.00D+00 IRadAn=         1 IDoV= 1 UseB2=F ITyADJ=14
 ICtDFT=  3500011 ScaDFX=  1.000000  1.000000  1.000000  1.000000
 FoFCou: FMM=F IPFlag=           0 FMFlag=      100000 FMFlg1=           0
         NFxFlg=           0 DoJE=T BraDBF=F KetDBF=T FulRan=T
         wScrn=  0.000000 ICntrl=     500 IOpCl=  0 I1Cent=   200000004 NGrid=           0
         NMat0=    1 NMatS0=      1 NMatT0=    0 NMatD0=    1 NMtDS0=    0 NMtDT0=    0
 Petite list used in FoFCou.
 Keep R1 ints in memory in symmetry-blocked form, NReq=1080404.
 Requested convergence on RMS density matrix=1.00D-08 within 128 cycles.
 Requested convergence on MAX density matrix=1.00D-06.
 Requested convergence on             energy=1.00D-06.
 No special actions if energy rises.
 SCF Done:  E(RHF) =  -39.2434742439     A.U. after    7 cycles
            NFock=  7  Conv=0.31D-08     -V/T= 2.0013
 Range of M.O.s used for correlation:     1    36
 NBasis=    36 NAE=     4 NBE=     4 NFC=     0 NFV=     0
 NROrb=     36 NOA=     4 NOB=     4 NVA=    32 NVB=    32
 Fully direct method using O(ONN) memory.
 JobTyp=1 Pass  1:  I=   1 to   4 NPSUse=  8 ParTrn=T ParDer=T DoDerP=T.
 Spin components of T(2) and E(2):
     alpha-alpha T2 =       0.2416355325D-02 E2=     -0.8386043976D-02
     alpha-beta  T2 =       0.3076287665D-01 E2=     -0.1140706117D+00
     beta-beta   T2 =       0.2416355325D-02 E2=     -0.8386043976D-02
 ANorm=    0.1017642171D+01
 E2 =    -0.1308426996D+00 EUMP2 =    -0.39374316943475D+02
          IDoAtm=1111
          Differentiating once with respect to electric field.
                with respect to dipole field.
          Differentiating once with respect to nuclear coordinates.
 Keep R1 ints in memory in symmetry-blocked form, NReq=1064258.
          There are     1 degrees of freedom in the 1st order CPHF.  IDoFFX=0 NUNeed=     1.
 LinEq1:  Iter=  0 NonCon=     1 RMS=2.97D-03 Max=1.53D-02 NDo=     1
 AX will form     1 AO Fock derivatives at one time.
 LinEq1:  Iter=  1 NonCon=     1 RMS=4.69D-04 Max=2.07D-03 NDo=     1
 LinEq1:  Iter=  2 NonCon=     1 RMS=6.14D-05 Max=3.15D-04 NDo=     1
 LinEq1:  Iter=  3 NonCon=     1 RMS=5.03D-06 Max=2.32D-05 NDo=     1
 LinEq1:  Iter=  4 NonCon=     1 RMS=3.36D-07 Max=1.82D-06 NDo=     1
 LinEq1:  Iter=  5 NonCon=     1 RMS=2.60D-08 Max=1.31D-07 NDo=     1
 LinEq1:  Iter=  6 NonCon=     1 RMS=1.44D-09 Max=7.38D-09 NDo=     1
 LinEq1:  Iter=  7 NonCon=     0 RMS=9.75D-11 Max=4.85D-10 NDo=     1
 Linear equations converged to 1.000D-10 1.000D-09 after     7 iterations.
 End of Minotr F.D. properties file   721 does not exist.
 End of Minotr F.D. properties file   722 does not exist.
 End of Minotr F.D. properties file   788 does not exist.
 Calling FoFJK, ICntrl=  10002127 FMM=F ISym2X=1 I1Cent= 0 IOpClX= 0 NMat=1 NMatS=1 NMatT=0.
 ***** Axes restored to original set *****
 -------------------------------------------------------------------
 Center     Atomic                   Forces (Hartrees/Bohr)
 Number     Number              X              Y              Z
 -------------------------------------------------------------------
      1        6          -0.000634099   -0.001098291   -0.000448376
      2        1           0.000278891    0.000483054   -0.000232521
      3        1          -0.000126259    0.000483054    0.000340448
      4        1           0.000481466    0.000132183    0.000340448
 -------------------------------------------------------------------
 Cartesian Forces:  Max     0.001098291 RMS     0.000492014

 GradGradGradGradGradGradGradGradGradGradGradGradGradGradGradGradGradGrad
 Berny optimization.
 Using GEDIIS/GDIIS optimizer.
 FormGI is forming the generalized inverse of G from B-inverse, IUseBI=4.
 Internal  Forces:  Max     0.000798403 RMS     0.000402428
 Search for a local minimum.
 Step number   4 out of a maximum of   20
 All quantities printed in internal units (Hartrees-Bohrs-Radians)
 Mixed Optimization -- En-DIIS/RFO-DIIS
 Update second derivatives using D2CorX and points    3    4
 DE= -6.40D-04 DEPred=-6.80D-04 R= 9.40D-01
 TightC=F SS=  1.41D+00  RLast= 1.47D-01 DXNew= 1.4270D+00 4.4171D-01
 Trust test= 9.40D-01 RLast= 1.47D-01 DXMaxT set to 8.49D-01
 The second derivative matrix:
                          R1        R2        R3        A1        A2
           R1           0.36737
           R2          -0.00493   0.36737
           R3          -0.00493  -0.00493   0.36737
           A1          -0.01610  -0.01610  -0.01610   0.11610
           A2          -0.01442  -0.01442  -0.01442  -0.04063   0.12492
           A3          -0.01442  -0.01442  -0.01442  -0.04063  -0.03508
           D1           0.00113   0.00113   0.00113  -0.00331   0.00146
                          A3        D1
           A3           0.12492
           D1           0.00146   0.06796
 ITU=  1  1  1  0
 Use linear search instead of GDIIS.
     Eigenvalues ---    0.06779   0.16000   0.16165   0.35756   0.37230
     Eigenvalues ---    0.37230
 RFO step:  Lambda=-2.66131316D-06 EMin= 6.77914007D-02
 Quartic linear search produced a step of -0.07347.
 Iteration  1 RMS(Cart)=  0.00239719 RMS(Int)=  0.00013722
 Iteration  2 RMS(Cart)=  0.00000804 RMS(Int)=  0.00013698
 Iteration  3 RMS(Cart)=  0.00000000 RMS(Int)=  0.00013698
 ClnCor:  largest displacement from symmetrization is 1.93D-04 for atom     4.
 Variable       Old X    -DE/DX   Delta X   Delta X   Delta X     New X
                                 (Linear)    (Quad)   (Total)
    R1        2.06246  -0.00041   0.00043  -0.00155  -0.00119   2.06127
    R2        2.06246  -0.00041   0.00043  -0.00155  -0.00119   2.06127
    R3        2.06246  -0.00041   0.00043  -0.00155  -0.00119   2.06127
    A1        2.09438   0.00000  -0.00019  -0.00028   0.00002   2.09440
    A2        2.09438   0.00000  -0.00019   0.00015   0.00002   2.09440
    A3        2.09438   0.00000  -0.00019   0.00015   0.00002   2.09440
    D1       -3.12981  -0.00080  -0.01079  -0.00092  -0.01171  -3.14153
         Item               Value     Threshold  Converged?
 Maximum Force            0.000798     0.000450     NO 
 RMS     Force            0.000402     0.000300     NO 
 Maximum Displacement     0.004270     0.001800     NO 
 RMS     Displacement     0.002409     0.001200     NO 
 Predicted change in Energy=-5.331526D-06
 GradGradGradGradGradGradGradGradGradGradGradGradGradGradGradGradGradGrad

                          Input orientation:                          
 ---------------------------------------------------------------------
 Center     Atomic      Atomic             Coordinates (Angstroms)
 Number     Number       Type             X           Y           Z
 ---------------------------------------------------------------------
      1          6           0        0.126339    0.218826    0.089335
      2          1           0       -0.055467   -0.096072    1.117724
      3          1           0        1.035311   -0.096072   -0.424870
      4          1           0       -0.600856    0.848570   -0.424870
 ---------------------------------------------------------------------
                    Distance matrix (angstroms):
                    1          2          3          4
     1  C    0.000000
     2  H    1.090779   0.000000
     3  H    1.090779   1.889284   0.000000
     4  H    1.090779   1.889284   1.889284   0.000000
 Stoichiometry    CH3(1+)
 Framework group  C3V[C3(C),3SGV(H)]
 Deg. of freedom     2
 Full point group                 C3V     NOp   6
 Largest Abelian subgroup         CS      NOp   2
 Largest concise Abelian subgroup CS      NOp   2
                         Standard orientation:                         
 ---------------------------------------------------------------------
 Center     Atomic      Atomic             Coordinates (Angstroms)
 Number     Number       Type             X           Y           Z
 ---------------------------------------------------------------------
      1          6           0        0.000000    0.000000   -0.000007
      2          1           0        0.000000    1.090779    0.000014
      3          1           0        0.944642   -0.545389    0.000014
      4          1           0       -0.944642   -0.545389    0.000014
 ---------------------------------------------------------------------
 Rotational constants (GHZ):    280.9749575    280.9749575    140.4874788
 Standard basis: 6-311G(d,p) (5D, 7F)
 There are    25 symmetry adapted cartesian basis functions of A'  symmetry.
 There are    12 symmetry adapted cartesian basis functions of A"  symmetry.
 There are    24 symmetry adapted basis functions of A'  symmetry.
 There are    12 symmetry adapted basis functions of A"  symmetry.
    36 basis functions,    56 primitive gaussians,    37 cartesian basis functions
     4 alpha electrons        4 beta electrons
       nuclear repulsion energy         9.5727510856 Hartrees.
 NAtoms=    4 NActive=    4 NUniq=    2 SFac= 4.00D+00 NAtFMM=   60 NAOKFM=F Big=F
 Integral buffers will be    131072 words long.
 Raffenetti 1 integral format.
 Two-electron integral symmetry is turned on.
 One-electron integrals computed using PRISM.
 NBasis=    36 RedAO= T EigKep=  2.14D-02  NBF=    24    12
 NBsUse=    36 1.00D-06 EigRej= -1.00D+00 NBFU=    24    12
 Initial guess from the checkpoint file:  "CH3popt.chk"
 B after Tr=     0.000000    0.000000    0.000000
         Rot=    1.000000    0.000000    0.000000    0.000000 Ang=   0.00 deg.
 Initial guess orbital symmetries:
       Occupied  (?A) (?A) (?A) (?A)
       Virtual   (?A) (?A) (?A) (?A) (?A) (?A) (?A) (?A) (?A) (?A)
                 (?A) (?A) (?A) (?A) (?A) (?A) (?A) (?A) (?A) (?A)
                 (?A) (?A) (?A) (?A) (?A) (?A) (?A) (?A) (?A) (?A)
                 (?A) (?A)
 Keep R1 ints in memory in symmetry-blocked form, NReq=1080404.
 Requested convergence on RMS density matrix=1.00D-08 within 128 cycles.
 Requested convergence on MAX density matrix=1.00D-06.
 Requested convergence on             energy=1.00D-06.
 No special actions if energy rises.
 SCF Done:  E(RHF) =  -39.2435029832     A.U. after    6 cycles
            NFock=  6  Conv=0.48D-08     -V/T= 2.0013
 Range of M.O.s used for correlation:     1    36
 NBasis=    36 NAE=     4 NBE=     4 NFC=     0 NFV=     0
 NROrb=     36 NOA=     4 NOB=     4 NVA=    32 NVB=    32
 Fully direct method using O(ONN) memory.
 JobTyp=1 Pass  1:  I=   1 to   4 NPSUse=  8 ParTrn=T ParDer=T DoDerP=T.
 Spin components of T(2) and E(2):
     alpha-alpha T2 =       0.2414869402D-02 E2=     -0.8384961786D-02
     alpha-beta  T2 =       0.3073990257D-01 E2=     -0.1140494159D+00
     beta-beta   T2 =       0.2414869402D-02 E2=     -0.8384961786D-02
 ANorm=    0.1017629422D+01
 E2 =    -0.1308193395D+00 EUMP2 =    -0.39374322322603D+02
          IDoAtm=1111
          Differentiating once with respect to electric field.
                with respect to dipole field.
          Differentiating once with respect to nuclear coordinates.
 Keep R1 ints in memory in symmetry-blocked form, NReq=1064258.
          There are     1 degrees of freedom in the 1st order CPHF.  IDoFFX=0 NUNeed=     1.
 LinEq1:  Iter=  0 NonCon=     1 RMS=2.97D-03 Max=1.53D-02 NDo=     1
 AX will form     1 AO Fock derivatives at one time.
 LinEq1:  Iter=  1 NonCon=     1 RMS=4.68D-04 Max=2.06D-03 NDo=     1
 LinEq1:  Iter=  2 NonCon=     1 RMS=6.14D-05 Max=3.15D-04 NDo=     1
 LinEq1:  Iter=  3 NonCon=     1 RMS=5.03D-06 Max=2.31D-05 NDo=     1
 LinEq1:  Iter=  4 NonCon=     1 RMS=3.36D-07 Max=1.82D-06 NDo=     1
 LinEq1:  Iter=  5 NonCon=     1 RMS=2.59D-08 Max=1.31D-07 NDo=     1
 LinEq1:  Iter=  6 NonCon=     1 RMS=1.40D-09 Max=7.43D-09 NDo=     1
 LinEq1:  Iter=  7 NonCon=     0 RMS=8.02D-11 Max=4.37D-10 NDo=     1
 Linear equations converged to 1.000D-10 1.000D-09 after     7 iterations.
 End of Minotr F.D. properties file   721 does not exist.
 End of Minotr F.D. properties file   722 does not exist.
 End of Minotr F.D. properties file   788 does not exist.
 Calling FoFJK, ICntrl=  10002127 FMM=F ISym2X=1 I1Cent= 0 IOpClX= 0 NMat=1 NMatS=1 NMatT=0.
 ***** Axes restored to original set *****
 -------------------------------------------------------------------
 Center     Atomic                   Forces (Hartrees/Bohr)
 Number     Number              X              Y              Z
 -------------------------------------------------------------------
      1        6          -0.000003544   -0.000006139   -0.000002506
      2        1          -0.000003439   -0.000005956    0.000026971
      3        1           0.000024282   -0.000005956   -0.000012232
      4        1          -0.000017299    0.000018051   -0.000012232
 -------------------------------------------------------------------
 Cartesian Forces:  Max     0.000026971 RMS     0.000014085

 GradGradGradGradGradGradGradGradGradGradGradGradGradGradGradGradGradGrad
 Berny optimization.
 Using GEDIIS/GDIIS optimizer.
 FormGI is forming the generalized inverse of G from B-inverse, IUseBI=4.
 Internal  Forces:  Max     0.000027720 RMS     0.000018226
 Search for a local minimum.
 Step number   5 out of a maximum of   20
 All quantities printed in internal units (Hartrees-Bohrs-Radians)
 Mixed Optimization -- En-DIIS/RFO-DIIS
 Swapping is turned off.
 Update second derivatives using D2CorX and points    3    4    5
 DE= -5.38D-06 DEPred=-5.33D-06 R= 1.01D+00
 TightC=F SS=  1.41D+00  RLast= 1.19D-02 DXNew= 1.4270D+00 3.5675D-02
 Trust test= 1.01D+00 RLast= 1.19D-02 DXMaxT set to 8.49D-01
 The second derivative matrix:
                          R1        R2        R3        A1        A2
           R1           0.36709
           R2          -0.00521   0.36709
           R3          -0.00521  -0.00521   0.36709
           A1          -0.01169  -0.01169  -0.01169   0.11512
           A2          -0.01303  -0.01303  -0.01303  -0.04104   0.12476
           A3          -0.01303  -0.01303  -0.01303  -0.04104  -0.03524
           D1           0.00079   0.00079   0.00079   0.00370   0.00367
                          A3        D1
           A3           0.12476
           D1           0.00367   0.06757
 ITU=  1  1  1  1  0
     Eigenvalues ---    0.06756   0.16000   0.16129   0.35669   0.37230
     Eigenvalues ---    0.37230
 En-DIIS/RFO-DIIS IScMMF=        0 using points:     5    4
 RFO step:  Lambda= 0.00000000D+00.
 DidBck=F Rises=F RFO-DIIS coefs:    0.99569    0.00431
 Iteration  1 RMS(Cart)=  0.00005272 RMS(Int)=  0.00000006
 Iteration  2 RMS(Cart)=  0.00000000 RMS(Int)=  0.00000006
 ClnCor:  largest displacement from symmetrization is 8.63D-07 for atom     4.
 Variable       Old X    -DE/DX   Delta X   Delta X   Delta X     New X
                                 (Linear)    (Quad)   (Total)
    R1        2.06127   0.00003   0.00001   0.00007   0.00008   2.06135
    R2        2.06127   0.00003   0.00001   0.00007   0.00008   2.06135
    R3        2.06127   0.00003   0.00001   0.00007   0.00008   2.06135
    A1        2.09440   0.00000   0.00000   0.00000   0.00000   2.09440
    A2        2.09440   0.00000   0.00000   0.00000   0.00000   2.09440
    A3        2.09440   0.00000   0.00000   0.00000   0.00000   2.09440
    D1       -3.14153   0.00000   0.00005  -0.00012  -0.00007   3.14159
         Item               Value     Threshold  Converged?
 Maximum Force            0.000028     0.000450     YES
 RMS     Force            0.000018     0.000300     YES
 Maximum Displacement     0.000077     0.001800     YES
 RMS     Displacement     0.000053     0.001200     YES
 Predicted change in Energy=-3.392365D-09
 Optimization completed.
    -- Stationary point found.
                           ----------------------------
                           !   Optimized Parameters   !
                           ! (Angstroms and Degrees)  !
 --------------------------                            --------------------------
 ! Name  Definition              Value          Derivative Info.                !
 --------------------------------------------------------------------------------
 ! R1    R(1,2)                  1.0908         -DE/DX =    0.0                 !
 ! R2    R(1,3)                  1.0908         -DE/DX =    0.0                 !
 ! R3    R(1,4)                  1.0908         -DE/DX =    0.0                 !
 ! A1    A(2,1,3)              120.0            -DE/DX =    0.0                 !
 ! A2    A(2,1,4)              120.0            -DE/DX =    0.0                 !
 ! A3    A(3,1,4)              120.0            -DE/DX =    0.0                 !
 ! D1    D(2,1,4,3)            180.0038         -DE/DX =    0.0                 !
 --------------------------------------------------------------------------------
 GradGradGradGradGradGradGradGradGradGradGradGradGradGradGradGradGradGrad

                          Input orientation:                          
 ---------------------------------------------------------------------
 Center     Atomic      Atomic             Coordinates (Angstroms)
 Number     Number       Type             X           Y           Z
 ---------------------------------------------------------------------
      1          6           0        0.126339    0.218826    0.089335
      2          1           0       -0.055467   -0.096072    1.117724
      3          1           0        1.035311   -0.096072   -0.424870
      4          1           0       -0.600856    0.848570   -0.424870
 ---------------------------------------------------------------------
                    Distance matrix (angstroms):
                    1          2          3          4
     1  C    0.000000
     2  H    1.090779   0.000000
     3  H    1.090779   1.889284   0.000000
     4  H    1.090779   1.889284   1.889284   0.000000
 Stoichiometry    CH3(1+)
 Framework group  C3V[C3(C),3SGV(H)]
 Deg. of freedom     2
 Full point group                 C3V     NOp   6
 Largest Abelian subgroup         CS      NOp   2
 Largest concise Abelian subgroup CS      NOp   2
                         Standard orientation:                         
 ---------------------------------------------------------------------
 Center     Atomic      Atomic             Coordinates (Angstroms)
 Number     Number       Type             X           Y           Z
 ---------------------------------------------------------------------
      1          6           0        0.000000    0.000000   -0.000007
      2          1           0        0.000000    1.090779    0.000014
      3          1           0        0.944642   -0.545389    0.000014
      4          1           0       -0.944642   -0.545389    0.000014
 ---------------------------------------------------------------------
 Rotational constants (GHZ):    280.9749575    280.9749575    140.4874788

 **********************************************************************

            Population analysis using the SCF density.

 **********************************************************************

 Orbital symmetries:
       Occupied  (?A) (?A) (?B) (?B)
       Virtual   (A1) (?A) (?B) (?B) (?B) (?B) (?A) (A1) (?B) (?B)
                 (?A) (?C) (?C) (?B) (?B) (?A) (?A) (A1) (?B) (?B)
                 (?C) (?C) (?A) (?B) (?B) (?B) (?B) (?A) (A1) (?B)
                 (?B) (?A)
 Unable to determine electronic state:  an orbital has unidentified symmetry.
 Alpha  occ. eigenvalues --  -11.68297  -1.27586  -0.94977  -0.94977
 Alpha virt. eigenvalues --   -0.28139  -0.08151  -0.01494  -0.01494   0.15006
 Alpha virt. eigenvalues --    0.15006   0.21926   0.31315   0.47715   0.47715
 Alpha virt. eigenvalues --    0.55875   0.93558   0.93558   1.28814   1.28814
 Alpha virt. eigenvalues --    1.31613   1.39671   1.56128   1.81363   1.81363
 Alpha virt. eigenvalues --    1.87025   1.87025   2.24699   2.36953   2.36953
 Alpha virt. eigenvalues --    2.58586   2.58586   2.63921   2.65645   3.71821
 Alpha virt. eigenvalues --    3.71821  24.58175
          Condensed to atoms (all electrons):
               1          2          3          4
     1  C    4.657832   0.380492   0.380492   0.380492
     2  H    0.380492   0.371086  -0.009007  -0.009007
     3  H    0.380492  -0.009007   0.371086  -0.009007
     4  H    0.380492  -0.009007  -0.009007   0.371086
 Mulliken charges:
               1
     1  C    0.200693
     2  H    0.266436
     3  H    0.266436
     4  H    0.266436
 Sum of Mulliken charges =   1.00000
 Mulliken charges with hydrogens summed into heavy atoms:
               1
     1  C    1.000000
 Electronic spatial extent (au):  <R**2>=             22.5414
 Charge=              1.0000 electrons
 Dipole moment (field-independent basis, Debye):
    X=              0.0000    Y=              0.0000    Z=              0.0000  Tot=              0.0000
 Quadrupole moment (field-independent basis, Debye-Ang):
   XX=             -4.0889   YY=             -4.0889   ZZ=             -4.9966
   XY=              0.0000   XZ=              0.0000   YZ=              0.0000
 Traceless Quadrupole moment (field-independent basis, Debye-Ang):
   XX=              0.3026   YY=              0.3026   ZZ=             -0.6051
   XY=              0.0000   XZ=              0.0000   YZ=              0.0000
 Octapole moment (field-independent basis, Debye-Ang**2):
  XXX=              0.0000  YYY=              1.7582  ZZZ=              0.0000  XYY=              0.0000
  XXY=             -1.7582  XXZ=              0.0001  XZZ=              0.0000  YZZ=              0.0000
  YYZ=              0.0001  XYZ=              0.0000
 Hexadecapole moment (field-independent basis, Debye-Ang**3):
 XXXX=             -7.8409 YYYY=             -7.8409 ZZZZ=             -3.3763 XXXY=              0.0000
 XXXZ=              0.0000 YYYX=              0.0000 YYYZ=              0.0000 ZZZX=              0.0000
 ZZZY=              0.0000 XXYY=             -2.6136 XXZZ=             -2.4821 YYZZ=             -2.4821
 XXYZ=              0.0000 YYXZ=              0.0000 ZZXY=              0.0000
 N-N= 9.572751085643D+00 E-N=-1.071098964074D+02  KE= 3.919411418291D+01
 Symmetry A'   KE= 3.701696737648D+01
 Symmetry A"   KE= 2.177146806426D+00
 B after Tr=    -0.132831   -0.230070   -0.093926
         Rot=    1.000000    0.000000    0.000000    0.000000 Ang=   0.00 deg.
 Final structure in terms of initial Z-matrix:
 C
 H,1,B1
 H,1,B2,2,A1
 H,1,B3,3,A2,2,D1,0
      Variables:
 B1=1.09077855
 B2=1.09077855
 B3=1.09077855
 A1=119.99999996
 A2=119.99999996
 D1=-179.99621882
 1\1\GINC-TC-NODE161\FOpt\RMP2-Full\6-311G(d,p)\C1H3(1+)\MAXB2\25-Oct-2
 016\0\\# opt freq mp2(full)/6-311g**\\Title Card Required\\1,1\C,0.126
 3389994,0.2188256096,0.0893351922\H,-0.0554672127,-0.0960720051,1.1177
 241471\H,1.0353113292,-0.0960719945,-0.424869681\H,-0.6008565061,0.848
 5699274,-0.4248696698\\Version=ES64L-G09RevD.01\HF=-39.243503\MP2=-39.
 3743223\RMSD=4.811e-09\RMSF=1.409e-05\Dipole=-0.0000003,-0.0000004,-0.
 0000002\PG=C03V [C3(C1),3SGV(H1)]\\@


 There are more things in heaven and earth, Horatio,
 than are dreamt of in your philosophy.
                   -- Hamlet, Act I, Scene 5
 Job cpu time:       0 days  0 hours  1 minutes 12.0 seconds.
 File lengths (MBytes):  RWF=      5 Int=      0 D2E=      0 Chk=      2 Scr=      1
 Normal termination of Gaussian 09 at Tue Oct 25 11:34:11 2016.
 Link1:  Proceeding to internal job step number  2.
 ----------------------------------------------------------------------
 #N Geom=AllCheck Guess=TCheck SCRF=Check GenChk RMP2-Full/6-311G(d,p) 
 Freq
 ----------------------------------------------------------------------
 1/10=4,29=7,30=1,38=1,40=1/1,3;
 2/12=2,40=1/2;
 3/5=4,6=6,7=101,11=1,14=-4,16=1,25=1,30=1,70=2,71=2,116=1,140=1/1,2,3;
 4/5=101/1;
 5/5=2,98=1/2;
 8/6=3,8=1,10=90,19=11/1;
 9/15=3,16=-3/6;
 11/6=1,8=1,15=11,17=11,24=-1,27=1,28=-2,29=300,32=6,42=3/1,2,10;
 10/6=2,21=1/2;
 8/6=4,8=1,10=90,19=11/11,4;
 10/5=1,20=4/2;
 11/12=2,14=11,16=1,28=-2,42=3/2,10,12;
 6/7=2,8=2,9=2,10=2/1;
 7/8=1,10=1,12=2,25=1,44=2/1,2,3,16;
 1/10=4,30=1/3;
 99//99;
 Structure from the checkpoint file:  "CH3popt.chk"
 -------------------
 Title Card Required
 -------------------
 Charge =  1 Multiplicity = 1
 Redundant internal coordinates found in file.
 C,0,0.1263390202,0.2188256037,0.0893351773
 H,0,-0.0554671919,-0.0960720111,1.1177241323
 H,0,1.03531135,-0.0960720004,-0.4248696958
 H,0,-0.6008564853,0.8485699215,-0.4248696846
 Recover connectivity data from disk.

 GradGradGradGradGradGradGradGradGradGradGradGradGradGradGradGradGradGrad
 Berny optimization.
 Initialization pass.
                           ----------------------------
                           !    Initial Parameters    !
                           ! (Angstroms and Degrees)  !
 --------------------------                            --------------------------
 ! Name  Definition              Value          Derivative Info.                !
 --------------------------------------------------------------------------------
 ! R1    R(1,2)                  1.0908         calculate D2E/DX2 analytically  !
 ! R2    R(1,3)                  1.0908         calculate D2E/DX2 analytically  !
 ! R3    R(1,4)                  1.0908         calculate D2E/DX2 analytically  !
 ! A1    A(2,1,3)              120.0            calculate D2E/DX2 analytically  !
 ! A2    A(2,1,4)              120.0            calculate D2E/DX2 analytically  !
 ! A3    A(3,1,4)              120.0            calculate D2E/DX2 analytically  !
 ! D1    D(2,1,4,3)           -179.9962         calculate D2E/DX2 analytically  !
 --------------------------------------------------------------------------------
 Trust Radius=3.00D-01 FncErr=1.00D-07 GrdErr=1.00D-07
 Number of steps in this run=      2 maximum allowed number of steps=      2.
 GradGradGradGradGradGradGradGradGradGradGradGradGradGradGradGradGradGrad

                          Input orientation:                          
 ---------------------------------------------------------------------
 Center     Atomic      Atomic             Coordinates (Angstroms)
 Number     Number       Type             X           Y           Z
 ---------------------------------------------------------------------
      1          6           0        0.126339    0.218826    0.089335
      2          1           0       -0.055467   -0.096072    1.117724
      3          1           0        1.035311   -0.096072   -0.424870
      4          1           0       -0.600856    0.848570   -0.424870
 ---------------------------------------------------------------------
                    Distance matrix (angstroms):
                    1          2          3          4
     1  C    0.000000
     2  H    1.090779   0.000000
     3  H    1.090779   1.889284   0.000000
     4  H    1.090779   1.889284   1.889284   0.000000
 Stoichiometry    CH3(1+)
 Framework group  C3V[C3(C),3SGV(H)]
 Deg. of freedom     2
 Full point group                 C3V     NOp   6
 Largest Abelian subgroup         CS      NOp   2
 Largest concise Abelian subgroup CS      NOp   2
                         Standard orientation:                         
 ---------------------------------------------------------------------
 Center     Atomic      Atomic             Coordinates (Angstroms)
 Number     Number       Type             X           Y           Z
 ---------------------------------------------------------------------
      1          6           0        0.000000    0.000000   -0.000007
      2          1           0        0.000000    1.090779    0.000014
      3          1           0        0.944642   -0.545389    0.000014
      4          1           0       -0.944642   -0.545389    0.000014
 ---------------------------------------------------------------------
 Rotational constants (GHZ):    280.9749575    280.9749575    140.4874788
 Standard basis: 6-311G(d,p) (5D, 7F)
 There are    25 symmetry adapted cartesian basis functions of A'  symmetry.
 There are    12 symmetry adapted cartesian basis functions of A"  symmetry.
 There are    24 symmetry adapted basis functions of A'  symmetry.
 There are    12 symmetry adapted basis functions of A"  symmetry.
    36 basis functions,    56 primitive gaussians,    37 cartesian basis functions
     4 alpha electrons        4 beta electrons
       nuclear repulsion energy         9.5727510856 Hartrees.
 NAtoms=    4 NActive=    4 NUniq=    2 SFac= 4.00D+00 NAtFMM=   60 NAOKFM=F Big=F
 Integral buffers will be    131072 words long.
 Raffenetti 1 integral format.
 Two-electron integral symmetry is turned on.
 One-electron integrals computed using PRISM.
 NBasis=    36 RedAO= T EigKep=  2.14D-02  NBF=    24    12
 NBsUse=    36 1.00D-06 EigRej= -1.00D+00 NBFU=    24    12
 Initial guess from the checkpoint file:  "CH3popt.chk"
 B after Tr=     0.000000    0.000000    0.000000
         Rot=    1.000000    0.000000    0.000000    0.000000 Ang=   0.00 deg.
 Initial guess orbital symmetries:
       Occupied  (?A) (?A) (?B) (?B)
       Virtual   (A1) (?A) (?B) (?B) (?B) (?B) (?A) (A1) (?B) (?B)
                 (?A) (?C) (?C) (?B) (?B) (?A) (?A) (A1) (?B) (?B)
                 (?C) (?C) (?A) (?B) (?B) (?B) (?B) (?A) (A1) (?B)
                 (?B) (?A)
 Keep R1 ints in memory in symmetry-blocked form, NReq=1080404.
 Requested convergence on RMS density matrix=1.00D-08 within 128 cycles.
 Requested convergence on MAX density matrix=1.00D-06.
 Requested convergence on             energy=1.00D-06.
 No special actions if energy rises.
 SCF Done:  E(RHF) =  -39.2435029832     A.U. after    1 cycles
            NFock=  1  Conv=0.33D-09     -V/T= 2.0013
 Range of M.O.s used for correlation:     1    36
 NBasis=    36 NAE=     4 NBE=     4 NFC=     0 NFV=     0
 NROrb=     36 NOA=     4 NOB=     4 NVA=    32 NVB=    32
 Disk-based method using ON**2 memory for  4 occupieds at a time.
 Permanent disk used for amplitudes=       19360 words.
 Estimated scratch disk usage=      931260 words.
 Actual    scratch disk usage=      931260 words.
 JobTyp=1 Pass  1:  I=   1 to   4 NPSUse=  8 ParTrn=T ParDer=T DoDerP=T.
 (rs|ai) integrals will be sorted in core.
 Spin components of T(2) and E(2):
     alpha-alpha T2 =       0.2414869424D-02 E2=     -0.8384961840D-02
     alpha-beta  T2 =       0.3073990266D-01 E2=     -0.1140494160D+00
     beta-beta   T2 =       0.2414869424D-02 E2=     -0.8384961840D-02
 ANorm=    0.1017629422D+01
 E2 =    -0.1308193396D+00 EUMP2 =    -0.39374322322797D+02
 G2DrvN: will do     5 centers at a time, making    1 passes.
 Calling FoFCou, ICntrl=  3107 FMM=F I1Cent=   0 AccDes= 0.00D+00.
 End of G2Drv F.D. properties file   721 does not exist.
 End of G2Drv F.D. properties file   722 does not exist.
 End of G2Drv F.D. properties file   788 does not exist.
          IDoAtm=1111
          Differentiating once with respect to electric field.
                with respect to dipole field.
          Differentiating once with respect to nuclear coordinates.
 Keep R1 ints in memory in symmetry-blocked form, NReq=1064201.
          There are    15 degrees of freedom in the 1st order CPHF.  IDoFFX=6 NUNeed=    15.
     12 vectors produced by pass  0 Test12= 8.53D-16 6.67D-09 XBig12= 1.75D+00 8.15D-01.
 AX will form    12 AO Fock derivatives at one time.
     12 vectors produced by pass  1 Test12= 8.53D-16 6.67D-09 XBig12= 1.12D-02 5.40D-02.
     12 vectors produced by pass  2 Test12= 8.53D-16 6.67D-09 XBig12= 4.83D-05 2.45D-03.
     12 vectors produced by pass  3 Test12= 8.53D-16 6.67D-09 XBig12= 1.73D-07 1.48D-04.
     11 vectors produced by pass  4 Test12= 8.53D-16 6.67D-09 XBig12= 2.27D-10 5.79D-06.
      8 vectors produced by pass  5 Test12= 8.53D-16 6.67D-09 XBig12= 8.39D-13 2.76D-07.
      3 vectors produced by pass  6 Test12= 8.53D-16 6.67D-09 XBig12= 1.14D-15 1.83D-08.
 InvSVY:  IOpt=1 It=  1 EMax= 5.55D-16
 Solved reduced A of dimension    70 with    12 vectors.
 End of Minotr F.D. properties file   721 does not exist.
 End of Minotr F.D. properties file   722 does not exist.
 End of Minotr F.D. properties file   788 does not exist.
 MDV=   536870912.
 Form MO integral derivatives with frozen-active canonical formalism.
 Discarding MO integrals.
 Reordered first order wavefunction length =        32768
 In DefCFB: NBatch=  1 ICI=  4 ICA= 32 LFMax= 32
            Large arrays: LIAPS=      681984 LIARS=      629888 words.
 Semi-Direct transformation.
 ModeAB=           4 MOrb=             4 LenV=     536686758
 LASXX=        83637 LTotXX=       83637 LenRXX=      174265
 LTotAB=       90628 MaxLAS=       80496 LenRXY=           0
 NonZer=      257902 LenScr=      785920 LnRSAI=       80496
 LnScr1=      785920 LExtra=           0 Total=      1826601
 MaxDsk=          -1 SrtSym=           T ITran=            4
 JobTyp=0 Pass  1:  I=   1 to   4.
 (rs|ai) integrals will be sorted in core.
 Spin components of T(2) and E(2):
     alpha-alpha T2 =       0.2414869424D-02 E2=     -0.8384961840D-02
     alpha-beta  T2 =       0.3073990266D-01 E2=     -0.1140494160D+00
     beta-beta   T2 =       0.2414869424D-02 E2=     -0.8384961840D-02
 ANorm=    0.1439145331D+01
 E2 =    -0.1308193396D+00 EUMP2 =    -0.39374322322797D+02
          IDoAtm=1111
          Differentiating once with respect to electric field.
                with respect to dipole field.
          Differentiating once with respect to nuclear coordinates.
          There are     1 degrees of freedom in the 1st order CPHF.  IDoFFX=0 NUNeed=     1.
 LinEq1:  Iter=  0 NonCon=     1 RMS=2.97D-03 Max=1.53D-02 NDo=     1
 LinEq1:  Iter=  1 NonCon=     1 RMS=4.68D-04 Max=2.06D-03 NDo=     1
 LinEq1:  Iter=  2 NonCon=     1 RMS=6.14D-05 Max=3.15D-04 NDo=     1
 LinEq1:  Iter=  3 NonCon=     1 RMS=5.03D-06 Max=2.31D-05 NDo=     1
 LinEq1:  Iter=  4 NonCon=     1 RMS=3.36D-07 Max=1.82D-06 NDo=     1
 LinEq1:  Iter=  5 NonCon=     1 RMS=2.59D-08 Max=1.31D-07 NDo=     1
 LinEq1:  Iter=  6 NonCon=     1 RMS=1.40D-09 Max=7.43D-09 NDo=     1
 LinEq1:  Iter=  7 NonCon=     0 RMS=8.02D-11 Max=4.37D-10 NDo=     1
 Linear equations converged to 1.000D-10 1.000D-09 after     7 iterations.
 End of Minotr F.D. properties file   721 does not exist.
 End of Minotr F.D. properties file   722 does not exist.
 End of Minotr F.D. properties file   788 does not exist.
 Symmetrizing basis deriv contribution to polar:
 IMax=3 JMax=2 DiffMx= 0.00D+00
 G2DrvN: will do     5 centers at a time, making    1 passes.
 Calling FoFCou, ICntrl=  3107 FMM=F I1Cent=   0 AccDes= 0.00D+00.
 End of G2Drv F.D. properties file   721 does not exist.
 End of G2Drv F.D. properties file   722 does not exist.
 End of G2Drv F.D. properties file   788 does not exist.
 R2 and R3 integrals will be kept in memory, NReq=     1314912.
 DD1Dir will call FoFMem   1 times, MxPair=        20
 NAB=    10 NAA=     0 NBB=     0.
 Discarding MO integrals.

 **********************************************************************

            Population analysis using the SCF density.

 **********************************************************************

 Orbital symmetries:
       Occupied  (?A) (?A) (?B) (?B)
       Virtual   (A1) (?A) (?B) (?B) (?B) (?B) (?A) (A1) (?B) (?B)
                 (?A) (?C) (?C) (?B) (?B) (?A) (?A) (A1) (?B) (?B)
                 (?C) (?C) (?A) (?B) (?B) (?B) (?B) (?A) (A1) (?B)
                 (?B) (?A)
 Unable to determine electronic state:  an orbital has unidentified symmetry.
 Alpha  occ. eigenvalues --  -11.68297  -1.27586  -0.94977  -0.94977
 Alpha virt. eigenvalues --   -0.28139  -0.08151  -0.01494  -0.01494   0.15006
 Alpha virt. eigenvalues --    0.15006   0.21926   0.31315   0.47715   0.47715
 Alpha virt. eigenvalues --    0.55875   0.93558   0.93558   1.28814   1.28814
 Alpha virt. eigenvalues --    1.31613   1.39671   1.56128   1.81363   1.81363
 Alpha virt. eigenvalues --    1.87025   1.87025   2.24699   2.36953   2.36953
 Alpha virt. eigenvalues --    2.58586   2.58586   2.63921   2.65645   3.71821
 Alpha virt. eigenvalues --    3.71821  24.58175
          Condensed to atoms (all electrons):
               1          2          3          4
     1  C    4.657832   0.380492   0.380492   0.380492
     2  H    0.380492   0.371086  -0.009007  -0.009007
     3  H    0.380492  -0.009007   0.371086  -0.009007
     4  H    0.380492  -0.009007  -0.009007   0.371086
 Mulliken charges:
               1
     1  C    0.200693
     2  H    0.266436
     3  H    0.266436
     4  H    0.266436
 Sum of Mulliken charges =   1.00000
 Mulliken charges with hydrogens summed into heavy atoms:
               1
     1  C    1.000000
 APT charges:
               1
     1  C    0.450258
     2  H    0.183247
     3  H    0.183247
     4  H    0.183247
 Sum of APT charges =   1.00000
 APT charges with hydrogens summed into heavy atoms:
               1
     1  C    1.000000
 Electronic spatial extent (au):  <R**2>=             22.5414
 Charge=              1.0000 electrons
 Dipole moment (field-independent basis, Debye):
    X=              0.0000    Y=              0.0000    Z=              0.0000  Tot=              0.0000
 Quadrupole moment (field-independent basis, Debye-Ang):
   XX=             -4.0889   YY=             -4.0889   ZZ=             -4.9966
   XY=              0.0000   XZ=              0.0000   YZ=              0.0000
 Traceless Quadrupole moment (field-independent basis, Debye-Ang):
   XX=              0.3026   YY=              0.3026   ZZ=             -0.6051
   XY=              0.0000   XZ=              0.0000   YZ=              0.0000
 Octapole moment (field-independent basis, Debye-Ang**2):
  XXX=              0.0000  YYY=              1.7582  ZZZ=              0.0000  XYY=              0.0000
  XXY=             -1.7582  XXZ=              0.0001  XZZ=              0.0000  YZZ=              0.0000
  YYZ=              0.0001  XYZ=              0.0000
 Hexadecapole moment (field-independent basis, Debye-Ang**3):
 XXXX=             -7.8409 YYYY=             -7.8409 ZZZZ=             -3.3763 XXXY=              0.0000
 XXXZ=              0.0000 YYYX=              0.0000 YYYZ=              0.0000 ZZZX=              0.0000
 ZZZY=              0.0000 XXYY=             -2.6136 XXZZ=             -2.4821 YYZZ=             -2.4821
 XXYZ=              0.0000 YYXZ=              0.0000 ZZXY=              0.0000
 N-N= 9.572751085643D+00 E-N=-1.071098964309D+02  KE= 3.919411419861D+01
 Symmetry A'   KE= 3.701696740028D+01
 Symmetry A"   KE= 2.177146798325D+00
  Exact polarizability:   9.282   0.000   9.282   0.000   0.000   4.906
 Approx polarizability:   7.357   0.000   7.357   0.000   0.000   4.568
 Calling FoFJK, ICntrl=  10100127 FMM=F ISym2X=1 I1Cent= 0 IOpClX= 0 NMat=1 NMatS=1 NMatT=0.
 Full mass-weighted force constant matrix:
 Low frequencies ---  -18.7785  -18.7785  -18.7781   -0.0005    0.0005    0.0008
 Low frequencies --- 1447.5202 1452.0461 1452.0461
 Diagonal vibrational polarizability:
        0.3911051       0.3911051       0.1103164
 Harmonic frequencies (cm**-1), IR intensities (KM/Mole), Raman scattering
 activities (A**4/AMU), depolarization ratios for plane and unpolarized
 incident light, reduced masses (AMU), force constants (mDyne/A),
 and normal coordinates:
                      1                      2                      3
                     A1                     ?A                     ?A
 Frequencies --   1447.5202              1452.0461              1452.0461
 Red. masses --      1.2356                 1.0973                 1.0973
 Frc consts  --      1.5254                 1.3631                 1.3631
 IR Inten    --      8.5893                16.9232                16.9232
  Atom  AN      X      Y      Z        X      Y      Z        X      Y      Z
     1   6     0.00   0.00   0.14     0.00   0.09   0.00    -0.09   0.00   0.00
     2   1     0.00   0.00  -0.57     0.00   0.09   0.00     0.81   0.00   0.00
     3   1     0.00   0.00  -0.57    -0.39  -0.58   0.00     0.13   0.39   0.00
     4   1     0.00   0.00  -0.57     0.39  -0.58   0.00     0.13  -0.39   0.00
                      4                      5                      6
                     ?B                     ?A                     ?A
 Frequencies --   3098.7769              3307.9024              3307.9024
 Red. masses --      1.0078                 1.1233                 1.1233
 Frc consts  --      5.7019                 7.2420                 7.2420
 IR Inten    --      0.0000                71.1983                71.1983
  Atom  AN      X      Y      Z        X      Y      Z        X      Y      Z
     1   6     0.00   0.00   0.00     0.00   0.10   0.00     0.10   0.00   0.00
     2   1     0.00   0.58   0.00     0.00  -0.81   0.00     0.00   0.02   0.00
     3   1     0.50  -0.29   0.00     0.34  -0.20   0.00    -0.62   0.36   0.00
     4   1    -0.50  -0.29   0.00    -0.36  -0.21   0.00    -0.60  -0.35   0.00

 -------------------
 - Thermochemistry -
 -------------------
 Temperature   298.150 Kelvin.  Pressure   1.00000 Atm.
 Atom     1 has atomic number  6 and mass  12.00000
 Atom     2 has atomic number  1 and mass   1.00783
 Atom     3 has atomic number  1 and mass   1.00783
 Atom     4 has atomic number  1 and mass   1.00783
 Molecular mass:    15.02348 amu.
 Principal axes and moments of inertia in atomic units:
                           1         2         3
     Eigenvalues --     6.42314   6.42314  12.84628
           X            0.54117   0.84091   0.00000
           Y            0.84091  -0.54117   0.00000
           Z            0.00000   0.00000   1.00000
 This molecule is an oblate symmetric top.
 Rotational symmetry number  3.
 Rotational temperatures (Kelvin)     13.48466    13.48466     6.74233
 Rotational constants (GHZ):         280.97496   280.97496   140.48748
 Zero-point vibrational energy      84134.5 (Joules/Mol)
                                   20.10863 (Kcal/Mol)
 Vibrational temperatures:   2082.66  2089.17  2089.17  4458.44  4759.33
          (Kelvin)           4759.33
 
 Zero-point correction=                           0.032045 (Hartree/Particle)
 Thermal correction to Energy=                    0.034896
 Thermal correction to Enthalpy=                  0.035840
 Thermal correction to Gibbs Free Energy=         0.014001
 Sum of electronic and zero-point Energies=            -39.342277
 Sum of electronic and thermal Energies=               -39.339427
 Sum of electronic and thermal Enthalpies=             -39.338482
 Sum of electronic and thermal Free Energies=          -39.360321
 
                     E (Thermal)             CV                S
                      KCal/Mol        Cal/Mol-Kelvin    Cal/Mol-Kelvin
 Total                   21.897              6.229             45.964
 Electronic               0.000              0.000              0.000
 Translational            0.889              2.981             34.068
 Rotational               0.889              2.981             11.852
 Vibrational             20.120              0.267              0.044
                       Q            Log10(Q)             Ln(Q)
 Total Bot       0.363034D-06         -6.440052        -14.828769
 Total V=0       0.199371D+09          8.299661         19.110676
 Vib (Bot)       0.182589D-14        -14.738524        -33.936707
 Vib (V=0)       0.100274D+01          0.001189          0.002738
 Electronic      0.100000D+01          0.000000          0.000000
 Translational   0.228882D+07          6.359611         14.643545
 Rotational      0.868683D+02          1.938861          4.464393
 ***** Axes restored to original set *****
 -------------------------------------------------------------------
 Center     Atomic                   Forces (Hartrees/Bohr)
 Number     Number              X              Y              Z
 -------------------------------------------------------------------
      1        6          -0.000003545   -0.000006140   -0.000002507
      2        1          -0.000003439   -0.000005956    0.000026973
      3        1           0.000024284   -0.000005956   -0.000012233
      4        1          -0.000017300    0.000018052   -0.000012233
 -------------------------------------------------------------------
 Cartesian Forces:  Max     0.000026973 RMS     0.000014086
 FormGI is forming the generalized inverse of G from B-inverse, IUseBI=4.

 GradGradGradGradGradGradGradGradGradGradGradGradGradGradGradGradGradGrad
 Berny optimization.
 Internal  Forces:  Max     0.000027723 RMS     0.000018228
 Search for a local minimum.
 Step number   1 out of a maximum of    2
 All quantities printed in internal units (Hartrees-Bohrs-Radians)
 Second derivative matrix not updated -- analytic derivatives used.
 The second derivative matrix:
                          R1        R2        R3        A1        A2
           R1           0.36969
           R2          -0.00173   0.36969
           R3          -0.00173  -0.00173   0.36969
           A1           0.00300   0.00300  -0.00599   0.06830
           A2           0.00300  -0.00599   0.00300  -0.03415   0.06830
           A3          -0.00599   0.00300   0.00300  -0.03415  -0.03415
           D1           0.00000   0.00000   0.00000   0.00000   0.00000
                          A3        D1
           A3           0.06830
           D1           0.00000   0.06782
 ITU=  0
     Eigenvalues ---    0.06782   0.10215   0.10215   0.36623   0.37172
     Eigenvalues ---    0.37172
 Angle between quadratic step and forces=  21.39 degrees.
 Linear search not attempted -- first point.
 Iteration  1 RMS(Cart)=  0.00005120 RMS(Int)=  0.00000000
 Iteration  2 RMS(Cart)=  0.00000000 RMS(Int)=  0.00000000
 ClnCor:  largest displacement from symmetrization is 7.19D-10 for atom     4.
 Variable       Old X    -DE/DX   Delta X   Delta X   Delta X     New X
                                 (Linear)    (Quad)   (Total)
    R1        2.06127   0.00003   0.00000   0.00008   0.00008   2.06135
    R2        2.06127   0.00003   0.00000   0.00008   0.00008   2.06135
    R3        2.06127   0.00003   0.00000   0.00008   0.00008   2.06135
    A1        2.09440   0.00000   0.00000   0.00000   0.00000   2.09440
    A2        2.09440   0.00000   0.00000   0.00000   0.00000   2.09440
    A3        2.09440   0.00000   0.00000   0.00000   0.00000   2.09440
    D1       -3.14153   0.00000   0.00000  -0.00007  -0.00007   3.14159
         Item               Value     Threshold  Converged?
 Maximum Force            0.000028     0.000450     YES
 RMS     Force            0.000018     0.000300     YES
 Maximum Displacement     0.000075     0.001800     YES
 RMS     Displacement     0.000051     0.001200     YES
 Predicted change in Energy=-3.295496D-09
 Optimization completed.
    -- Stationary point found.
                           ----------------------------
                           !   Optimized Parameters   !
                           ! (Angstroms and Degrees)  !
 --------------------------                            --------------------------
 ! Name  Definition              Value          Derivative Info.                !
 --------------------------------------------------------------------------------
 ! R1    R(1,2)                  1.0908         -DE/DX =    0.0                 !
 ! R2    R(1,3)                  1.0908         -DE/DX =    0.0                 !
 ! R3    R(1,4)                  1.0908         -DE/DX =    0.0                 !
 ! A1    A(2,1,3)              120.0            -DE/DX =    0.0                 !
 ! A2    A(2,1,4)              120.0            -DE/DX =    0.0                 !
 ! A3    A(3,1,4)              120.0            -DE/DX =    0.0                 !
 ! D1    D(2,1,4,3)            180.0038         -DE/DX =    0.0                 !
 --------------------------------------------------------------------------------
 GradGradGradGradGradGradGradGradGradGradGradGradGradGradGradGradGradGrad

 1\1\GINC-TC-NODE161\Freq\RMP2-Full\6-311G(d,p)\C1H3(1+)\MAXB2\25-Oct-2
 016\0\\#N Geom=AllCheck Guess=TCheck SCRF=Check GenChk RMP2-Full/6-311
 G(d,p) Freq\\Title Card Required\\1,1\C,0.1263390202,0.2188256037,0.08
 93351773\H,-0.0554671919,-0.0960720111,1.1177241323\H,1.03531135,-0.09
 60720004,-0.4248696958\H,-0.6008564853,0.8485699215,-0.4248696846\\Ver
 sion=ES64L-G09RevD.01\HF=-39.243503\MP2=-39.3743223\RMSD=3.314e-10\RMS
 F=1.409e-05\ZeroPoint=0.0320451\Thermal=0.0348958\Dipole=-0.0000003,-0
 .0000004,-0.0000002\DipoleDeriv=0.4164876,0.1169847,0.0477588,0.116984
 7,0.5515699,0.0827207,0.0477588,0.0827207,0.382717,0.1604603,-0.016313
 6,-0.023328,-0.0163136,0.141623,-0.0404053,-0.0233301,-0.0404089,0.247
 6585,0.2233066,-0.0435357,-0.0455496,-0.0435324,0.141623,-0.0019122,-0
 .0455475,-0.001911,0.1848122,0.1997455,-0.0571354,0.0211188,-0.0571387
 ,0.1651841,-0.0404032,0.0211188,-0.0404008,0.1848122\Polar=8.3094932,-
 1.6841051,6.364856,-0.687533,-1.1908422,8.7956525\PG=C03V [C3(C1),3SGV
 (H1)]\NImag=0\\0.54263746,-0.17377033,0.34198476,-0.07094144,-0.122874
 18,0.59280063,-0.07287184,-0.01402992,0.04714894,0.05115510,-0.0140299
 2,-0.08907220,0.08166437,0.00509813,0.05704192,0.04714790,0.08166256,-
 0.33053025,-0.05475165,-0.09483265,0.33097620,-0.27226689,0.07231556,0
 .11764470,0.00806081,0.00730785,0.00079842,0.26547140,0.07231727,-0.08
 907219,-0.04044899,-0.00160640,0.01881269,0.00831909,-0.08770970,0.057
 04192,0.11764574,-0.04044839,-0.13113519,0.02263168,-0.00428756,-0.000
 22298,-0.13052391,0.03641745,0.11665991,-0.19749873,0.11548469,-0.0938
 5220,0.01365592,0.00162394,0.00680533,-0.00126532,0.01699883,-0.009753
 52,0.18510812,0.11548299,-0.16384036,0.08165880,0.01053818,0.01321758,
 0.00485100,0.00808629,0.01321758,0.00831850,-0.13410746,0.13740520,-0.
 09385220,0.08166001,-0.13113519,-0.01502897,0.01745583,-0.00022298,0.0
 1208079,-0.00428754,0.01469826,0.09680039,-0.09482830,0.11665991\\0.00
 000354,0.00000614,0.00000251,0.00000344,0.00000596,-0.00002697,-0.0000
 2428,0.00000596,0.00001223,0.00001730,-0.00001805,0.00001223\\\@


 IF YOU WISH TO UNDERSTAND THE FRAGRANCE OF THE ROSE, 
 OR THE TENACITY OF THE OAK; 
 IF YOU ARE NOT SATISFIED UNTIL YOU KNOW THE SECRET PATHS 
 BY WHICH THE SUNSHINE AND THE AIR ACHIEVE THESE WONDERS; 
 IF YOU WISH TO SEE THE PATTERN WHICH UNDERLIES ONE LARGE FIELD OF 
 HUMAN EXPERIENCE AND HUMAN MEASUREMENT, THEN TAKE UP CHEMISTRY.

                                         -- C. A. COULSON, 1973.
 Job cpu time:       0 days  0 hours  0 minutes 36.9 seconds.
 File lengths (MBytes):  RWF=     18 Int=      0 D2E=      0 Chk=      2 Scr=      1
 Normal termination of Gaussian 09 at Tue Oct 25 11:34:17 2016.
