 Entering Gaussian System, Link 0=g09
 Initial command:
 /cluster/software/gaussian/gaussian-09-D.01/g09/l1.exe "/local/scratch/maxb2/Gau-30188.inp" -scrdir="/local/scratch/maxb2/"
 Entering Link 1 = /cluster/software/gaussian/gaussian-09-D.01/g09/l1.exe PID=     30189.
  
 Copyright (c) 1988,1990,1992,1993,1995,1998,2003,2009,2013,
            Gaussian, Inc.  All Rights Reserved.
  
 This is part of the Gaussian(R) 09 program.  It is based on
 the Gaussian(R) 03 system (copyright 2003, Gaussian, Inc.),
 the Gaussian(R) 98 system (copyright 1998, Gaussian, Inc.),
 the Gaussian(R) 94 system (copyright 1995, Gaussian, Inc.),
 the Gaussian 92(TM) system (copyright 1992, Gaussian, Inc.),
 the Gaussian 90(TM) system (copyright 1990, Gaussian, Inc.),
 the Gaussian 88(TM) system (copyright 1988, Gaussian, Inc.),
 the Gaussian 86(TM) system (copyright 1986, Carnegie Mellon
 University), and the Gaussian 82(TM) system (copyright 1983,
 Carnegie Mellon University). Gaussian is a federally registered
 trademark of Gaussian, Inc.
  
 This software contains proprietary and confidential information,
 including trade secrets, belonging to Gaussian, Inc.
  
 This software is provided under written license and may be
 used, copied, transmitted, or stored only in accord with that
 written license.
  
 The following legend is applicable only to US Government
 contracts under FAR:
  
                    RESTRICTED RIGHTS LEGEND
  
 Use, reproduction and disclosure by the US Government is
 subject to restrictions as set forth in subparagraphs (a)
 and (c) of the Commercial Computer Software - Restricted
 Rights clause in FAR 52.227-19.
  
 Gaussian, Inc.
 340 Quinnipiac St., Bldg. 40, Wallingford CT 06492
  
  
 ---------------------------------------------------------------
 Warning -- This program may not be used in any manner that
 competes with the business of Gaussian, Inc. or will provide
 assistance to any competitor of Gaussian, Inc.  The licensee
 of this program is prohibited from giving any competitor of
 Gaussian, Inc. access to this program.  By using this program,
 the user acknowledges that Gaussian, Inc. is engaged in the
 business of creating and licensing software in the field of
 computational chemistry and represents and warrants to the
 licensee that it is not a competitor of Gaussian, Inc. and that
 it will not use this program in any manner prohibited above.
 ---------------------------------------------------------------
  

 Cite this work as:
 Gaussian 09, Revision D.01,
 M. J. Frisch, G. W. Trucks, H. B. Schlegel, G. E. Scuseria, 
 M. A. Robb, J. R. Cheeseman, G. Scalmani, V. Barone, B. Mennucci, 
 G. A. Petersson, H. Nakatsuji, M. Caricato, X. Li, H. P. Hratchian, 
 A. F. Izmaylov, J. Bloino, G. Zheng, J. L. Sonnenberg, M. Hada, 
 M. Ehara, K. Toyota, R. Fukuda, J. Hasegawa, M. Ishida, T. Nakajima, 
 Y. Honda, O. Kitao, H. Nakai, T. Vreven, J. A. Montgomery, Jr., 
 J. E. Peralta, F. Ogliaro, M. Bearpark, J. J. Heyd, E. Brothers, 
 K. N. Kudin, V. N. Staroverov, T. Keith, R. Kobayashi, J. Normand, 
 K. Raghavachari, A. Rendell, J. C. Burant, S. S. Iyengar, J. Tomasi, 
 M. Cossi, N. Rega, J. M. Millam, M. Klene, J. E. Knox, J. B. Cross, 
 V. Bakken, C. Adamo, J. Jaramillo, R. Gomperts, R. E. Stratmann, 
 O. Yazyev, A. J. Austin, R. Cammi, C. Pomelli, J. W. Ochterski, 
 R. L. Martin, K. Morokuma, V. G. Zakrzewski, G. A. Voth, 
 P. Salvador, J. J. Dannenberg, S. Dapprich, A. D. Daniels, 
 O. Farkas, J. B. Foresman, J. V. Ortiz, J. Cioslowski, 
 and D. J. Fox, Gaussian, Inc., Wallingford CT, 2013.
 
 ******************************************
 Gaussian 09:  ES64L-G09RevD.01 24-Apr-2013
                25-Oct-2016 
 ******************************************
 %nprocshared=8
 Will use up to    8 processors via shared memory.
 %mem=4gb
 %chk=CH3psmd
 %oldchk=CH3popt.chk
 Copying data from "CH3popt.chk" to current chk file "CH3psmd.chk".
 --------------------------------------------------------------------
 # opt freq mp2(full)/6-311g** scrf=(smd,solvent=water) geom=allcheck
 --------------------------------------------------------------------
 1/14=-1,18=20,19=15,29=7,38=1/1,3;
 2/9=110,12=2,40=1/2;
 3/5=4,6=6,7=101,11=9,14=-4,16=1,25=1,30=1,70=32201,71=1,72=1/1,2,3;
 4//1;
 5/5=2,38=5,53=1/2;
 8/6=4,10=90/1;
 9/15=2,16=-3/6;
 10/5=1/2;
 6/7=2,8=2,9=2,10=2/1;
 7/12=2/1,2,3,16;
 1/14=-1,18=20,19=15/3(2);
 2/9=110/2;
 99//99;
 2/9=110/2;
 3/5=4,6=6,7=101,11=9,14=-2,16=1,25=1,30=1,70=32205,71=1,72=1/1,2,3;
 4/5=5,16=3,69=1/1;
 5/5=2,38=5,53=1/2;
 8/6=4,10=90/1;
 9/15=2,16=-3/6;
 10/5=1/2;
 7/12=2/1,2,3,16;
 1/14=-1,18=20,19=15/3(-8);
 2/9=110/2;
 6/7=2,8=2,9=2,10=2/1;
 99//99;
 Structure from the checkpoint file:  "CH3psmd.chk"
 -------------------
 Title Card Required
 -------------------
 Charge =  1 Multiplicity = 1
 Redundant internal coordinates found in file.
 C,0,0.1263390202,0.2188256037,0.0893351773
 H,0,-0.0554671919,-0.0960720111,1.1177241323
 H,0,1.03531135,-0.0960720004,-0.4248696958
 H,0,-0.6008564853,0.8485699215,-0.4248696846
 Recover connectivity data from disk.

 GradGradGradGradGradGradGradGradGradGradGradGradGradGradGradGradGradGrad
 Berny optimization.
 Initialization pass.
                           ----------------------------
                           !    Initial Parameters    !
                           ! (Angstroms and Degrees)  !
 --------------------------                            --------------------------
 ! Name  Definition              Value          Derivative Info.                !
 --------------------------------------------------------------------------------
 ! R1    R(1,2)                  1.0908         estimate D2E/DX2                !
 ! R2    R(1,3)                  1.0908         estimate D2E/DX2                !
 ! R3    R(1,4)                  1.0908         estimate D2E/DX2                !
 ! A1    A(2,1,3)              120.0            estimate D2E/DX2                !
 ! A2    A(2,1,4)              120.0            estimate D2E/DX2                !
 ! A3    A(3,1,4)              120.0            estimate D2E/DX2                !
 ! D1    D(2,1,4,3)           -179.9962         estimate D2E/DX2                !
 --------------------------------------------------------------------------------
 Trust Radius=3.00D-01 FncErr=1.00D-07 GrdErr=1.00D-07
 Number of steps in this run=     20 maximum allowed number of steps=    100.
 GradGradGradGradGradGradGradGradGradGradGradGradGradGradGradGradGradGrad

                          Input orientation:                          
 ---------------------------------------------------------------------
 Center     Atomic      Atomic             Coordinates (Angstroms)
 Number     Number       Type             X           Y           Z
 ---------------------------------------------------------------------
      1          6           0        0.126339    0.218826    0.089335
      2          1           0       -0.055467   -0.096072    1.117724
      3          1           0        1.035311   -0.096072   -0.424870
      4          1           0       -0.600856    0.848570   -0.424870
 ---------------------------------------------------------------------
                    Distance matrix (angstroms):
                    1          2          3          4
     1  C    0.000000
     2  H    1.090779   0.000000
     3  H    1.090779   1.889284   0.000000
     4  H    1.090779   1.889284   1.889284   0.000000
 Stoichiometry    CH3(1+)
 Framework group  C3V[C3(C),3SGV(H)]
 Deg. of freedom     2
 Full point group                 C3V     NOp   6
 Largest Abelian subgroup         CS      NOp   2
 Largest concise Abelian subgroup CS      NOp   2
                         Standard orientation:                         
 ---------------------------------------------------------------------
 Center     Atomic      Atomic             Coordinates (Angstroms)
 Number     Number       Type             X           Y           Z
 ---------------------------------------------------------------------
      1          6           0        0.000000    0.000000   -0.000007
      2          1           0        0.000000    1.090779    0.000014
      3          1           0        0.944642   -0.545389    0.000014
      4          1           0       -0.944642   -0.545389    0.000014
 ---------------------------------------------------------------------
 Rotational constants (GHZ):    280.9749575    280.9749575    140.4874788
 Standard basis: 6-311G(d,p) (5D, 7F)
 There are    25 symmetry adapted cartesian basis functions of A'  symmetry.
 There are    12 symmetry adapted cartesian basis functions of A"  symmetry.
 There are    24 symmetry adapted basis functions of A'  symmetry.
 There are    12 symmetry adapted basis functions of A"  symmetry.
    36 basis functions,    56 primitive gaussians,    37 cartesian basis functions
     4 alpha electrons        4 beta electrons
       nuclear repulsion energy         9.5727510856 Hartrees.
 NAtoms=    4 NActive=    4 NUniq=    2 SFac= 4.00D+00 NAtFMM=   60 NAOKFM=F Big=F
 Integral buffers will be    131072 words long.
 Raffenetti 1 integral format.
 Two-electron integral symmetry is turned on.
 ------------------------------------------------------------------------------
 Polarizable Continuum Model (PCM)
 =================================
 Model                : PCM (using non-symmetric T matrix).
 Atomic radii         : SMD-Coulomb.
 Polarization charges : Total charges.
 Charge compensation  : None.
 Solution method      : On-the-fly selection.
 Cavity type          : VdW (van der Waals Surface) (Alpha=1.000).
 Cavity algorithm     : GePol (No added spheres)
                        Default sphere list used, NSphG=    4.
                        Lebedev-Laikov grids with approx.  5.0 points / Ang**2.
                        Smoothing algorithm: Karplus/York (Gamma=1.0000).
                        Polarization charges: spherical gaussians, with
                                              point-specific exponents (IZeta= 3).
                        Self-potential: point-specific (ISelfS= 7).
                        Self-field    : sphere-specific E.n sum rule (ISelfD= 2).
 1st derivatives      : Analytical E(r).r(x)/FMM algorithm (CHGder, D1EAlg=3).
                        Cavity 1st derivative terms included.
 Solvent              : Water, Eps=  78.355300 Eps(inf)=   1.777849
 ------------------------------------------------------------------------------
 Spheres list:
 ISph  on   Nord     Re0    Alpha      Xe            Ye            Ze
    1   C      1    1.8500  1.000      0.000000      0.000000     -0.000007
    2   H      2    1.2000  1.000      0.000000      1.090779      0.000014
    3   H      3    1.2000  1.000      0.944642     -0.545389      0.000014
    4   H      4    1.2000  1.000     -0.944642     -0.545389      0.000014
 ------------------------------------------------------------------------------
 ------------------------------------------------------------------------------
 Atomic radii for non-electrostatic terms: SMD-CDS.
 ------------------------------------------------------------------------------
 Nuclear repulsion after PCM non-electrostatic terms =        9.5789016109 Hartrees.
 One-electron integrals computed using PRISM.
 NBasis=    36 RedAO= T EigKep=  2.14D-02  NBF=    24    12
 NBsUse=    36 1.00D-06 EigRej= -1.00D+00 NBFU=    24    12
 ExpMin= 1.03D-01 ExpMax= 4.56D+03 ExpMxC= 6.82D+02 IAcc=1 IRadAn=         1 AccDes= 0.00D+00
 Harris functional with IExCor=  205 and IRadAn=       1 diagonalized for initial guess.
 HarFok:  IExCor=  205 AccDes= 0.00D+00 IRadAn=         1 IDoV= 1 UseB2=F ITyADJ=14
 ICtDFT=  3500011 ScaDFX=  1.000000  1.000000  1.000000  1.000000
 FoFCou: FMM=F IPFlag=           0 FMFlag=      100000 FMFlg1=           0
         NFxFlg=           0 DoJE=T BraDBF=F KetDBF=T FulRan=T
         wScrn=  0.000000 ICntrl=     500 IOpCl=  0 I1Cent=   200000004 NGrid=           0
         NMat0=    1 NMatS0=      1 NMatT0=    0 NMatD0=    1 NMtDS0=    0 NMtDT0=    0
 Petite list used in FoFCou.
 Initial guess orbital symmetries:
       Occupied  (?A) (?A) (?B) (?B)
       Virtual   (A1) (?A) (?B) (?B) (?B) (?B) (?A) (A1) (?B) (?B)
                 (?A) (E) (E) (?B) (?B) (?A) (?A) (A1) (?B) (?B)
                 (E) (E) (?A) (?B) (?B) (?B) (?B) (A1) (?A) (?B)
                 (?B) (?A)
 Keep R1 ints in memory in symmetry-blocked form, NReq=3282911.
 Requested convergence on RMS density matrix=1.00D-08 within 128 cycles.
 Requested convergence on MAX density matrix=1.00D-06.
 Requested convergence on             energy=1.00D-06.
 No special actions if energy rises.
 Inv3:  Mode=1 IEnd=      433200.
 Iteration    1 A*A^-1 deviation from unit magnitude is 2.89D-15 for    181.
 Iteration    1 A*A^-1 deviation from orthogonality  is 2.20D-15 for    355    119.
 Iteration    1 A^-1*A deviation from unit magnitude is 3.11D-15 for    181.
 Iteration    1 A^-1*A deviation from orthogonality  is 1.33D-15 for    372    360.
 Error on total polarization charges =  0.00756
 SCF Done:  E(RHF) =  -39.3743765226     A.U. after    8 cycles
            NFock=  8  Conv=0.33D-08     -V/T= 2.0049
 SMD-CDS (non-electrostatic) energy       (kcal/mol) =       3.86
 (included in total energy above)
 Range of M.O.s used for correlation:     1    36
 NBasis=    36 NAE=     4 NBE=     4 NFC=     0 NFV=     0
 NROrb=     36 NOA=     4 NOB=     4 NVA=    32 NVB=    32
 Fully direct method using O(ONN) memory.
 JobTyp=1 Pass  1:  I=   1 to   4 NPSUse=  8 ParTrn=T ParDer=T DoDerP=T.
 Spin components of T(2) and E(2):
     alpha-alpha T2 =       0.2432908536D-02 E2=     -0.8404430398D-02
     alpha-beta  T2 =       0.3082444627D-01 E2=     -0.1140769046D+00
     beta-beta   T2 =       0.2432908536D-02 E2=     -0.8404430398D-02
 ANorm=    0.1017688687D+01
 E2 =    -0.1308857654D+00 EUMP2 =    -0.39505262287932D+02
          IDoAtm=1111
 NEqPCM:  Using equilibrium solvation (IEInf=0, Eps=  78.3553, EpsInf=   1.7778)
          Differentiating once with respect to electric field.
                with respect to dipole field.
          Differentiating once with respect to nuclear coordinates.
 Keep R1 ints in memory in symmetry-blocked form, NReq=2045943.
          There are     1 degrees of freedom in the 1st order CPHF.  IDoFFX=0 NUNeed=     1.
 LinEq1:  Iter=  0 NonCon=     1 RMS=2.97D-03 Max=1.53D-02 NDo=     1
 AX will form     1 AO Fock derivatives at one time.
 LinEq1:  Iter=  1 NonCon=     1 RMS=4.69D-04 Max=2.12D-03 NDo=     1
 LinEq1:  Iter=  2 NonCon=     1 RMS=5.79D-05 Max=2.92D-04 NDo=     1
 LinEq1:  Iter=  3 NonCon=     1 RMS=5.13D-06 Max=2.55D-05 NDo=     1
 LinEq1:  Iter=  4 NonCon=     1 RMS=3.67D-07 Max=1.95D-06 NDo=     1
 LinEq1:  Iter=  5 NonCon=     1 RMS=2.77D-08 Max=1.55D-07 NDo=     1
 LinEq1:  Iter=  6 NonCon=     1 RMS=1.57D-09 Max=7.77D-09 NDo=     1
 LinEq1:  Iter=  7 NonCon=     1 RMS=1.06D-10 Max=5.46D-10 NDo=     1
 LinEq1:  Iter=  8 NonCon=     0 RMS=7.17D-12 Max=3.77D-11 NDo=     1
 Linear equations converged to 1.000D-10 1.000D-09 after     8 iterations.
 End of Minotr F.D. properties file   721 does not exist.
 End of Minotr F.D. properties file   722 does not exist.
 End of Minotr F.D. properties file   788 does not exist.

 **********************************************************************

            Population analysis using the SCF density.

 **********************************************************************

 Orbital symmetries:
       Occupied  (?A) (?A) (?B) (?B)
       Virtual   (A1) (?A) (?B) (?B) (?B) (?B) (?A) (A1) (?B) (?B)
                 (?A) (?C) (?C) (?B) (?B) (?A) (?A) (A1) (?B) (?B)
                 (?C) (?C) (?A) (?B) (?B) (?B) (?B) (?A) (A1) (?B)
                 (?B) (?A)
 Unable to determine electronic state:  an orbital has unidentified symmetry.
 Alpha  occ. eigenvalues --  -11.41521  -1.00645  -0.68073  -0.68069
 Alpha virt. eigenvalues --   -0.01277   0.15366   0.21454   0.21459   0.40965
 Alpha virt. eigenvalues --    0.40967   0.48380   0.57627   0.72758   0.72759
 Alpha virt. eigenvalues --    0.81137   1.20564   1.20570   1.55331   1.55333
 Alpha virt. eigenvalues --    1.58520   1.66462   1.83061   2.07878   2.07883
 Alpha virt. eigenvalues --    2.14020   2.14026   2.51249   2.63630   2.63636
 Alpha virt. eigenvalues --    2.85253   2.85255   2.90607   2.92456   3.98617
 Alpha virt. eigenvalues --    3.98621  24.84948
          Condensed to atoms (all electrons):
               1          2          3          4
     1  C    4.633973   0.381981   0.381981   0.381981
     2  H    0.381981   0.379470  -0.010711  -0.010711
     3  H    0.381981  -0.010711   0.379470  -0.010711
     4  H    0.381981  -0.010711  -0.010711   0.379470
 Mulliken charges:
               1
     1  C    0.220084
     2  H    0.259972
     3  H    0.259972
     4  H    0.259972
 Sum of Mulliken charges =   1.00000
 Mulliken charges with hydrogens summed into heavy atoms:
               1
     1  C    1.000000
 Electronic spatial extent (au):  <R**2>=             22.6651
 Charge=              1.0000 electrons
 Dipole moment (field-independent basis, Debye):
    X=              0.0000    Y=              0.0000    Z=              0.0000  Tot=              0.0000
 Quadrupole moment (field-independent basis, Debye-Ang):
   XX=             -4.1582   YY=             -4.1582   ZZ=             -5.0245
   XY=              0.0000   XZ=              0.0000   YZ=              0.0000
 Traceless Quadrupole moment (field-independent basis, Debye-Ang):
   XX=              0.2888   YY=              0.2888   ZZ=             -0.5776
   XY=              0.0000   XZ=              0.0000   YZ=              0.0000
 Octapole moment (field-independent basis, Debye-Ang**2):
  XXX=              0.0000  YYY=              1.7308  ZZZ=              0.0000  XYY=              0.0000
  XXY=             -1.7308  XXZ=              0.0001  XZZ=              0.0000  YZZ=              0.0000
  YYZ=              0.0001  XYZ=              0.0000
 Hexadecapole moment (field-independent basis, Debye-Ang**3):
 XXXX=             -8.1254 YYYY=             -8.1254 ZZZZ=             -3.4418 XXXY=              0.0000
 XXXZ=              0.0000 YYYX=              0.0000 YYYZ=              0.0000 ZZZX=              0.0000
 ZZZY=              0.0000 XXYY=             -2.7085 XXZZ=             -2.5338 YYZZ=             -2.5338
 XXYZ=              0.0000 YYXZ=              0.0000 ZZXY=              0.0000
 N-N= 9.578901610903D+00 E-N=-1.070767430894D+02  KE= 3.918137597554D+01
 Symmetry A'   KE= 3.701054320832D+01
 Symmetry A"   KE= 2.170832767220D+00
 Density matrix has only Abelian symmetry.
 D1PCM: PCM CHGder 1st derivatives, ID1Alg=3 FixD1E=F DoIter=F DoCFld=F I1PDM=2.
 Calling FoFJK, ICntrl=  10002127 FMM=F ISym2X=1 I1Cent= 0 IOpClX= 0 NMat=1 NMatS=1 NMatT=0.
 ***** Axes restored to original set *****
 -------------------------------------------------------------------
 Center     Atomic                   Forces (Hartrees/Bohr)
 Number     Number              X              Y              Z
 -------------------------------------------------------------------
      1        6           0.000021491    0.000037223   -0.000144464
      2        1           0.000523122    0.000906074   -0.002951544
      3        1          -0.002888969    0.001039082    0.001548004
      4        1           0.002344356   -0.001982379    0.001548004
 -------------------------------------------------------------------
 Cartesian Forces:  Max     0.002951544 RMS     0.001670161

 GradGradGradGradGradGradGradGradGradGradGradGradGradGradGradGradGradGrad
 Berny optimization.
 FormGI is forming the generalized inverse of G from B-inverse, IUseBI=4.
 Internal  Forces:  Max     0.003437167 RMS     0.002186230
 Search for a local minimum.
 Step number   1 out of a maximum of   20
 All quantities printed in internal units (Hartrees-Bohrs-Radians)
 Mixed Optimization -- RFO/linear search
 Second derivative matrix not updated -- first step.
 The second derivative matrix:
                          R1        R2        R3        A1        A2
           R1           0.34723
           R2           0.00000   0.34723
           R3           0.00000   0.00000   0.34723
           A1           0.00000   0.00000   0.00000   0.16000
           A2           0.00000   0.00000   0.00000   0.00000   0.16000
           A3           0.00000   0.00000   0.00000   0.00000   0.00000
           D1           0.00000   0.00000   0.00000   0.00000   0.00000
                          A3        D1
           A3           0.16000
           D1           0.00000   0.00230
 ITU=  0
     Eigenvalues ---    0.00230   0.16000   0.16000   0.34723   0.34723
     Eigenvalues ---    0.34723
 RFO step:  Lambda=-9.64130247D-05 EMin= 2.30000017D-03
 Linear search not attempted -- first point.
 Iteration  1 RMS(Cart)=  0.00631597 RMS(Int)=  0.00000357
 Iteration  2 RMS(Cart)=  0.00000228 RMS(Int)=  0.00000032
 Iteration  3 RMS(Cart)=  0.00000000 RMS(Int)=  0.00000032
 Variable       Old X    -DE/DX   Delta X   Delta X   Delta X     New X
                                 (Linear)    (Quad)   (Total)
    R1        2.06127  -0.00313   0.00000  -0.00902  -0.00902   2.05226
    R2        2.06127  -0.00344   0.00000  -0.00990  -0.00990   2.05138
    R3        2.06127  -0.00344   0.00000  -0.00990  -0.00990   2.05138
    A1        2.09440   0.00006   0.00000   0.00038   0.00038   2.09478
    A2        2.09440   0.00006   0.00000   0.00038   0.00038   2.09478
    A3        2.09440  -0.00012   0.00000  -0.00077  -0.00077   2.09363
    D1       -3.14153   0.00000   0.00000  -0.00185  -0.00185   3.13981
         Item               Value     Threshold  Converged?
 Maximum Force            0.003437     0.000450     NO 
 RMS     Force            0.002186     0.000300     NO 
 Maximum Displacement     0.008366     0.001800     NO 
 RMS     Displacement     0.006316     0.001200     NO 
 Predicted change in Energy=-4.822008D-05
 GradGradGradGradGradGradGradGradGradGradGradGradGradGradGradGradGradGrad

                          Input orientation:                          
 ---------------------------------------------------------------------
 Center     Atomic      Atomic             Coordinates (Angstroms)
 Number     Number       Type             X           Y           Z
 ---------------------------------------------------------------------
      1          6           0        0.126124    0.218452    0.089251
      2          1           0       -0.054614   -0.094595    1.113335
      3          1           0        1.030884   -0.094252   -0.422633
      4          1           0       -0.597067    0.845646   -0.422633
 ---------------------------------------------------------------------
                    Distance matrix (angstroms):
                    1          2          3          4
     1  C    0.000000
     2  H    1.086007   0.000000
     3  H    1.085542   1.880825   0.000000
     4  H    1.085542   1.880825   1.879796   0.000000
 Stoichiometry    CH3(1+)
 Framework group  C1[X(CH3)]
 Deg. of freedom     6
 Full point group                 C1      NOp   1
 Omega: Change in point group or standard orientation.

 Old FWG=C03V [C3(C1),3SGV(H1)]
 New FWG=C01  [X(C1H3)]
 Largest Abelian subgroup         C1      NOp   1
 Largest concise Abelian subgroup C1      NOp   1
                         Standard orientation:                         
 ---------------------------------------------------------------------
 Center     Atomic      Atomic             Coordinates (Angstroms)
 Number     Number       Type             X           Y           Z
 ---------------------------------------------------------------------
      1          6           0        0.000029    0.000000    0.000186
      2          1           0        1.086036    0.000000   -0.000372
      3          1           0       -0.543103   -0.939898   -0.000372
      4          1           0       -0.543104    0.939898   -0.000372
 ---------------------------------------------------------------------
 Rotational constants (GHZ):    283.8183914    283.4043930    141.8056805
 Standard basis: 6-311G(d,p) (5D, 7F)
 There are    37 symmetry adapted cartesian basis functions of A   symmetry.
 There are    36 symmetry adapted basis functions of A   symmetry.
    36 basis functions,    56 primitive gaussians,    37 cartesian basis functions
     4 alpha electrons        4 beta electrons
       nuclear repulsion energy         9.6175565091 Hartrees.
 NAtoms=    4 NActive=    4 NUniq=    4 SFac= 1.00D+00 NAtFMM=   60 NAOKFM=F Big=F
 Integral buffers will be    131072 words long.
 Raffenetti 1 integral format.
 Two-electron integral symmetry is turned on.
 ------------------------------------------------------------------------------
 Polarizable Continuum Model (PCM)
 =================================
 Model                : PCM (using non-symmetric T matrix).
 Atomic radii         : SMD-Coulomb.
 Polarization charges : Total charges.
 Charge compensation  : None.
 Solution method      : On-the-fly selection.
 Cavity type          : VdW (van der Waals Surface) (Alpha=1.000).
 Cavity algorithm     : GePol (No added spheres)
                        Default sphere list used, NSphG=    4.
                        Lebedev-Laikov grids with approx.  5.0 points / Ang**2.
                        Smoothing algorithm: Karplus/York (Gamma=1.0000).
                        Polarization charges: spherical gaussians, with
                                              point-specific exponents (IZeta= 3).
                        Self-potential: point-specific (ISelfS= 7).
                        Self-field    : sphere-specific E.n sum rule (ISelfD= 2).
 1st derivatives      : Analytical E(r).r(x)/FMM algorithm (CHGder, D1EAlg=3).
                        Cavity 1st derivative terms included.
 Solvent              : Water, Eps=  78.355300 Eps(inf)=   1.777849
 ------------------------------------------------------------------------------
 Spheres list:
 ISph  on   Nord     Re0    Alpha      Xe            Ye            Ze
    1   C      1    1.8500  1.000      0.000029      0.000000      0.000186
    2   H      2    1.2000  1.000      1.086036      0.000000     -0.000372
    3   H      3    1.2000  1.000     -0.543103     -0.939898     -0.000372
    4   H      4    1.2000  1.000     -0.543104      0.939898     -0.000372
 ------------------------------------------------------------------------------
 ------------------------------------------------------------------------------
 Atomic radii for non-electrostatic terms: SMD-CDS.
 ------------------------------------------------------------------------------
 Nuclear repulsion after PCM non-electrostatic terms =        9.6237097870 Hartrees.
 One-electron integrals computed using PRISM.
 NBasis=    36 RedAO= T EigKep=  2.37D-02  NBF=    36
 NBsUse=    36 1.00D-06 EigRej= -1.00D+00 NBFU=    36
 Initial guess from the checkpoint file:  "CH3psmd.chk"
 B after Tr=     0.000000    0.000000    0.000000
         Rot=    0.707107    0.000000    0.000000    0.707107 Ang=  90.00 deg.
 Keep R1 ints in memory in canonical form, NReq=3282900.
 Requested convergence on RMS density matrix=1.00D-08 within 128 cycles.
 Requested convergence on MAX density matrix=1.00D-06.
 Requested convergence on             energy=1.00D-06.
 No special actions if energy rises.
 Inv3:  Mode=1 IEnd=      437772.
 Iteration    1 A*A^-1 deviation from unit magnitude is 3.55D-15 for     68.
 Iteration    1 A*A^-1 deviation from orthogonality  is 4.24D-15 for    313     36.
 Iteration    1 A^-1*A deviation from unit magnitude is 2.89D-15 for    374.
 Iteration    1 A^-1*A deviation from orthogonality  is 1.94D-10 for    224    151.
 Iteration    2 A*A^-1 deviation from unit magnitude is 2.22D-15 for    125.
 Iteration    2 A*A^-1 deviation from orthogonality  is 1.54D-15 for    340    140.
 Iteration    2 A^-1*A deviation from unit magnitude is 7.77D-16 for    140.
 Iteration    2 A^-1*A deviation from orthogonality  is 2.93D-16 for    249    135.
 Error on total polarization charges =  0.00749
 SCF Done:  E(RHF) =  -39.3746078723     A.U. after    7 cycles
            NFock=  7  Conv=0.20D-08     -V/T= 2.0044
 SMD-CDS (non-electrostatic) energy       (kcal/mol) =       3.86
 (included in total energy above)
 Range of M.O.s used for correlation:     1    36
 NBasis=    36 NAE=     4 NBE=     4 NFC=     0 NFV=     0
 NROrb=     36 NOA=     4 NOB=     4 NVA=    32 NVB=    32
 Fully direct method using O(ONN) memory.
 JobTyp=1 Pass  1:  I=   1 to   4 NPSUse=  8 ParTrn=T ParDer=T DoDerP=T.
 Spin components of T(2) and E(2):
     alpha-alpha T2 =       0.2420799822D-02 E2=     -0.8395810335D-02
     alpha-beta  T2 =       0.3063969057D-01 E2=     -0.1139074963D+00
     beta-beta   T2 =       0.2420799822D-02 E2=     -0.8395810335D-02
 ANorm=    0.1017586011D+01
 E2 =    -0.1306991170D+00 EUMP2 =    -0.39505306989336D+02
          IDoAtm=1111
 NEqPCM:  Using equilibrium solvation (IEInf=0, Eps=  78.3553, EpsInf=   1.7778)
          Differentiating once with respect to electric field.
                with respect to dipole field.
          Differentiating once with respect to nuclear coordinates.
 Keep R1 ints in memory in canonical form, NReq=2047453.
          There are     1 degrees of freedom in the 1st order CPHF.  IDoFFX=0 NUNeed=     1.
 LinEq1:  Iter=  0 NonCon=     1 RMS=2.95D-03 Max=1.52D-02 NDo=     1
 AX will form     1 AO Fock derivatives at one time.
 LinEq1:  Iter=  1 NonCon=     1 RMS=4.60D-04 Max=2.06D-03 NDo=     1
 LinEq1:  Iter=  2 NonCon=     1 RMS=5.82D-05 Max=2.97D-04 NDo=     1
 LinEq1:  Iter=  3 NonCon=     1 RMS=5.14D-06 Max=2.51D-05 NDo=     1
 LinEq1:  Iter=  4 NonCon=     1 RMS=3.67D-07 Max=1.96D-06 NDo=     1
 LinEq1:  Iter=  5 NonCon=     1 RMS=2.75D-08 Max=1.55D-07 NDo=     1
 LinEq1:  Iter=  6 NonCon=     1 RMS=1.54D-09 Max=7.62D-09 NDo=     1
 LinEq1:  Iter=  7 NonCon=     1 RMS=1.08D-10 Max=5.38D-10 NDo=     1
 LinEq1:  Iter=  8 NonCon=     0 RMS=1.47D-11 Max=1.21D-10 NDo=     1
 Linear equations converged to 1.000D-10 1.000D-09 after     8 iterations.
 End of Minotr F.D. properties file   721 does not exist.
 End of Minotr F.D. properties file   722 does not exist.
 End of Minotr F.D. properties file   788 does not exist.
 D1PCM: PCM CHGder 1st derivatives, ID1Alg=3 FixD1E=F DoIter=F DoCFld=F I1PDM=2.
 Calling FoFJK, ICntrl=  10002127 FMM=F ISym2X=0 I1Cent= 0 IOpClX= 0 NMat=1 NMatS=1 NMatT=0.
 ***** Axes restored to original set *****
 -------------------------------------------------------------------
 Center     Atomic                   Forces (Hartrees/Bohr)
 Number     Number              X              Y              Z
 -------------------------------------------------------------------
      1        6           0.000084834    0.000146936    0.000127170
      2        1          -0.000072075   -0.000124838    0.000204329
      3        1           0.000184534   -0.000121273   -0.000165750
      4        1          -0.000197293    0.000099175   -0.000165750
 -------------------------------------------------------------------
 Cartesian Forces:  Max     0.000204329 RMS     0.000147183

 GradGradGradGradGradGradGradGradGradGradGradGradGradGradGradGradGradGrad
 Berny optimization.
 Using GEDIIS/GDIIS optimizer.
 FormGI is forming the generalized inverse of G from B-inverse, IUseBI=4.
 Internal  Forces:  Max     0.000266896 RMS     0.000175695
 Search for a local minimum.
 Step number   2 out of a maximum of   20
 All quantities printed in internal units (Hartrees-Bohrs-Radians)
 Mixed Optimization -- En-DIIS/RFO-DIIS
 Update second derivatives using D2CorX and points    1    2
 DE= -4.47D-05 DEPred=-4.82D-05 R= 9.27D-01
 TightC=F SS=  1.41D+00  RLast= 1.68D-02 DXNew= 5.0454D-01 5.0330D-02
 Trust test= 9.27D-01 RLast= 1.68D-02 DXMaxT set to 3.00D-01
 The second derivative matrix:
                          R1        R2        R3        A1        A2
           R1           0.35483
           R2           0.00843   0.35658
           R3           0.00843   0.00935   0.35658
           A1           0.00047   0.00052   0.00052   0.15998
           A2           0.00048   0.00052   0.00052  -0.00002   0.15998
           A3          -0.00095  -0.00104  -0.00104   0.00004   0.00004
           D1           0.00390   0.00428   0.00428  -0.00005  -0.00005
                          A3        D1
           A3           0.15993
           D1           0.00011   0.00245
 ITU=  1  0
 Use linear search instead of GDIIS.
     Eigenvalues ---    0.00231   0.15987   0.16000   0.34723   0.34723
     Eigenvalues ---    0.37370
 RFO step:  Lambda=-5.28822191D-06 EMin= 2.30910134D-03
 Quartic linear search produced a step of -0.07221.
 Iteration  1 RMS(Cart)=  0.00928304 RMS(Int)=  0.00025175
 Iteration  2 RMS(Cart)=  0.00012830 RMS(Int)=  0.00021661
 Iteration  3 RMS(Cart)=  0.00000000 RMS(Int)=  0.00021661
 Variable       Old X    -DE/DX   Delta X   Delta X   Delta X     New X
                                 (Linear)    (Quad)   (Total)
    R1        2.05226   0.00024   0.00065  -0.00052   0.00013   2.05239
    R2        2.05138   0.00027   0.00071  -0.00056   0.00015   2.05153
    R3        2.05138   0.00027   0.00071  -0.00056   0.00015   2.05153
    A1        2.09478   0.00001  -0.00003   0.00016  -0.00020   2.09458
    A2        2.09478   0.00001  -0.00003   0.00016  -0.00020   2.09458
    A3        2.09363  -0.00003   0.00006  -0.00024  -0.00052   2.09311
    D1        3.13981   0.00012   0.00013   0.04774   0.04786  -3.09552
         Item               Value     Threshold  Converged?
 Maximum Force            0.000267     0.000450     YES
 RMS     Force            0.000176     0.000300     YES
 Maximum Displacement     0.017337     0.001800     NO 
 RMS     Displacement     0.009283     0.001200     NO 
 Predicted change in Energy=-2.940707D-06
 GradGradGradGradGradGradGradGradGradGradGradGradGradGradGradGradGradGrad

                          Input orientation:                          
 ---------------------------------------------------------------------
 Center     Atomic      Atomic             Coordinates (Angstroms)
 Number     Number       Type             X           Y           Z
 ---------------------------------------------------------------------
      1          6           0        0.131420    0.227627    0.093052
      2          1           0       -0.056388   -0.097667    1.112110
      3          1           0        1.029061   -0.097268   -0.423921
      4          1           0       -0.598767    0.842559   -0.423921
 ---------------------------------------------------------------------
                    Distance matrix (angstroms):
                    1          2          3          4
     1  C    0.000000
     2  H    1.086078   0.000000
     3  H    1.085623   1.880848   0.000000
     4  H    1.085623   1.880848   1.879654   0.000000
 Stoichiometry    CH3(1+)
 Framework group  C1[X(CH3)]
 Deg. of freedom     6
 Full point group                 C1      NOp   1
 Largest Abelian subgroup         C1      NOp   1
 Largest concise Abelian subgroup C1      NOp   1
                         Standard orientation:                         
 ---------------------------------------------------------------------
 Center     Atomic      Atomic             Coordinates (Angstroms)
 Number     Number       Type             X           Y           Z
 ---------------------------------------------------------------------
      1          6           0        0.000052    0.000000   -0.004816
      2          1           0        1.086034    0.000229    0.009635
      3          1           0       -0.542975   -0.939942    0.009630
      4          1           0       -0.543372    0.939712    0.009630
 ---------------------------------------------------------------------
 Rotational constants (GHZ):    283.7810553    283.3010347    141.8105284
 Standard basis: 6-311G(d,p) (5D, 7F)
 There are    37 symmetry adapted cartesian basis functions of A   symmetry.
 There are    36 symmetry adapted basis functions of A   symmetry.
    36 basis functions,    56 primitive gaussians,    37 cartesian basis functions
     4 alpha electrons        4 beta electrons
       nuclear repulsion energy         9.6169453076 Hartrees.
 NAtoms=    4 NActive=    4 NUniq=    4 SFac= 1.00D+00 NAtFMM=   60 NAOKFM=F Big=F
 Integral buffers will be    131072 words long.
 Raffenetti 1 integral format.
 Two-electron integral symmetry is turned on.
 ------------------------------------------------------------------------------
 Polarizable Continuum Model (PCM)
 =================================
 Model                : PCM (using non-symmetric T matrix).
 Atomic radii         : SMD-Coulomb.
 Polarization charges : Total charges.
 Charge compensation  : None.
 Solution method      : On-the-fly selection.
 Cavity type          : VdW (van der Waals Surface) (Alpha=1.000).
 Cavity algorithm     : GePol (No added spheres)
                        Default sphere list used, NSphG=    4.
                        Lebedev-Laikov grids with approx.  5.0 points / Ang**2.
                        Smoothing algorithm: Karplus/York (Gamma=1.0000).
                        Polarization charges: spherical gaussians, with
                                              point-specific exponents (IZeta= 3).
                        Self-potential: point-specific (ISelfS= 7).
                        Self-field    : sphere-specific E.n sum rule (ISelfD= 2).
 1st derivatives      : Analytical E(r).r(x)/FMM algorithm (CHGder, D1EAlg=3).
                        Cavity 1st derivative terms included.
 Solvent              : Water, Eps=  78.355300 Eps(inf)=   1.777849
 ------------------------------------------------------------------------------
 Spheres list:
 ISph  on   Nord     Re0    Alpha      Xe            Ye            Ze
    1   C      1    1.8500  1.000      0.000052      0.000000     -0.004816
    2   H      2    1.2000  1.000      1.086034      0.000229      0.009635
    3   H      3    1.2000  1.000     -0.542975     -0.939942      0.009630
    4   H      4    1.2000  1.000     -0.543372      0.939712      0.009630
 ------------------------------------------------------------------------------
 ------------------------------------------------------------------------------
 Atomic radii for non-electrostatic terms: SMD-CDS.
 ------------------------------------------------------------------------------
 Nuclear repulsion after PCM non-electrostatic terms =        9.6230986072 Hartrees.
 One-electron integrals computed using PRISM.
 NBasis=    36 RedAO= T EigKep=  2.37D-02  NBF=    36
 NBsUse=    36 1.00D-06 EigRej= -1.00D+00 NBFU=    36
 Initial guess from the checkpoint file:  "CH3psmd.chk"
 B after Tr=     0.000000    0.000000    0.000000
         Rot=    1.000000    0.000000    0.000001   -0.000105 Ang=   0.01 deg.
 Keep R1 ints in memory in canonical form, NReq=3284770.
 Requested convergence on RMS density matrix=1.00D-08 within 128 cycles.
 Requested convergence on MAX density matrix=1.00D-06.
 Requested convergence on             energy=1.00D-06.
 No special actions if energy rises.
 Inv3:  Mode=1 IEnd=      442368.
 Iteration    1 A*A^-1 deviation from unit magnitude is 3.44D-15 for    364.
 Iteration    1 A*A^-1 deviation from orthogonality  is 3.32D-15 for    363     68.
 Iteration    1 A^-1*A deviation from unit magnitude is 2.22D-15 for    367.
 Iteration    1 A^-1*A deviation from orthogonality  is 1.28D-10 for    241    151.
 Iteration    2 A*A^-1 deviation from unit magnitude is 1.33D-15 for     71.
 Iteration    2 A*A^-1 deviation from orthogonality  is 1.65D-15 for    337     38.
 Iteration    2 A^-1*A deviation from unit magnitude is 8.88D-16 for     34.
 Iteration    2 A^-1*A deviation from orthogonality  is 2.91D-16 for    319    173.
 Error on total polarization charges =  0.00749
 SCF Done:  E(RHF) =  -39.3745296126     A.U. after    8 cycles
            NFock=  8  Conv=0.23D-08     -V/T= 2.0044
 SMD-CDS (non-electrostatic) energy       (kcal/mol) =       3.86
 (included in total energy above)
 Range of M.O.s used for correlation:     1    36
 NBasis=    36 NAE=     4 NBE=     4 NFC=     0 NFV=     0
 NROrb=     36 NOA=     4 NOB=     4 NVA=    32 NVB=    32
 Fully direct method using O(ONN) memory.
 JobTyp=1 Pass  1:  I=   1 to   4 NPSUse=  8 ParTrn=T ParDer=T DoDerP=T.
 Spin components of T(2) and E(2):
     alpha-alpha T2 =       0.2421189372D-02 E2=     -0.8396515947D-02
     alpha-beta  T2 =       0.3064453652D-01 E2=     -0.1139129615D+00
     beta-beta   T2 =       0.2421189372D-02 E2=     -0.8396515947D-02
 ANorm=    0.1017588775D+01
 E2 =    -0.1307059933D+00 EUMP2 =    -0.39505235605976D+02
          IDoAtm=1111
 NEqPCM:  Using equilibrium solvation (IEInf=0, Eps=  78.3553, EpsInf=   1.7778)
          Differentiating once with respect to electric field.
                with respect to dipole field.
          Differentiating once with respect to nuclear coordinates.
 Keep R1 ints in memory in canonical form, NReq=2050848.
          There are     1 degrees of freedom in the 1st order CPHF.  IDoFFX=0 NUNeed=     1.
 LinEq1:  Iter=  0 NonCon=     1 RMS=2.95D-03 Max=1.52D-02 NDo=     1
 AX will form     1 AO Fock derivatives at one time.
 LinEq1:  Iter=  1 NonCon=     1 RMS=4.60D-04 Max=2.06D-03 NDo=     1
 LinEq1:  Iter=  2 NonCon=     1 RMS=5.82D-05 Max=2.96D-04 NDo=     1
 LinEq1:  Iter=  3 NonCon=     1 RMS=5.16D-06 Max=2.51D-05 NDo=     1
 LinEq1:  Iter=  4 NonCon=     1 RMS=3.69D-07 Max=1.95D-06 NDo=     1
 LinEq1:  Iter=  5 NonCon=     1 RMS=2.86D-08 Max=1.53D-07 NDo=     1
 LinEq1:  Iter=  6 NonCon=     1 RMS=2.16D-09 Max=1.53D-08 NDo=     1
 LinEq1:  Iter=  7 NonCon=     1 RMS=5.10D-10 Max=4.05D-09 NDo=     1
 LinEq1:  Iter=  8 NonCon=     0 RMS=6.18D-11 Max=3.67D-10 NDo=     1
 Linear equations converged to 1.000D-10 1.000D-09 after     8 iterations.
 End of Minotr F.D. properties file   721 does not exist.
 End of Minotr F.D. properties file   722 does not exist.
 End of Minotr F.D. properties file   788 does not exist.
 D1PCM: PCM CHGder 1st derivatives, ID1Alg=3 FixD1E=F DoIter=F DoCFld=F I1PDM=2.
 Calling FoFJK, ICntrl=  10002127 FMM=F ISym2X=0 I1Cent= 0 IOpClX= 0 NMat=1 NMatS=1 NMatT=0.
 ***** Axes restored to original set *****
 -------------------------------------------------------------------
 Center     Atomic                   Forces (Hartrees/Bohr)
 Number     Number              X              Y              Z
 -------------------------------------------------------------------
      1        6          -0.002477005   -0.004291972   -0.001692198
      2        1           0.000793811    0.001374629    0.000781698
      3        1           0.001026127    0.001352197    0.000455233
      4        1           0.000657067    0.001565146    0.000455267
 -------------------------------------------------------------------
 Cartesian Forces:  Max     0.004291972 RMS     0.001749481

 GradGradGradGradGradGradGradGradGradGradGradGradGradGradGradGradGradGrad
 Berny optimization.
 Using GEDIIS/GDIIS optimizer.
 FormGI is forming the generalized inverse of G from B-inverse, IUseBI=4.
 Internal  Forces:  Max     0.003107861 RMS     0.001183531
 Search for a local minimum.
 Step number   3 out of a maximum of   20
 All quantities printed in internal units (Hartrees-Bohrs-Radians)
 Mixed Optimization -- RFO/linear search
 Update second derivatives using D2CorX and points    1    3    2
 DE=  7.14D-05 DEPred=-2.94D-06 R=-2.43D+01
 Trust test=-2.43D+01 RLast= 4.79D-02 DXMaxT set to 1.50D-01
 The second derivative matrix:
                          R1        R2        R3        A1        A2
           R1           0.34530
           R2          -0.00214   0.34484
           R3          -0.00214  -0.00238   0.34484
           A1           0.00187   0.00206   0.00206   0.15978
           A2           0.00183   0.00204   0.00204  -0.00023   0.15981
           A3           0.00218   0.00245   0.00245  -0.00044  -0.00039
           D1           0.00027  -0.00021  -0.00023   0.00112  -0.00060
                          A3        D1
           A3           0.15893
           D1          -0.00012   0.06745
 ITU= -1  1  0
 Use linear search instead of GDIIS.
 Energy rises -- skip Quadratic/GDIIS search.
 Quartic linear search produced a step of -0.96199.
 Iteration  1 RMS(Cart)=  0.00892972 RMS(Int)=  0.00011903
 Iteration  2 RMS(Cart)=  0.00011874 RMS(Int)=  0.00000792
 Iteration  3 RMS(Cart)=  0.00000000 RMS(Int)=  0.00000792
 Variable       Old X    -DE/DX   Delta X   Delta X   Delta X     New X
                                 (Linear)    (Quad)   (Total)
    R1        2.05239   0.00018  -0.00013   0.00000  -0.00013   2.05226
    R2        2.05153   0.00023  -0.00015   0.00000  -0.00015   2.05138
    R3        2.05153   0.00023  -0.00015   0.00000  -0.00015   2.05138
    A1        2.09458  -0.00001   0.00019   0.00000   0.00020   2.09478
    A2        2.09458   0.00007   0.00019   0.00000   0.00020   2.09478
    A3        2.09311   0.00006   0.00050   0.00000   0.00051   2.09362
    D1       -3.09552  -0.00311  -0.04604   0.00000  -0.04604  -3.14156
         Item               Value     Threshold  Converged?
 Maximum Force            0.003108     0.000450     NO 
 RMS     Force            0.001184     0.000300     NO 
 Maximum Displacement     0.016678     0.001800     NO 
 RMS     Displacement     0.008930     0.001200     NO 
 Predicted change in Energy=-1.310466D-07
 GradGradGradGradGradGradGradGradGradGradGradGradGradGradGradGradGradGrad

                          Input orientation:                          
 ---------------------------------------------------------------------
 Center     Atomic      Atomic             Coordinates (Angstroms)
 Number     Number       Type             X           Y           Z
 ---------------------------------------------------------------------
      1          6           0        0.126325    0.218801    0.089395
      2          1           0       -0.054682   -0.094713    1.113292
      3          1           0        1.030818   -0.094368   -0.422684
      4          1           0       -0.597134    0.845531   -0.422684
 ---------------------------------------------------------------------
                    Distance matrix (angstroms):
                    1          2          3          4
     1  C    0.000000
     2  H    1.086010   0.000000
     3  H    1.085545   1.880833   0.000000
     4  H    1.085545   1.880833   1.879797   0.000000
 Stoichiometry    CH3(1+)
 Framework group  C1[X(CH3)]
 Deg. of freedom     6
 Full point group                 C1      NOp   1
 Largest Abelian subgroup         C1      NOp   1
 Largest concise Abelian subgroup C1      NOp   1
                         Standard orientation:                         
 ---------------------------------------------------------------------
 Center     Atomic      Atomic             Coordinates (Angstroms)
 Number     Number       Type             X           Y           Z
 ---------------------------------------------------------------------
      1          6           0        0.000029    0.000000   -0.000004
      2          1           0        1.086040    0.000010    0.000008
      3          1           0       -0.543099   -0.939904    0.000008
      4          1           0       -0.543117    0.939893    0.000008
 ---------------------------------------------------------------------
 Rotational constants (GHZ):    283.8181567    283.4016455    141.8048741
 Standard basis: 6-311G(d,p) (5D, 7F)
 There are    37 symmetry adapted cartesian basis functions of A   symmetry.
 There are    36 symmetry adapted basis functions of A   symmetry.
    36 basis functions,    56 primitive gaussians,    37 cartesian basis functions
     4 alpha electrons        4 beta electrons
       nuclear repulsion energy         9.6175303236 Hartrees.
 NAtoms=    4 NActive=    4 NUniq=    4 SFac= 1.00D+00 NAtFMM=   60 NAOKFM=F Big=F
 Integral buffers will be    131072 words long.
 Raffenetti 1 integral format.
 Two-electron integral symmetry is turned on.
 ------------------------------------------------------------------------------
 Polarizable Continuum Model (PCM)
 =================================
 Model                : PCM (using non-symmetric T matrix).
 Atomic radii         : SMD-Coulomb.
 Polarization charges : Total charges.
 Charge compensation  : None.
 Solution method      : On-the-fly selection.
 Cavity type          : VdW (van der Waals Surface) (Alpha=1.000).
 Cavity algorithm     : GePol (No added spheres)
                        Default sphere list used, NSphG=    4.
                        Lebedev-Laikov grids with approx.  5.0 points / Ang**2.
                        Smoothing algorithm: Karplus/York (Gamma=1.0000).
                        Polarization charges: spherical gaussians, with
                                              point-specific exponents (IZeta= 3).
                        Self-potential: point-specific (ISelfS= 7).
                        Self-field    : sphere-specific E.n sum rule (ISelfD= 2).
 1st derivatives      : Analytical E(r).r(x)/FMM algorithm (CHGder, D1EAlg=3).
                        Cavity 1st derivative terms included.
 Solvent              : Water, Eps=  78.355300 Eps(inf)=   1.777849
 ------------------------------------------------------------------------------
 Spheres list:
 ISph  on   Nord     Re0    Alpha      Xe            Ye            Ze
    1   C      1    1.8500  1.000      0.000029      0.000000     -0.000004
    2   H      2    1.2000  1.000      1.086040      0.000010      0.000008
    3   H      3    1.2000  1.000     -0.543099     -0.939904      0.000008
    4   H      4    1.2000  1.000     -0.543117      0.939893      0.000008
 ------------------------------------------------------------------------------
 ------------------------------------------------------------------------------
 Atomic radii for non-electrostatic terms: SMD-CDS.
 ------------------------------------------------------------------------------
 Nuclear repulsion after PCM non-electrostatic terms =        9.6236835977 Hartrees.
 One-electron integrals computed using PRISM.
 NBasis=    36 RedAO= T EigKep=  2.37D-02  NBF=    36
 NBsUse=    36 1.00D-06 EigRej= -1.00D+00 NBFU=    36
 Lowest energy guess from the checkpoint file:  "CH3psmd.chk"
 B after Tr=     0.000000    0.000000    0.000000
         Rot=    1.000000    0.000000    0.000000   -0.000005 Ang=   0.00 deg.
 B after Tr=     0.000000    0.000000    0.000000
         Rot=    1.000000    0.000000   -0.000001    0.000101 Ang=  -0.01 deg.
 Keep R1 ints in memory in canonical form, NReq=3282900.
 Requested convergence on RMS density matrix=1.00D-08 within 128 cycles.
 Requested convergence on MAX density matrix=1.00D-06.
 Requested convergence on             energy=1.00D-06.
 No special actions if energy rises.
 Inv3:  Mode=1 IEnd=      437772.
 Iteration    1 A*A^-1 deviation from unit magnitude is 4.11D-15 for     45.
 Iteration    1 A*A^-1 deviation from orthogonality  is 4.61D-15 for    298     45.
 Iteration    1 A^-1*A deviation from unit magnitude is 2.11D-15 for    189.
 Iteration    1 A^-1*A deviation from orthogonality  is 1.69D-10 for    286    151.
 Iteration    2 A*A^-1 deviation from unit magnitude is 1.89D-15 for      9.
 Iteration    2 A*A^-1 deviation from orthogonality  is 1.98D-15 for    313     36.
 Iteration    2 A^-1*A deviation from unit magnitude is 6.66D-16 for     30.
 Iteration    2 A^-1*A deviation from orthogonality  is 3.06D-16 for    307    265.
 Error on total polarization charges =  0.00749
 SCF Done:  E(RHF) =  -39.3746078820     A.U. after    2 cycles
            NFock=  2  Conv=0.84D-08     -V/T= 2.0044
 SMD-CDS (non-electrostatic) energy       (kcal/mol) =       3.86
 (included in total energy above)
 Range of M.O.s used for correlation:     1    36
 NBasis=    36 NAE=     4 NBE=     4 NFC=     0 NFV=     0
 NROrb=     36 NOA=     4 NOB=     4 NVA=    32 NVB=    32
 Fully direct method using O(ONN) memory.
 JobTyp=1 Pass  1:  I=   1 to   4 NPSUse=  8 ParTrn=T ParDer=T DoDerP=T.
 Spin components of T(2) and E(2):
     alpha-alpha T2 =       0.2420806662D-02 E2=     -0.8395814795D-02
     alpha-beta  T2 =       0.3063979440D-01 E2=     -0.1139075899D+00
     beta-beta   T2 =       0.2420806662D-02 E2=     -0.8395814795D-02
 ANorm=    0.1017586069D+01
 E2 =    -0.1306992195D+00 EUMP2 =    -0.39505307101538D+02
          IDoAtm=1111
 NEqPCM:  Using equilibrium solvation (IEInf=0, Eps=  78.3553, EpsInf=   1.7778)
          Differentiating once with respect to electric field.
                with respect to dipole field.
          Differentiating once with respect to nuclear coordinates.
 Keep R1 ints in memory in canonical form, NReq=2047453.
          There are     1 degrees of freedom in the 1st order CPHF.  IDoFFX=0 NUNeed=     1.
 LinEq1:  Iter=  0 NonCon=     1 RMS=2.95D-03 Max=1.52D-02 NDo=     1
 AX will form     1 AO Fock derivatives at one time.
 LinEq1:  Iter=  1 NonCon=     1 RMS=4.60D-04 Max=2.06D-03 NDo=     1
 LinEq1:  Iter=  2 NonCon=     1 RMS=5.82D-05 Max=2.97D-04 NDo=     1
 LinEq1:  Iter=  3 NonCon=     1 RMS=5.14D-06 Max=2.51D-05 NDo=     1
 LinEq1:  Iter=  4 NonCon=     1 RMS=3.67D-07 Max=1.96D-06 NDo=     1
 LinEq1:  Iter=  5 NonCon=     1 RMS=2.75D-08 Max=1.55D-07 NDo=     1
 LinEq1:  Iter=  6 NonCon=     1 RMS=1.54D-09 Max=7.62D-09 NDo=     1
 LinEq1:  Iter=  7 NonCon=     1 RMS=1.05D-10 Max=5.35D-10 NDo=     1
 LinEq1:  Iter=  8 NonCon=     0 RMS=9.27D-12 Max=4.28D-11 NDo=     1
 Linear equations converged to 1.000D-10 1.000D-09 after     8 iterations.
 End of Minotr F.D. properties file   721 does not exist.
 End of Minotr F.D. properties file   722 does not exist.
 End of Minotr F.D. properties file   788 does not exist.
 D1PCM: PCM CHGder 1st derivatives, ID1Alg=3 FixD1E=F DoIter=F DoCFld=F I1PDM=2.
 Calling FoFJK, ICntrl=  10002127 FMM=F ISym2X=0 I1Cent= 0 IOpClX= 0 NMat=1 NMatS=1 NMatT=0.
 ***** Axes restored to original set *****
 -------------------------------------------------------------------
 Center     Atomic                   Forces (Hartrees/Bohr)
 Number     Number              X              Y              Z
 -------------------------------------------------------------------
      1        6          -0.000012342   -0.000021435    0.000057152
      2        1          -0.000039092   -0.000067734    0.000225487
      3        1           0.000215206   -0.000064816   -0.000141322
      4        1          -0.000163772    0.000153986   -0.000141318
 -------------------------------------------------------------------
 Cartesian Forces:  Max     0.000225487 RMS     0.000129688

 GradGradGradGradGradGradGradGradGradGradGradGradGradGradGradGradGradGrad
 Berny optimization.
 Using GEDIIS/GDIIS optimizer.
 FormGI is forming the generalized inverse of G from B-inverse, IUseBI=4.
 Internal  Forces:  Max     0.000264711 RMS     0.000168310
 Search for a local minimum.
 Step number   4 out of a maximum of   20
 All quantities printed in internal units (Hartrees-Bohrs-Radians)
 Mixed Optimization -- En-DIIS/RFO-DIIS
 Update second derivatives using D2CorX and points    1    3    2    4
 The second derivative matrix:
                          R1        R2        R3        A1        A2
           R1           0.35505
           R2           0.00868   0.35687
           R3           0.00869   0.00964   0.35687
           A1           0.00046   0.00052   0.00052   0.15977
           A2           0.00049   0.00055   0.00055  -0.00020   0.15983
           A3          -0.00096  -0.00101  -0.00100  -0.00045  -0.00042
           D1           0.00005   0.00002   0.00000  -0.00019  -0.00013
                          A3        D1
           A3           0.15862
           D1           0.00030   0.06742
 ITU=  0 -1  1  0
 Use linear search instead of GDIIS.
     Eigenvalues ---    0.06742   0.15951   0.16000   0.34723   0.34723
     Eigenvalues ---    0.37435
 RFO step:  Lambda=-5.33092933D-07 EMin= 6.74162580D-02
 Quartic linear search produced a step of  0.00009.
 Iteration  1 RMS(Cart)=  0.00045173 RMS(Int)=  0.00000003
 Iteration  2 RMS(Cart)=  0.00000003 RMS(Int)=  0.00000000
 Variable       Old X    -DE/DX   Delta X   Delta X   Delta X     New X
                                 (Linear)    (Quad)   (Total)
    R1        2.05226   0.00024   0.00000   0.00064   0.00064   2.05290
    R2        2.05138   0.00026   0.00000   0.00071   0.00071   2.05209
    R3        2.05138   0.00026   0.00000   0.00071   0.00071   2.05209
    A1        2.09478   0.00001   0.00000   0.00008   0.00008   2.09487
    A2        2.09478   0.00001   0.00000   0.00008   0.00008   2.09487
    A3        2.09362  -0.00003   0.00000  -0.00016  -0.00016   2.09345
    D1       -3.14156   0.00000   0.00000  -0.00004  -0.00004  -3.14159
         Item               Value     Threshold  Converged?
 Maximum Force            0.000265     0.000450     YES
 RMS     Force            0.000168     0.000300     YES
 Maximum Displacement     0.000688     0.001800     YES
 RMS     Displacement     0.000452     0.001200     YES
 Predicted change in Energy=-2.665465D-07
 Optimization completed.
    -- Stationary point found.
                           ----------------------------
                           !   Optimized Parameters   !
                           ! (Angstroms and Degrees)  !
 --------------------------                            --------------------------
 ! Name  Definition              Value          Derivative Info.                !
 --------------------------------------------------------------------------------
 ! R1    R(1,2)                  1.086          -DE/DX =    0.0002              !
 ! R2    R(1,3)                  1.0855         -DE/DX =    0.0003              !
 ! R3    R(1,4)                  1.0855         -DE/DX =    0.0003              !
 ! A1    A(2,1,3)              120.0223         -DE/DX =    0.0                 !
 ! A2    A(2,1,4)              120.0223         -DE/DX =    0.0                 !
 ! A3    A(3,1,4)              119.9555         -DE/DX =    0.0                 !
 ! D1    D(2,1,4,3)           -179.9978         -DE/DX =    0.0                 !
 --------------------------------------------------------------------------------
 GradGradGradGradGradGradGradGradGradGradGradGradGradGradGradGradGradGrad

                          Input orientation:                          
 ---------------------------------------------------------------------
 Center     Atomic      Atomic             Coordinates (Angstroms)
 Number     Number       Type             X           Y           Z
 ---------------------------------------------------------------------
      1          6           0        0.126325    0.218801    0.089395
      2          1           0       -0.054682   -0.094713    1.113292
      3          1           0        1.030818   -0.094368   -0.422684
      4          1           0       -0.597134    0.845531   -0.422684
 ---------------------------------------------------------------------
                    Distance matrix (angstroms):
                    1          2          3          4
     1  C    0.000000
     2  H    1.086010   0.000000
     3  H    1.085545   1.880833   0.000000
     4  H    1.085545   1.880833   1.879797   0.000000
 Stoichiometry    CH3(1+)
 Framework group  C1[X(CH3)]
 Deg. of freedom     6
 Full point group                 C1      NOp   1
 Largest Abelian subgroup         C1      NOp   1
 Largest concise Abelian subgroup C1      NOp   1
                         Standard orientation:                         
 ---------------------------------------------------------------------
 Center     Atomic      Atomic             Coordinates (Angstroms)
 Number     Number       Type             X           Y           Z
 ---------------------------------------------------------------------
      1          6           0        0.000029    0.000000   -0.000004
      2          1           0        1.086040    0.000010    0.000008
      3          1           0       -0.543099   -0.939904    0.000008
      4          1           0       -0.543117    0.939893    0.000008
 ---------------------------------------------------------------------
 Rotational constants (GHZ):    283.8181567    283.4016455    141.8048741

 **********************************************************************

            Population analysis using the SCF density.

 **********************************************************************

 Orbital symmetries:
       Occupied  (A) (A) (A) (A)
       Virtual   (A) (A) (A) (A) (A) (A) (A) (A) (A) (A) (A) (A)
                 (A) (A) (A) (A) (A) (A) (A) (A) (A) (A) (A) (A)
                 (A) (A) (A) (A) (A) (A) (A) (A)
 The electronic state is 1-A.
 Alpha  occ. eigenvalues --  -11.41421  -1.00875  -0.68294  -0.68290
 Alpha virt. eigenvalues --   -0.01299   0.15434   0.21496   0.21506   0.40987
 Alpha virt. eigenvalues --    0.41007   0.48574   0.57617   0.72952   0.72961
 Alpha virt. eigenvalues --    0.81258   1.20597   1.20617   1.55455   1.55486
 Alpha virt. eigenvalues --    1.58802   1.66605   1.83432   2.07824   2.07884
 Alpha virt. eigenvalues --    2.14400   2.14414   2.51457   2.64068   2.64073
 Alpha virt. eigenvalues --    2.86063   2.86069   2.91153   2.92559   3.99569
 Alpha virt. eigenvalues --    3.99653  24.86259
          Condensed to atoms (all electrons):
               1          2          3          4
     1  C    4.626652   0.383062   0.383136   0.383136
     2  H    0.383062   0.379836  -0.010735  -0.010735
     3  H    0.383136  -0.010735   0.379625  -0.010733
     4  H    0.383136  -0.010735  -0.010733   0.379625
 Mulliken charges:
               1
     1  C    0.224014
     2  H    0.258573
     3  H    0.258707
     4  H    0.258707
 Sum of Mulliken charges =   1.00000
 Mulliken charges with hydrogens summed into heavy atoms:
               1
     1  C    1.000000
 Electronic spatial extent (au):  <R**2>=             22.5529
 Charge=              1.0000 electrons
 Dipole moment (field-independent basis, Debye):
    X=             -0.0013    Y=              0.0000    Z=              0.0000  Tot=              0.0013
 Quadrupole moment (field-independent basis, Debye-Ang):
   XX=             -4.1685   YY=             -4.1734   ZZ=             -5.0073
   XY=              0.0000   XZ=              0.0000   YZ=              0.0000
 Traceless Quadrupole moment (field-independent basis, Debye-Ang):
   XX=              0.2812   YY=              0.2763   ZZ=             -0.5575
   XY=              0.0000   XZ=              0.0000   YZ=              0.0000
 Octapole moment (field-independent basis, Debye-Ang**2):
  XXX=              1.6991  YYY=              0.0000  ZZZ=              0.0000  XYY=             -1.7013
  XXY=              0.0000  XXZ=              0.0000  XZZ=             -0.0008  YZZ=              0.0000
  YYZ=              0.0000  XYZ=              0.0000
 Hexadecapole moment (field-independent basis, Debye-Ang**3):
 XXXX=             -8.0947 YYYY=             -8.0965 ZZZZ=             -3.4179 XXXY=              0.0000
 XXXZ=              0.0000 YYYX=              0.0000 YYYZ=              0.0000 ZZZX=              0.0000
 ZZZY=              0.0000 XXYY=             -2.6978 XXZZ=             -2.5132 YYZZ=             -2.5118
 XXYZ=              0.0000 YYXZ=              0.0000 ZZXY=              0.0000
 N-N= 9.623683597729D+00 E-N=-1.071752830373D+02  KE= 3.920322507395D+01
 1\1\GINC-TC-NODE161\FOpt\RMP2-Full\6-311G(d,p)\C1H3(1+)\MAXB2\25-Oct-2
 016\0\\# opt freq mp2(full)/6-311g** scrf=(smd,solvent=water) geom=all
 check\\Title Card Required\\1,1\C,0.1263247951,0.2188009671,0.08939540
 01\H,-0.054682443,-0.0947128048,1.1132916483\H,1.0308181242,-0.0943675
 537,-0.422683559\H,-0.5971337794,0.8455309028,-0.4226835602\\Version=E
 S64L-G09RevD.01\State=1-A\HF=-39.3746079\MP2=-39.5053071\RMSD=8.402e-0
 9\RMSF=1.297e-04\Dipole=0.0000865,0.0001499,-0.000491\PG=C01 [X(C1H3)]
 \\@


 READER, WHETHER YOU BE DILETTANTE OR PROFESSOR ... SHOW YOURSELF TO BE
 MORE HUMAN THAN CRITICAL, AND THEN YOUR PLEASURE WILL INCREASE.
                                           -- DOMENICO SCARLATTI (1738)
 Job cpu time:       0 days  0 hours  1 minutes 30.8 seconds.
 File lengths (MBytes):  RWF=      9 Int=      0 D2E=      0 Chk=      2 Scr=      1
 Normal termination of Gaussian 09 at Tue Oct 25 12:09:13 2016.
 Link1:  Proceeding to internal job step number  2.
 ----------------------------------------------------------------------
 #N Geom=AllCheck Guess=TCheck SCRF=Check GenChk RMP2-Full/6-311G(d,p) 
 Freq
 ----------------------------------------------------------------------
 1/10=4,29=7,30=1,38=1,40=1/1,3;
 2/12=2,40=1/2;
 3/5=4,6=6,7=101,11=1,14=-4,16=1,25=1,30=1,70=2,71=2,72=1,116=1,140=1/1,2,3;
 4/5=101/1;
 5/5=2,53=1,98=1/2;
 8/6=3,8=1,10=90,19=11/1;
 9/15=3,16=-3/6;
 11/6=1,8=1,15=11,17=11,24=-1,27=1,28=-2,29=300,32=6,42=3/1,2,10;
 10/6=2,21=1/2;
 8/6=4,8=1,10=90,19=11/11,4;
 10/5=1,20=4/2;
 11/12=2,14=11,16=1,28=-2,42=3/2,10,12;
 6/7=2,8=2,9=2,10=2/1;
 7/8=1,10=1,12=2,25=1,44=2/1,2,3,16;
 1/10=4,30=1/3;
 99//99;
 Structure from the checkpoint file:  "CH3psmd.chk"
 -------------------
 Title Card Required
 -------------------
 Charge =  1 Multiplicity = 1
 Redundant internal coordinates found in file.
 C,0,0.1263247951,0.2188009671,0.0893954001
 H,0,-0.054682443,-0.0947128048,1.1132916483
 H,0,1.0308181242,-0.0943675537,-0.422683559
 H,0,-0.5971337794,0.8455309028,-0.4226835602
 Recover connectivity data from disk.

 GradGradGradGradGradGradGradGradGradGradGradGradGradGradGradGradGradGrad
 Berny optimization.
 Initialization pass.
                           ----------------------------
                           !    Initial Parameters    !
                           ! (Angstroms and Degrees)  !
 --------------------------                            --------------------------
 ! Name  Definition              Value          Derivative Info.                !
 --------------------------------------------------------------------------------
 ! R1    R(1,2)                  1.086          calculate D2E/DX2 analytically  !
 ! R2    R(1,3)                  1.0855         calculate D2E/DX2 analytically  !
 ! R3    R(1,4)                  1.0855         calculate D2E/DX2 analytically  !
 ! A1    A(2,1,3)              120.0223         calculate D2E/DX2 analytically  !
 ! A2    A(2,1,4)              120.0223         calculate D2E/DX2 analytically  !
 ! A3    A(3,1,4)              119.9555         calculate D2E/DX2 analytically  !
 ! D1    D(2,1,4,3)           -179.9978         calculate D2E/DX2 analytically  !
 --------------------------------------------------------------------------------
 Trust Radius=3.00D-01 FncErr=1.00D-07 GrdErr=1.00D-07
 Number of steps in this run=      2 maximum allowed number of steps=      2.
 GradGradGradGradGradGradGradGradGradGradGradGradGradGradGradGradGradGrad

                          Input orientation:                          
 ---------------------------------------------------------------------
 Center     Atomic      Atomic             Coordinates (Angstroms)
 Number     Number       Type             X           Y           Z
 ---------------------------------------------------------------------
      1          6           0        0.126325    0.218801    0.089395
      2          1           0       -0.054682   -0.094713    1.113292
      3          1           0        1.030818   -0.094368   -0.422684
      4          1           0       -0.597134    0.845531   -0.422684
 ---------------------------------------------------------------------
                    Distance matrix (angstroms):
                    1          2          3          4
     1  C    0.000000
     2  H    1.086010   0.000000
     3  H    1.085545   1.880833   0.000000
     4  H    1.085545   1.880833   1.879797   0.000000
 Stoichiometry    CH3(1+)
 Framework group  C1[X(CH3)]
 Deg. of freedom     6
 Full point group                 C1      NOp   1
 Largest Abelian subgroup         C1      NOp   1
 Largest concise Abelian subgroup C1      NOp   1
                         Standard orientation:                         
 ---------------------------------------------------------------------
 Center     Atomic      Atomic             Coordinates (Angstroms)
 Number     Number       Type             X           Y           Z
 ---------------------------------------------------------------------
      1          6           0        0.000029    0.000000   -0.000004
      2          1           0        1.086040    0.000010    0.000008
      3          1           0       -0.543099   -0.939904    0.000008
      4          1           0       -0.543117    0.939893    0.000008
 ---------------------------------------------------------------------
 Rotational constants (GHZ):    283.8181567    283.4016455    141.8048741
 Standard basis: 6-311G(d,p) (5D, 7F)
 There are    37 symmetry adapted cartesian basis functions of A   symmetry.
 There are    36 symmetry adapted basis functions of A   symmetry.
    36 basis functions,    56 primitive gaussians,    37 cartesian basis functions
     4 alpha electrons        4 beta electrons
       nuclear repulsion energy         9.6175303236 Hartrees.
 NAtoms=    4 NActive=    4 NUniq=    4 SFac= 1.00D+00 NAtFMM=   60 NAOKFM=F Big=F
 Integral buffers will be    131072 words long.
 Raffenetti 1 integral format.
 Two-electron integral symmetry is turned on.
 Force inversion solution in PCM.
 ------------------------------------------------------------------------------
 Polarizable Continuum Model (PCM)
 =================================
 Model                : PCM (using non-symmetric T matrix).
 Atomic radii         : SMD-Coulomb.
 Polarization charges : Total charges.
 Charge compensation  : None.
 Solution method      : Matrix inversion.
 Cavity type          : VdW (van der Waals Surface) (Alpha=1.000).
 Cavity algorithm     : GePol (No added spheres)
                        Default sphere list used, NSphG=    4.
                        Lebedev-Laikov grids with approx.  5.0 points / Ang**2.
                        Smoothing algorithm: Karplus/York (Gamma=1.0000).
                        Polarization charges: spherical gaussians, with
                                              point-specific exponents (IZeta= 3).
                        Self-potential: point-specific (ISelfS= 7).
                        Self-field    : sphere-specific E.n sum rule (ISelfD= 2).
 1st derivatives      : Analytical E(r).r(x)/FMM algorithm (CHGder, D1EAlg=3).
                        Cavity 1st derivative terms included.
 2nd derivatives      : Analytical E(r).r(xy)/FMM algorithm (CHGder, D2EAlg=3).
                        Cavity 2nd derivative terms included.
 Solvent              : Water, Eps=  78.355300 Eps(inf)=   1.777849
 ------------------------------------------------------------------------------
 Spheres list:
 ISph  on   Nord     Re0    Alpha      Xe            Ye            Ze
    1   C      1    1.8500  1.000      0.000029      0.000000     -0.000004
    2   H      2    1.2000  1.000      1.086040      0.000010      0.000008
    3   H      3    1.2000  1.000     -0.543099     -0.939904      0.000008
    4   H      4    1.2000  1.000     -0.543117      0.939893      0.000008
 ------------------------------------------------------------------------------
 ------------------------------------------------------------------------------
 Atomic radii for non-electrostatic terms: SMD-CDS.
 ------------------------------------------------------------------------------
 Nuclear repulsion after PCM non-electrostatic terms =        9.6236835977 Hartrees.
 One-electron integrals computed using PRISM.
 NBasis=    36 RedAO= T EigKep=  2.37D-02  NBF=    36
 NBsUse=    36 1.00D-06 EigRej= -1.00D+00 NBFU=    36
 Initial guess from the checkpoint file:  "CH3psmd.chk"
 B after Tr=     0.000000    0.000000    0.000000
         Rot=    1.000000    0.000000    0.000000    0.000000 Ang=   0.00 deg.
 Keep R1 ints in memory in canonical form, NReq=3282900.
 Requested convergence on RMS density matrix=1.00D-08 within 128 cycles.
 Requested convergence on MAX density matrix=1.00D-06.
 Requested convergence on             energy=1.00D-06.
 No special actions if energy rises.
 Inv3:  Mode=1 IEnd=      437772.
 Iteration    1 A*A^-1 deviation from unit magnitude is 3.77D-15 for    341.
 Iteration    1 A*A^-1 deviation from orthogonality  is 3.62D-15 for    361     68.
 Iteration    1 A^-1*A deviation from unit magnitude is 2.66D-15 for    336.
 Iteration    1 A^-1*A deviation from orthogonality  is 1.49D-10 for    239    151.
 Iteration    2 A*A^-1 deviation from unit magnitude is 1.78D-15 for      8.
 Iteration    2 A*A^-1 deviation from orthogonality  is 1.61D-15 for    338     41.
 Iteration    2 A^-1*A deviation from unit magnitude is 6.66D-16 for     35.
 Iteration    2 A^-1*A deviation from orthogonality  is 2.50D-16 for    212    180.
 Error on total polarization charges =  0.00749
 SCF Done:  E(RHF) =  -39.3746078820     A.U. after    1 cycles
            NFock=  1  Conv=0.15D-08     -V/T= 2.0044
 SMD-CDS (non-electrostatic) energy       (kcal/mol) =       3.86
 (included in total energy above)
 Range of M.O.s used for correlation:     1    36
 NBasis=    36 NAE=     4 NBE=     4 NFC=     0 NFV=     0
 NROrb=     36 NOA=     4 NOB=     4 NVA=    32 NVB=    32
 Disk-based method using ON**2 memory for  4 occupieds at a time.
 Permanent disk used for amplitudes=       19360 words.
 Estimated scratch disk usage=      979620 words.
 Actual    scratch disk usage=      979620 words.
 JobTyp=1 Pass  1:  I=   1 to   4 NPSUse=  8 ParTrn=T ParDer=T DoDerP=T.
 (rs|ai) integrals will be sorted in core.
 Spin components of T(2) and E(2):
     alpha-alpha T2 =       0.2420806566D-02 E2=     -0.8395814638D-02
     alpha-beta  T2 =       0.3063979422D-01 E2=     -0.1139075902D+00
     beta-beta   T2 =       0.2420806566D-02 E2=     -0.8395814638D-02
 ANorm=    0.1017586069D+01
 E2 =    -0.1306992194D+00 EUMP2 =    -0.39505307101473D+02
 G2DrvN: will do     5 centers at a time, making    1 passes.
 Calling FoFCou, ICntrl=  3107 FMM=F I1Cent=   0 AccDes= 0.00D+00.
 NEqPCM:  Using equilibrium solvation (IEInf=0, Eps=  78.3553, EpsInf=   1.7778)
 G2PCM: DoFxE=T DoFxN=T DoGrad=T DoDP/DQ/DG/TGxP=FFFF NFrqRd=   0 IEInf=0 SqF1=F DoCFld=F IF1Alg=4.
 End of G2Drv F.D. properties file   721 does not exist.
 End of G2Drv F.D. properties file   722 does not exist.
 End of G2Drv F.D. properties file   788 does not exist.
          IDoAtm=1111
 NEqPCM:  Using equilibrium solvation (IEInf=0, Eps=  78.3553, EpsInf=   1.7778)
          Differentiating once with respect to electric field.
                with respect to dipole field.
          Differentiating once with respect to nuclear coordinates.
 Keep R1 ints in memory in canonical form, NReq=2047453.
          There are    15 degrees of freedom in the 1st order CPHF.  IDoFFX=6 NUNeed=    15.
     12 vectors produced by pass  0 Test12= 8.53D-16 6.67D-09 XBig12= 1.79D+00 8.13D-01.
 AX will form    12 AO Fock derivatives at one time.
     12 vectors produced by pass  1 Test12= 8.53D-16 6.67D-09 XBig12= 1.06D-02 5.36D-02.
     12 vectors produced by pass  2 Test12= 8.53D-16 6.67D-09 XBig12= 5.22D-05 2.40D-03.
     12 vectors produced by pass  3 Test12= 8.53D-16 6.67D-09 XBig12= 1.33D-07 1.46D-04.
     11 vectors produced by pass  4 Test12= 8.53D-16 6.67D-09 XBig12= 2.32D-10 6.17D-06.
      9 vectors produced by pass  5 Test12= 8.53D-16 6.67D-09 XBig12= 1.02D-12 3.30D-07.
      3 vectors produced by pass  6 Test12= 8.53D-16 6.67D-09 XBig12= 1.36D-15 1.80D-08.
 InvSVY:  IOpt=1 It=  1 EMax= 7.77D-16
 Solved reduced A of dimension    71 with    12 vectors.
 End of Minotr F.D. properties file   721 does not exist.
 End of Minotr F.D. properties file   722 does not exist.
 End of Minotr F.D. properties file   788 does not exist.
 MDV=   536870912.
 Form MO integral derivatives with frozen-active canonical formalism.
 Discarding MO integrals.
 Reordered first order wavefunction length =        32768
 In DefCFB: NBatch=  1 ICI=  4 ICA= 32 LFMax= 32
            Large arrays: LIAPS=      681984 LIARS=      629888 words.
 Semi-Direct transformation.
 ModeAB=           2 MOrb=             4 LenV=     536686806
 LASXX=        83637 LTotXX=       83637 LenRXX=       83637
 LTotAB=       90628 MaxLAS=      101232 LenRXY=      101232
 NonZer=      167274 LenScr=      785920 LnRSAI=           0
 LnScr1=           0 LExtra=           0 Total=       970789
 MaxDsk=          -1 SrtSym=           F ITran=            4
 JobTyp=0 Pass  1:  I=   1 to   4.
 (rs|ai) integrals will be sorted in core.
 SymMOI:  orbitals are not symmetric.
 Spin components of T(2) and E(2):
     alpha-alpha T2 =       0.2420806566D-02 E2=     -0.8395814638D-02
     alpha-beta  T2 =       0.3063979422D-01 E2=     -0.1139075902D+00
     beta-beta   T2 =       0.2420806566D-02 E2=     -0.8395814638D-02
 ANorm=    0.1439084019D+01
 E2 =    -0.1306992194D+00 EUMP2 =    -0.39505307101473D+02
          IDoAtm=1111
 NEqPCM:  Using equilibrium solvation (IEInf=0, Eps=  78.3553, EpsInf=   1.7778)
          Differentiating once with respect to electric field.
                with respect to dipole field.
          Differentiating once with respect to nuclear coordinates.
          There are     1 degrees of freedom in the 1st order CPHF.  IDoFFX=0 NUNeed=     1.
 LinEq1:  Iter=  0 NonCon=     1 RMS=2.95D-03 Max=1.52D-02 NDo=     1
 AX will form     1 AO Fock derivatives at one time.
 LinEq1:  Iter=  1 NonCon=     1 RMS=4.60D-04 Max=2.06D-03 NDo=     1
 LinEq1:  Iter=  2 NonCon=     1 RMS=5.82D-05 Max=2.97D-04 NDo=     1
 LinEq1:  Iter=  3 NonCon=     1 RMS=5.14D-06 Max=2.51D-05 NDo=     1
 LinEq1:  Iter=  4 NonCon=     1 RMS=3.67D-07 Max=1.96D-06 NDo=     1
 LinEq1:  Iter=  5 NonCon=     1 RMS=2.75D-08 Max=1.55D-07 NDo=     1
 LinEq1:  Iter=  6 NonCon=     1 RMS=1.54D-09 Max=7.62D-09 NDo=     1
 LinEq1:  Iter=  7 NonCon=     1 RMS=1.05D-10 Max=5.35D-10 NDo=     1
 LinEq1:  Iter=  8 NonCon=     0 RMS=9.27D-12 Max=4.28D-11 NDo=     1
 Linear equations converged to 1.000D-10 1.000D-09 after     8 iterations.
 End of Minotr F.D. properties file   721 does not exist.
 End of Minotr F.D. properties file   722 does not exist.
 End of Minotr F.D. properties file   788 does not exist.
 Symmetrizing basis deriv contribution to polar:
 IMax=3 JMax=2 DiffMx= 0.00D+00
 G2DrvN: will do     5 centers at a time, making    1 passes.
 Calling FoFCou, ICntrl=  3107 FMM=F I1Cent=   0 AccDes= 0.00D+00.
 NEqPCM:  Using equilibrium solvation (IEInf=0, Eps=  78.3553, EpsInf=   1.7778)
 G2PCM: DoFxE=T DoFxN=F DoGrad=F DoDP/DQ/DG/TGxP=FFFF NFrqRd=   0 IEInf=0 SqF1=F DoCFld=F IF1Alg=4.
 End of G2Drv F.D. properties file   721 does not exist.
 End of G2Drv F.D. properties file   722 does not exist.
 End of G2Drv F.D. properties file   788 does not exist.
 R2 and R3 integrals will be kept in memory, NReq=     1314912.
 DD1Dir will call FoFMem   1 times, MxPair=        20
 NAB=    10 NAA=     0 NBB=     0.
 G2PCM: DoFxE=F DoFxN=F DoGrad=T DoDP/DQ/DG/TGxP=FFFF NFrqRd=   0 IEInf=0 SqF1=F DoCFld=F IF1Alg=4.
 Discarding MO integrals.

 **********************************************************************

            Population analysis using the SCF density.

 **********************************************************************

 Orbital symmetries:
       Occupied  (A) (A) (A) (A)
       Virtual   (A) (A) (A) (A) (A) (A) (A) (A) (A) (A) (A) (A)
                 (A) (A) (A) (A) (A) (A) (A) (A) (A) (A) (A) (A)
                 (A) (A) (A) (A) (A) (A) (A) (A)
 The electronic state is 1-A.
 Alpha  occ. eigenvalues --  -11.41421  -1.00875  -0.68294  -0.68290
 Alpha virt. eigenvalues --   -0.01299   0.15434   0.21496   0.21506   0.40987
 Alpha virt. eigenvalues --    0.41007   0.48574   0.57617   0.72952   0.72961
 Alpha virt. eigenvalues --    0.81258   1.20597   1.20617   1.55455   1.55486
 Alpha virt. eigenvalues --    1.58802   1.66605   1.83432   2.07824   2.07884
 Alpha virt. eigenvalues --    2.14400   2.14414   2.51457   2.64068   2.64073
 Alpha virt. eigenvalues --    2.86063   2.86069   2.91153   2.92559   3.99569
 Alpha virt. eigenvalues --    3.99653  24.86259
          Condensed to atoms (all electrons):
               1          2          3          4
     1  C    4.626652   0.383062   0.383136   0.383136
     2  H    0.383062   0.379836  -0.010735  -0.010735
     3  H    0.383136  -0.010735   0.379625  -0.010733
     4  H    0.383136  -0.010735  -0.010733   0.379625
 Mulliken charges:
               1
     1  C    0.224014
     2  H    0.258573
     3  H    0.258707
     4  H    0.258707
 Sum of Mulliken charges =   1.00000
 Mulliken charges with hydrogens summed into heavy atoms:
               1
     1  C    1.000000
 APT charges:
               1
     1  C    0.449883
     2  H    0.185026
     3  H    0.182545
     4  H    0.182545
 Sum of APT charges =   1.00000
 APT charges with hydrogens summed into heavy atoms:
               1
     1  C    1.000000
 Electronic spatial extent (au):  <R**2>=             22.5529
 Charge=              1.0000 electrons
 Dipole moment (field-independent basis, Debye):
    X=             -0.0013    Y=              0.0000    Z=              0.0000  Tot=              0.0013
 Quadrupole moment (field-independent basis, Debye-Ang):
   XX=             -4.1685   YY=             -4.1734   ZZ=             -5.0073
   XY=              0.0000   XZ=              0.0000   YZ=              0.0000
 Traceless Quadrupole moment (field-independent basis, Debye-Ang):
   XX=              0.2812   YY=              0.2763   ZZ=             -0.5575
   XY=              0.0000   XZ=              0.0000   YZ=              0.0000
 Octapole moment (field-independent basis, Debye-Ang**2):
  XXX=              1.6991  YYY=              0.0000  ZZZ=              0.0000  XYY=             -1.7013
  XXY=              0.0000  XXZ=              0.0000  XZZ=             -0.0008  YZZ=              0.0000
  YYZ=              0.0000  XYZ=              0.0000
 Hexadecapole moment (field-independent basis, Debye-Ang**3):
 XXXX=             -8.0947 YYYY=             -8.0965 ZZZZ=             -3.4179 XXXY=              0.0000
 XXXZ=              0.0000 YYYX=              0.0000 YYYZ=              0.0000 ZZZX=              0.0000
 ZZZY=              0.0000 XXYY=             -2.6978 XXZZ=             -2.5132 YYZZ=             -2.5118
 XXYZ=              0.0000 YYXZ=              0.0000 ZZXY=              0.0000
 N-N= 9.623683597729D+00 E-N=-1.071752835253D+02  KE= 3.920322535685D+01
  Exact polarizability:  11.239   0.000  11.229   0.000   0.000   5.476
 Approx polarizability:   7.427   0.000   7.421   0.000   0.000   4.551
 D2PCM: PCM CHGder 2nd derivatives, FixD1E=F FixD2E=F DoIter=F DoCFld=F I1PDM=2
 Calling FoFJK, ICntrl=  10100127 FMM=F ISym2X=0 I1Cent= 0 IOpClX= 0 NMat=1 NMatS=1 NMatT=0.
 Full mass-weighted force constant matrix:
 Low frequencies ---  -63.6768    0.0004    0.0004    0.0008   75.5280  116.2056
 Low frequencies --- 1436.3334 1436.8578 1448.4088
 Diagonal vibrational polarizability:
        0.4339915       0.4324968       0.1208251
 Harmonic frequencies (cm**-1), IR intensities (KM/Mole), Raman scattering
 activities (A**4/AMU), depolarization ratios for plane and unpolarized
 incident light, reduced masses (AMU), force constants (mDyne/A),
 and normal coordinates:
                      1                      2                      3
                      A                      A                      A
 Frequencies --   1436.3325              1436.8578              1448.4014
 Red. masses --      1.0971                 1.0978                 1.2356
 Frc consts  --      1.3336                 1.3354                 1.5272
 IR Inten    --     22.1669                21.9597                 9.4189
  Atom  AN      X      Y      Z        X      Y      Z        X      Y      Z
     1   6     0.00  -0.09   0.00     0.09   0.00   0.00     0.00   0.00   0.14
     2   1     0.00   0.81   0.00     0.09   0.00   0.00     0.00   0.00  -0.57
     3   1    -0.39   0.13   0.00    -0.58   0.39   0.00     0.00   0.00  -0.57
     4   1     0.39   0.13   0.00    -0.58  -0.39   0.00     0.00   0.00  -0.57
                      4                      5                      6
                      A                      A                      A
 Frequencies --   3156.0050              3370.7105              3374.2968
 Red. masses --      1.0078                 1.1235                 1.1228
 Frc consts  --      5.9145                 7.5209                 7.5319
 IR Inten    --      0.0027                60.5184                62.5090
  Atom  AN      X      Y      Z        X      Y      Z        X      Y      Z
     1   6     0.00   0.00   0.00     0.00   0.10   0.00     0.10   0.00   0.00
     2   1    -0.56   0.00   0.00     0.00   0.00   0.00    -0.82   0.00   0.00
     3   1     0.29   0.51   0.00    -0.35  -0.61   0.00    -0.20  -0.34   0.00
     4   1     0.29  -0.51   0.00     0.35  -0.61   0.00    -0.20   0.34   0.00

 -------------------
 - Thermochemistry -
 -------------------
 Temperature   298.150 Kelvin.  Pressure   1.00000 Atm.
 Atom     1 has atomic number  6 and mass  12.00000
 Atom     2 has atomic number  1 and mass   1.00783
 Atom     3 has atomic number  1 and mass   1.00783
 Atom     4 has atomic number  1 and mass   1.00783
 Molecular mass:    15.02348 amu.
 Principal axes and moments of inertia in atomic units:
                           1         2         3
     Eigenvalues --     6.35879   6.36814  12.72693
           X            1.00000   0.00000   0.00000
           Y            0.00000   1.00000   0.00000
           Z            0.00000   0.00000   1.00000
 This molecule is an asymmetric top.
 Rotational symmetry number  1.
 Rotational temperatures (Kelvin)     13.62111    13.60112     6.80555
 Rotational constants (GHZ):         283.81816   283.40165   141.80487
 Zero-point vibrational energy      85070.1 (Joules/Mol)
                                   20.33223 (Kcal/Mol)
 Vibrational temperatures:   2066.56  2067.32  2083.92  4540.78  4849.69
          (Kelvin)           4854.85
 
 Zero-point correction=                           0.032401 (Hartree/Particle)
 Thermal correction to Energy=                    0.035253
 Thermal correction to Enthalpy=                  0.036197
 Thermal correction to Gibbs Free Energy=         0.013333
 Sum of electronic and zero-point Energies=            -39.472906
 Sum of electronic and thermal Energies=               -39.470054
 Sum of electronic and thermal Enthalpies=             -39.469110
 Sum of electronic and thermal Free Energies=          -39.491974
 
                     E (Thermal)             CV                S
                      KCal/Mol        Cal/Mol-Kelvin    Cal/Mol-Kelvin
 Total                   22.122              6.238             48.121
 Electronic               0.000              0.000              0.000
 Translational            0.889              2.981             34.068
 Rotational               0.889              2.981             14.008
 Vibrational             20.344              0.277              0.045
                       Q            Log10(Q)             Ln(Q)
 Total Bot       0.736459D-06         -6.132851        -14.121412
 Total V=0       0.589876D+09          8.770761         20.195424
 Vib (Bot)       0.125209D-14        -14.902364        -34.313962
 Vib (V=0)       0.100288D+01          0.001248          0.002874
 Electronic      0.100000D+01          0.000000          0.000000
 Translational   0.228882D+07          6.359611         14.643545
 Rotational      0.256982D+03          2.409902          5.549004
 ***** Axes restored to original set *****
 -------------------------------------------------------------------
 Center     Atomic                   Forces (Hartrees/Bohr)
 Number     Number              X              Y              Z
 -------------------------------------------------------------------
      1        6          -0.000012346   -0.000021433    0.000057152
      2        1          -0.000039094   -0.000067739    0.000225504
      3        1           0.000215222   -0.000064822   -0.000141330
      4        1          -0.000163782    0.000153994   -0.000141325
 -------------------------------------------------------------------
 Cartesian Forces:  Max     0.000225504 RMS     0.000129697
 FormGI is forming the generalized inverse of G from B-inverse, IUseBI=4.

 GradGradGradGradGradGradGradGradGradGradGradGradGradGradGradGradGradGrad
 Berny optimization.
 Internal  Forces:  Max     0.000264726 RMS     0.000168321
 Search for a local minimum.
 Step number   1 out of a maximum of    2
 All quantities printed in internal units (Hartrees-Bohrs-Radians)
 Second derivative matrix not updated -- analytic derivatives used.
 The second derivative matrix:
                          R1        R2        R3        A1        A2
           R1           0.38503
           R2          -0.00206   0.38350
           R3          -0.00206  -0.00205   0.38350
           A1           0.00297   0.00228  -0.00602   0.06633
           A2           0.00297  -0.00602   0.00228  -0.03316   0.06633
           A3          -0.00594   0.00374   0.00374  -0.03318  -0.03318
           D1           0.00000   0.00000   0.00000   0.00000   0.00000
                          A3        D1
           A3           0.06635
           D1           0.00000   0.06742
 ITU=  0
     Eigenvalues ---    0.06742   0.09920   0.09925   0.37983   0.38579
     Eigenvalues ---    0.38697
 Angle between quadratic step and forces=  13.08 degrees.
 Linear search not attempted -- first point.
 Iteration  1 RMS(Cart)=  0.00045757 RMS(Int)=  0.00000005
 Iteration  2 RMS(Cart)=  0.00000005 RMS(Int)=  0.00000000
 Variable       Old X    -DE/DX   Delta X   Delta X   Delta X     New X
                                 (Linear)    (Quad)   (Total)
    R1        2.05226   0.00024   0.00000   0.00062   0.00062   2.05288
    R2        2.05138   0.00026   0.00000   0.00070   0.00070   2.05208
    R3        2.05138   0.00026   0.00000   0.00070   0.00070   2.05208
    A1        2.09478   0.00001   0.00000   0.00015   0.00015   2.09493
    A2        2.09478   0.00001   0.00000   0.00015   0.00015   2.09493
    A3        2.09362  -0.00003   0.00000  -0.00030  -0.00030   2.09332
    D1       -3.14156   0.00000   0.00000  -0.00004  -0.00004   3.14159
         Item               Value     Threshold  Converged?
 Maximum Force            0.000265     0.000450     YES
 RMS     Force            0.000168     0.000300     YES
 Maximum Displacement     0.000732     0.001800     YES
 RMS     Displacement     0.000458     0.001200     YES
 Predicted change in Energy=-2.662434D-07
 Optimization completed.
    -- Stationary point found.
                           ----------------------------
                           !   Optimized Parameters   !
                           ! (Angstroms and Degrees)  !
 --------------------------                            --------------------------
 ! Name  Definition              Value          Derivative Info.                !
 --------------------------------------------------------------------------------
 ! R1    R(1,2)                  1.086          -DE/DX =    0.0002              !
 ! R2    R(1,3)                  1.0855         -DE/DX =    0.0003              !
 ! R3    R(1,4)                  1.0855         -DE/DX =    0.0003              !
 ! A1    A(2,1,3)              120.0223         -DE/DX =    0.0                 !
 ! A2    A(2,1,4)              120.0223         -DE/DX =    0.0                 !
 ! A3    A(3,1,4)              119.9555         -DE/DX =    0.0                 !
 ! D1    D(2,1,4,3)            180.0022         -DE/DX =    0.0                 !
 --------------------------------------------------------------------------------
 GradGradGradGradGradGradGradGradGradGradGradGradGradGradGradGradGradGrad

 1\1\GINC-TC-NODE161\Freq\RMP2-Full\6-311G(d,p)\C1H3(1+)\MAXB2\25-Oct-2
 016\0\\#N Geom=AllCheck Guess=TCheck SCRF=Check GenChk RMP2-Full/6-311
 G(d,p) Freq\\Title Card Required\\1,1\C,0.1263247962,0.2188009665,0.08
 93954001\H,-0.054682443,-0.0947128048,1.1132916483\H,1.0308181242,-0.0
 943675537,-0.422683559\H,-0.5971337794,0.8455309028,-0.4226835602\\Ver
 sion=ES64L-G09RevD.01\State=1-A\HF=-39.3746079\MP2=-39.5053071\RMSD=1.
 526e-09\RMSF=1.297e-04\ZeroPoint=0.0324015\Thermal=0.0352529\Dipole=0.
 0000865,0.0001499,-0.000491\DipoleDeriv=0.4185385,0.1123342,0.0465167,
 0.1123343,0.5482507,0.0805696,0.0465163,0.0805693,0.3828608,0.1721976,
 -0.0220907,-0.0206608,-0.0220908,0.1466894,-0.0357853,-0.0206617,-0.03
 57875,0.2361924,0.2124676,-0.0404328,-0.0355055,-0.0407631,0.1446943,-
 0.009357,-0.0346893,-0.0098266,0.1904733,0.1967964,-0.0498108,0.009649
 6,-0.0494804,0.1603656,-0.0354273,0.0088346,-0.0349552,0.1904735\Polar
 =9.9511009,-2.2140781,7.3945036,-0.9056714,-1.5686688,10.5990479\PG=C0
 1 [X(C1H3)]\NImag=0\\0.55839606,-0.18153868,0.34877308,-0.07386860,-0.
 12794377,0.60958711,-0.07226278,-0.01559817,0.04955058,0.05107153,-0.0
 1559818,-0.09027365,0.08582327,0.00633577,0.05838710,0.04954999,0.0858
 2223,-0.34452763,-0.05709784,-0.09889550,0.34465126,-0.28228572,0.0759
 4856,0.12303412,0.00792637,0.00749076,0.00054527,0.27539121,0.07590171
 ,-0.09003058,-0.04295358,-0.00131054,0.01861253,0.00840070,-0.09139525
 ,0.05815472,0.12315183,-0.04302084,-0.13252970,0.02210279,-0.00404623,
 -0.00006182,-0.13568343,0.03861647,0.11844975,-0.20384757,0.12118829,-
 0.09871611,0.01326488,0.00177164,0.00700258,-0.00103186,0.01680408,-0.
 00957119,0.19161455,0.12123515,-0.16846885,0.08507408,0.01057294,0.013
 27403,0.00467257,0.00795593,0.01326333,0.00845061,-0.13976401,0.141931
 50,-0.09883322,0.08514238,-0.13252977,-0.01455553,0.01711845,-0.000061
 81,0.01210403,-0.00406359,0.01414178,0.10128472,-0.09819725,0.11844979
 \\0.00001235,0.00002143,-0.00005715,0.00003909,0.00006774,-0.00022550,
 -0.00021522,0.00006482,0.00014133,0.00016378,-0.00015399,0.00014132\\\
 @


 WE ARE PERHAPS NOT FAR REMOVED FROM THE TIME WHEN WE SHALL BE ABLE TO SUBMIT
 THE BULK OF CHEMICAL PHENOMENA TO CALCULATION.

            -- JOSEPH LOUIS GAY-LUSSAC
               MEMOIRES DE LA SOCIETE D'ARCUEIL, 2, 207 (1808)
 Job cpu time:       0 days  0 hours  1 minutes  2.3 seconds.
 File lengths (MBytes):  RWF=     21 Int=      0 D2E=      0 Chk=      3 Scr=      1
 Normal termination of Gaussian 09 at Tue Oct 25 12:09:21 2016.
