 Entering Gaussian System, Link 0=g09
 Initial command:
 /cluster/software/gaussian/gaussian-09-D.01/g09/l1.exe "/local/scratch/maxb2/Gau-30828.inp" -scrdir="/local/scratch/maxb2/"
 Entering Link 1 = /cluster/software/gaussian/gaussian-09-D.01/g09/l1.exe PID=     30829.
  
 Copyright (c) 1988,1990,1992,1993,1995,1998,2003,2009,2013,
            Gaussian, Inc.  All Rights Reserved.
  
 This is part of the Gaussian(R) 09 program.  It is based on
 the Gaussian(R) 03 system (copyright 2003, Gaussian, Inc.),
 the Gaussian(R) 98 system (copyright 1998, Gaussian, Inc.),
 the Gaussian(R) 94 system (copyright 1995, Gaussian, Inc.),
 the Gaussian 92(TM) system (copyright 1992, Gaussian, Inc.),
 the Gaussian 90(TM) system (copyright 1990, Gaussian, Inc.),
 the Gaussian 88(TM) system (copyright 1988, Gaussian, Inc.),
 the Gaussian 86(TM) system (copyright 1986, Carnegie Mellon
 University), and the Gaussian 82(TM) system (copyright 1983,
 Carnegie Mellon University). Gaussian is a federally registered
 trademark of Gaussian, Inc.
  
 This software contains proprietary and confidential information,
 including trade secrets, belonging to Gaussian, Inc.
  
 This software is provided under written license and may be
 used, copied, transmitted, or stored only in accord with that
 written license.
  
 The following legend is applicable only to US Government
 contracts under FAR:
  
                    RESTRICTED RIGHTS LEGEND
  
 Use, reproduction and disclosure by the US Government is
 subject to restrictions as set forth in subparagraphs (a)
 and (c) of the Commercial Computer Software - Restricted
 Rights clause in FAR 52.227-19.
  
 Gaussian, Inc.
 340 Quinnipiac St., Bldg. 40, Wallingford CT 06492
  
  
 ---------------------------------------------------------------
 Warning -- This program may not be used in any manner that
 competes with the business of Gaussian, Inc. or will provide
 assistance to any competitor of Gaussian, Inc.  The licensee
 of this program is prohibited from giving any competitor of
 Gaussian, Inc. access to this program.  By using this program,
 the user acknowledges that Gaussian, Inc. is engaged in the
 business of creating and licensing software in the field of
 computational chemistry and represents and warrants to the
 licensee that it is not a competitor of Gaussian, Inc. and that
 it will not use this program in any manner prohibited above.
 ---------------------------------------------------------------
  

 Cite this work as:
 Gaussian 09, Revision D.01,
 M. J. Frisch, G. W. Trucks, H. B. Schlegel, G. E. Scuseria, 
 M. A. Robb, J. R. Cheeseman, G. Scalmani, V. Barone, B. Mennucci, 
 G. A. Petersson, H. Nakatsuji, M. Caricato, X. Li, H. P. Hratchian, 
 A. F. Izmaylov, J. Bloino, G. Zheng, J. L. Sonnenberg, M. Hada, 
 M. Ehara, K. Toyota, R. Fukuda, J. Hasegawa, M. Ishida, T. Nakajima, 
 Y. Honda, O. Kitao, H. Nakai, T. Vreven, J. A. Montgomery, Jr., 
 J. E. Peralta, F. Ogliaro, M. Bearpark, J. J. Heyd, E. Brothers, 
 K. N. Kudin, V. N. Staroverov, T. Keith, R. Kobayashi, J. Normand, 
 K. Raghavachari, A. Rendell, J. C. Burant, S. S. Iyengar, J. Tomasi, 
 M. Cossi, N. Rega, J. M. Millam, M. Klene, J. E. Knox, J. B. Cross, 
 V. Bakken, C. Adamo, J. Jaramillo, R. Gomperts, R. E. Stratmann, 
 O. Yazyev, A. J. Austin, R. Cammi, C. Pomelli, J. W. Ochterski, 
 R. L. Martin, K. Morokuma, V. G. Zakrzewski, G. A. Voth, 
 P. Salvador, J. J. Dannenberg, S. Dapprich, A. D. Daniels, 
 O. Farkas, J. B. Foresman, J. V. Ortiz, J. Cioslowski, 
 and D. J. Fox, Gaussian, Inc., Wallingford CT, 2013.
 
 ******************************************
 Gaussian 09:  ES64L-G09RevD.01 24-Apr-2013
                25-Oct-2016 
 ******************************************
 %nprocshared=8
 Will use up to    8 processors via shared memory.
 %mem=4gb
 %chk=CH3smdspe
 %oldchk=CH3popt.chk
 Copying data from "CH3popt.chk" to current chk file "CH3smdspe.chk".
 -----------------------------------------------------------
 # mp2(full)/6-311g** scrf=(smd,solvent=water) geom=allcheck
 -----------------------------------------------------------
 1/29=7,38=1/1;
 2/12=2,40=1/2;
 3/5=4,6=6,7=101,11=9,14=-4,16=1,25=1,30=1,70=32201,72=1/1,2,3;
 4//1;
 5/5=2,38=5,53=1/2;
 8/10=90/1;
 9/16=-3/6;
 6/7=2,8=2,9=2,10=2/1;
 99/5=1,9=1/99;
 Structure from the checkpoint file:  "CH3smdspe.chk"
 -------------------
 Title Card Required
 -------------------
 Charge =  1 Multiplicity = 1
 Redundant internal coordinates found in file.
 C,0,0.1263390202,0.2188256037,0.0893351773
 H,0,-0.0554671919,-0.0960720111,1.1177241323
 H,0,1.03531135,-0.0960720004,-0.4248696958
 H,0,-0.6008564853,0.8485699215,-0.4248696846
 Recover connectivity data from disk.
                          Input orientation:                          
 ---------------------------------------------------------------------
 Center     Atomic      Atomic             Coordinates (Angstroms)
 Number     Number       Type             X           Y           Z
 ---------------------------------------------------------------------
      1          6           0        0.126339    0.218826    0.089335
      2          1           0       -0.055467   -0.096072    1.117724
      3          1           0        1.035311   -0.096072   -0.424870
      4          1           0       -0.600856    0.848570   -0.424870
 ---------------------------------------------------------------------
                    Distance matrix (angstroms):
                    1          2          3          4
     1  C    0.000000
     2  H    1.090779   0.000000
     3  H    1.090779   1.889284   0.000000
     4  H    1.090779   1.889284   1.889284   0.000000
 Stoichiometry    CH3(1+)
 Framework group  C3V[C3(C),3SGV(H)]
 Deg. of freedom     2
 Full point group                 C3V     NOp   6
 Largest Abelian subgroup         CS      NOp   2
 Largest concise Abelian subgroup CS      NOp   2
                         Standard orientation:                         
 ---------------------------------------------------------------------
 Center     Atomic      Atomic             Coordinates (Angstroms)
 Number     Number       Type             X           Y           Z
 ---------------------------------------------------------------------
      1          6           0        0.000000    0.000000   -0.000007
      2          1           0        0.000000    1.090779    0.000014
      3          1           0        0.944642   -0.545389    0.000014
      4          1           0       -0.944642   -0.545389    0.000014
 ---------------------------------------------------------------------
 Rotational constants (GHZ):    280.9749575    280.9749575    140.4874788
 Standard basis: 6-311G(d,p) (5D, 7F)
 There are    25 symmetry adapted cartesian basis functions of A'  symmetry.
 There are    12 symmetry adapted cartesian basis functions of A"  symmetry.
 There are    24 symmetry adapted basis functions of A'  symmetry.
 There are    12 symmetry adapted basis functions of A"  symmetry.
    36 basis functions,    56 primitive gaussians,    37 cartesian basis functions
     4 alpha electrons        4 beta electrons
       nuclear repulsion energy         9.5727510856 Hartrees.
 NAtoms=    4 NActive=    4 NUniq=    2 SFac= 4.00D+00 NAtFMM=   60 NAOKFM=F Big=F
 Integral buffers will be    131072 words long.
 Raffenetti 1 integral format.
 Two-electron integral symmetry is turned on.
 ------------------------------------------------------------------------------
 Polarizable Continuum Model (PCM)
 =================================
 Model                : PCM (using non-symmetric T matrix).
 Atomic radii         : SMD-Coulomb.
 Polarization charges : Total charges.
 Charge compensation  : None.
 Solution method      : On-the-fly selection.
 Cavity type          : VdW (van der Waals Surface) (Alpha=1.000).
 Cavity algorithm     : GePol (No added spheres)
                        Default sphere list used, NSphG=    4.
                        Lebedev-Laikov grids with approx.  5.0 points / Ang**2.
                        Smoothing algorithm: Karplus/York (Gamma=1.0000).
                        Polarization charges: spherical gaussians, with
                                              point-specific exponents (IZeta= 3).
                        Self-potential: point-specific (ISelfS= 7).
                        Self-field    : sphere-specific E.n sum rule (ISelfD= 2).
 Solvent              : Water, Eps=  78.355300 Eps(inf)=   1.777849
 ------------------------------------------------------------------------------
 Spheres list:
 ISph  on   Nord     Re0    Alpha      Xe            Ye            Ze
    1   C      1    1.8500  1.000      0.000000      0.000000     -0.000007
    2   H      2    1.2000  1.000      0.000000      1.090779      0.000014
    3   H      3    1.2000  1.000      0.944642     -0.545389      0.000014
    4   H      4    1.2000  1.000     -0.944642     -0.545389      0.000014
 ------------------------------------------------------------------------------
 ------------------------------------------------------------------------------
 Atomic radii for non-electrostatic terms: SMD-CDS.
 ------------------------------------------------------------------------------
 Nuclear repulsion after PCM non-electrostatic terms =        9.5789016109 Hartrees.
 One-electron integrals computed using PRISM.
 NBasis=    36 RedAO= T EigKep=  2.14D-02  NBF=    24    12
 NBsUse=    36 1.00D-06 EigRej= -1.00D+00 NBFU=    24    12
 ExpMin= 1.03D-01 ExpMax= 4.56D+03 ExpMxC= 6.82D+02 IAcc=1 IRadAn=         1 AccDes= 0.00D+00
 Harris functional with IExCor=  205 and IRadAn=       1 diagonalized for initial guess.
 HarFok:  IExCor=  205 AccDes= 0.00D+00 IRadAn=         1 IDoV= 1 UseB2=F ITyADJ=14
 ICtDFT=  3500011 ScaDFX=  1.000000  1.000000  1.000000  1.000000
 FoFCou: FMM=F IPFlag=           0 FMFlag=      100000 FMFlg1=           0
         NFxFlg=           0 DoJE=T BraDBF=F KetDBF=T FulRan=T
         wScrn=  0.000000 ICntrl=     500 IOpCl=  0 I1Cent=   200000004 NGrid=           0
         NMat0=    1 NMatS0=      1 NMatT0=    0 NMatD0=    1 NMtDS0=    0 NMtDT0=    0
 Petite list used in FoFCou.
 Initial guess orbital symmetries:
       Occupied  (?A) (?A) (?B) (?B)
       Virtual   (A1) (?A) (?B) (?B) (?B) (?B) (?A) (A1) (?B) (?B)
                 (?A) (E) (E) (?B) (?B) (?A) (?A) (A1) (?B) (?B)
                 (E) (E) (?A) (?B) (?B) (?B) (?B) (A1) (?A) (?B)
                 (?B) (?A)
 Keep R1 ints in memory in symmetry-blocked form, NReq=3282911.
 Requested convergence on RMS density matrix=1.00D-08 within 128 cycles.
 Requested convergence on MAX density matrix=1.00D-06.
 Requested convergence on             energy=1.00D-06.
 No special actions if energy rises.
 Inv3:  Mode=1 IEnd=      433200.
 Iteration    1 A*A^-1 deviation from unit magnitude is 2.89D-15 for    181.
 Iteration    1 A*A^-1 deviation from orthogonality  is 2.39D-15 for    342     41.
 Iteration    1 A^-1*A deviation from unit magnitude is 3.33D-15 for    181.
 Iteration    1 A^-1*A deviation from orthogonality  is 1.10D-15 for    379    359.
 Error on total polarization charges =  0.00756
 SCF Done:  E(RHF) =  -39.3743765226     A.U. after    8 cycles
            NFock=  8  Conv=0.33D-08     -V/T= 2.0049
 SMD-CDS (non-electrostatic) energy       (kcal/mol) =       3.86
 (included in total energy above)
 Range of M.O.s used for correlation:     1    36
 NBasis=    36 NAE=     4 NBE=     4 NFC=     0 NFV=     0
 NROrb=     36 NOA=     4 NOB=     4 NVA=    32 NVB=    32
 Fully in-core method, ICMem=     6593579.
 JobTyp=1 Pass  1 fully in-core, NPsUse=  8.
 Spin components of T(2) and E(2):
     alpha-alpha T2 =       0.2432908536D-02 E2=     -0.8404430398D-02
     alpha-beta  T2 =       0.3082444627D-01 E2=     -0.1140769046D+00
     beta-beta   T2 =       0.2432908536D-02 E2=     -0.8404430398D-02
 ANorm=    0.1017688687D+01
 E2 =    -0.1308857654D+00 EUMP2 =    -0.39505262287932D+02

 **********************************************************************

            Population analysis using the SCF density.

 **********************************************************************

 Orbital symmetries:
       Occupied  (?A) (?A) (?B) (?B)
       Virtual   (A1) (?A) (?B) (?B) (?B) (?B) (?A) (A1) (?B) (?B)
                 (?A) (?C) (?C) (?B) (?B) (?A) (?A) (A1) (?B) (?B)
                 (?C) (?C) (?A) (?B) (?B) (?B) (?B) (?A) (A1) (?B)
                 (?B) (?A)
 Unable to determine electronic state:  an orbital has unidentified symmetry.
 Alpha  occ. eigenvalues --  -11.41521  -1.00645  -0.68073  -0.68069
 Alpha virt. eigenvalues --   -0.01277   0.15366   0.21454   0.21459   0.40965
 Alpha virt. eigenvalues --    0.40967   0.48380   0.57627   0.72758   0.72759
 Alpha virt. eigenvalues --    0.81137   1.20564   1.20570   1.55331   1.55333
 Alpha virt. eigenvalues --    1.58520   1.66462   1.83061   2.07878   2.07883
 Alpha virt. eigenvalues --    2.14020   2.14026   2.51249   2.63630   2.63636
 Alpha virt. eigenvalues --    2.85253   2.85255   2.90607   2.92456   3.98617
 Alpha virt. eigenvalues --    3.98621  24.84948
          Condensed to atoms (all electrons):
               1          2          3          4
     1  C    4.633973   0.381981   0.381981   0.381981
     2  H    0.381981   0.379470  -0.010711  -0.010711
     3  H    0.381981  -0.010711   0.379470  -0.010711
     4  H    0.381981  -0.010711  -0.010711   0.379470
 Mulliken charges:
               1
     1  C    0.220084
     2  H    0.259972
     3  H    0.259972
     4  H    0.259972
 Sum of Mulliken charges =   1.00000
 Mulliken charges with hydrogens summed into heavy atoms:
               1
     1  C    1.000000
 Electronic spatial extent (au):  <R**2>=             22.6651
 Charge=              1.0000 electrons
 Dipole moment (field-independent basis, Debye):
    X=              0.0000    Y=              0.0000    Z=              0.0000  Tot=              0.0000
 Quadrupole moment (field-independent basis, Debye-Ang):
   XX=             -4.1582   YY=             -4.1582   ZZ=             -5.0245
   XY=              0.0000   XZ=              0.0000   YZ=              0.0000
 Traceless Quadrupole moment (field-independent basis, Debye-Ang):
   XX=              0.2888   YY=              0.2888   ZZ=             -0.5776
   XY=              0.0000   XZ=              0.0000   YZ=              0.0000
 Octapole moment (field-independent basis, Debye-Ang**2):
  XXX=              0.0000  YYY=              1.7308  ZZZ=              0.0000  XYY=              0.0000
  XXY=             -1.7308  XXZ=              0.0001  XZZ=              0.0000  YZZ=              0.0000
  YYZ=              0.0001  XYZ=              0.0000
 Hexadecapole moment (field-independent basis, Debye-Ang**3):
 XXXX=             -8.1254 YYYY=             -8.1254 ZZZZ=             -3.4418 XXXY=              0.0000
 XXXZ=              0.0000 YYYX=              0.0000 YYYZ=              0.0000 ZZZX=              0.0000
 ZZZY=              0.0000 XXYY=             -2.7085 XXZZ=             -2.5338 YYZZ=             -2.5338
 XXYZ=              0.0000 YYXZ=              0.0000 ZZXY=              0.0000
 N-N= 9.578901610903D+00 E-N=-1.070767430894D+02  KE= 3.918137597554D+01
 Symmetry A'   KE= 3.701054320832D+01
 Symmetry A"   KE= 2.170832767220D+00
 1\1\GINC-TC-NODE161\SP\RMP2-Full\6-311G(d,p)\C1H3(1+)\MAXB2\25-Oct-201
 6\0\\# mp2(full)/6-311g** scrf=(smd,solvent=water) geom=allcheck\\Titl
 e Card Required\\1,1\C,0,0.1263390202,0.2188256037,0.0893351773\H,0,-0
 .0554671919,-0.0960720111,1.1177241323\H,0,1.03531135,-0.0960720004,-0
 .4248696958\H,0,-0.6008564853,0.8485699215,-0.4248696846\\Version=ES64
 L-G09RevD.01\HF=-39.3743765\MP2=-39.5052623\RMSD=3.310e-09\PG=C03V [C3
 (C1),3SGV(H1)]\\@


 I MET A TRAVELLER FROM AN ANTIQUE LAND
 WHO SAID... TWO VAST AND TRUNKLESS LEGS OF STONE
 STAND IN THE DESERT..... NEAR THEM,  ON THE SAND,
 HALF SUNK,  A SHATTERED VISAGE LIES,  WHOSE FROWN,
 AND WRINKLED LIP,  AND SNEER OF COLD COMMAND
 TELL THAT ITS SCULPTOR WELL THOSE PASSIONS READ
 WHICH YET SURVIVE,  STAMPED ON THESE LIFELESS THINGS
 THE HAND THAT MOCKED THEM,  AND THE HEART THAT FED-
 AND ON THE PEDESTAL THESE WORDS APPEAR 
 MY NAME IS OZYMANDIAS, KING OF KINGS--   
 LOOK ON MY WORKS YE MIGHTY AND DESPAIR. 
 NOTHING BESIDE REMAINS,  ROUND THE DECAY 
 OF THAT COLOSSAL WRECK,  BOUNDLESS AND BARE
 THE LONE AND LEVEL SANDS STRETCH FAR AWAY.
                                    SHELLEY
 Job cpu time:       0 days  0 hours  0 minutes 16.3 seconds.
 File lengths (MBytes):  RWF=      5 Int=      0 D2E=      0 Chk=      2 Scr=      1
 Normal termination of Gaussian 09 at Tue Oct 25 12:09:24 2016.
