 Entering Link 1 = C:\G09W\l1.exe PID=      6044.
  
 Copyright (c) 1988,1990,1992,1993,1995,1998,2003,2009,2013,
            Gaussian, Inc.  All Rights Reserved.
  
 This is part of the Gaussian(R) 09 program.  It is based on
 the Gaussian(R) 03 system (copyright 2003, Gaussian, Inc.),
 the Gaussian(R) 98 system (copyright 1998, Gaussian, Inc.),
 the Gaussian(R) 94 system (copyright 1995, Gaussian, Inc.),
 the Gaussian 92(TM) system (copyright 1992, Gaussian, Inc.),
 the Gaussian 90(TM) system (copyright 1990, Gaussian, Inc.),
 the Gaussian 88(TM) system (copyright 1988, Gaussian, Inc.),
 the Gaussian 86(TM) system (copyright 1986, Carnegie Mellon
 University), and the Gaussian 82(TM) system (copyright 1983,
 Carnegie Mellon University). Gaussian is a federally registered
 trademark of Gaussian, Inc.
  
 This software contains proprietary and confidential information,
 including trade secrets, belonging to Gaussian, Inc.
  
 This software is provided under written license and may be
 used, copied, transmitted, or stored only in accord with that
 written license.
  
 The following legend is applicable only to US Government
 contracts under FAR:
  
                    RESTRICTED RIGHTS LEGEND
  
 Use, reproduction and disclosure by the US Government is
 subject to restrictions as set forth in subparagraphs (a)
 and (c) of the Commercial Computer Software - Restricted
 Rights clause in FAR 52.227-19.
  
 Gaussian, Inc.
 340 Quinnipiac St., Bldg. 40, Wallingford CT 06492
  
  
 ---------------------------------------------------------------
 Warning -- This program may not be used in any manner that
 competes with the business of Gaussian, Inc. or will provide
 assistance to any competitor of Gaussian, Inc.  The licensee
 of this program is prohibited from giving any competitor of
 Gaussian, Inc. access to this program.  By using this program,
 the user acknowledges that Gaussian, Inc. is engaged in the
 business of creating and licensing software in the field of
 computational chemistry and represents and warrants to the
 licensee that it is not a competitor of Gaussian, Inc. and that
 it will not use this program in any manner prohibited above.
 ---------------------------------------------------------------
  

 Cite this work as:
 Gaussian 09, Revision D.01,
 M. J. Frisch, G. W. Trucks, H. B. Schlegel, G. E. Scuseria, 
 M. A. Robb, J. R. Cheeseman, G. Scalmani, V. Barone, B. Mennucci, 
 G. A. Petersson, H. Nakatsuji, M. Caricato, X. Li, H. P. Hratchian, 
 A. F. Izmaylov, J. Bloino, G. Zheng, J. L. Sonnenberg, M. Hada, 
 M. Ehara, K. Toyota, R. Fukuda, J. Hasegawa, M. Ishida, T. Nakajima, 
 Y. Honda, O. Kitao, H. Nakai, T. Vreven, J. A. Montgomery, Jr., 
 J. E. Peralta, F. Ogliaro, M. Bearpark, J. J. Heyd, E. Brothers, 
 K. N. Kudin, V. N. Staroverov, T. Keith, R. Kobayashi, J. Normand, 
 K. Raghavachari, A. Rendell, J. C. Burant, S. S. Iyengar, J. Tomasi, 
 M. Cossi, N. Rega, J. M. Millam, M. Klene, J. E. Knox, J. B. Cross, 
 V. Bakken, C. Adamo, J. Jaramillo, R. Gomperts, R. E. Stratmann, 
 O. Yazyev, A. J. Austin, R. Cammi, C. Pomelli, J. W. Ochterski, 
 R. L. Martin, K. Morokuma, V. G. Zakrzewski, G. A. Voth, 
 P. Salvador, J. J. Dannenberg, S. Dapprich, A. D. Daniels, 
 O. Farkas, J. B. Foresman, J. V. Ortiz, J. Cioslowski, 
 and D. J. Fox, Gaussian, Inc., Wallingford CT, 2013.
 
 ******************************************
 Gaussian 09:  EM64W-G09RevD.01 13-Apr-2013
                24-Oct-2016 
 ******************************************
 %mem=6GB
 %nprocshared=4
 Will use up to    4 processors via shared memory.
 %chk=C:\Users\Robert\Desktop\h3c+-cbs4m.com.chk
 --------------------------
 # cbs-4m geom=connectivity
 --------------------------
 1/18=20,19=15,38=1,57=2/1,3;
 2/9=110,12=2,17=6,18=5,40=1/2;
 3/5=5,6=3,7=1,11=9,16=1,25=1,30=1,71=1/1,2,3;
 4//1;
 5/5=2,38=5/2;
 6/7=2,8=2,9=2,10=2,28=1/1;
 7//1,2,3,16;
 1/18=20,19=15/3(2);
 2/9=110/2;
 99//99;
 2/9=110/2;
 3/5=5,6=3,7=1,11=9,16=1,25=1,30=1,71=1/1,2,3;
 4/5=5,16=3,69=1/1;
 5/5=2,38=5/2;
 7//1,2,3,16;
 1/18=20,19=15/3(-5);
 2/9=110/2;
 6/7=2,8=2,9=2,10=2,19=2,28=1/1;
 99/9=1/99;
 -------------------
 Title Card Required
 -------------------
 Symbolic Z-matrix:
 Charge =  1 Multiplicity = 1
 C                     0.        0.       -0.00013 
 H                     0.        1.07171   0.00026 
 H                    -0.92812  -0.53585   0.00026 
 H                     0.92812  -0.53585   0.00026 
 

 GradGradGradGradGradGradGradGradGradGradGradGradGradGradGradGradGradGrad
 Berny optimization.
 Initialization pass.
                           ----------------------------
                           !    Initial Parameters    !
                           ! (Angstroms and Degrees)  !
 --------------------------                            --------------------------
 ! Name  Definition              Value          Derivative Info.                !
 --------------------------------------------------------------------------------
 ! R1    R(1,2)                  1.0717         estimate D2E/DX2                !
 ! R2    R(1,3)                  1.0717         estimate D2E/DX2                !
 ! R3    R(1,4)                  1.0717         estimate D2E/DX2                !
 ! A1    A(2,1,3)              120.0            estimate D2E/DX2                !
 ! A2    A(2,1,4)              120.0            estimate D2E/DX2                !
 ! A3    A(3,1,4)              120.0            estimate D2E/DX2                !
 ! D1    D(2,1,4,3)            179.9293         estimate D2E/DX2                !
 --------------------------------------------------------------------------------
 Trust Radius=3.00D-01 FncErr=1.00D-07 GrdErr=1.00D-07
 Number of steps in this run=     20 maximum allowed number of steps=    100.
 GradGradGradGradGradGradGradGradGradGradGradGradGradGradGradGradGradGrad

                          Input orientation:                          
 ---------------------------------------------------------------------
 Center     Atomic      Atomic             Coordinates (Angstroms)
 Number     Number       Type             X           Y           Z
 ---------------------------------------------------------------------
      1          6           0        0.000000    0.000000   -0.000127
      2          1           0        0.000000    1.071705    0.000255
      3          1           0       -0.928124   -0.535853    0.000255
      4          1           0        0.928124   -0.535853    0.000255
 ---------------------------------------------------------------------
                    Distance matrix (angstroms):
                    1          2          3          4
     1  C    0.000000
     2  H    1.071705   0.000000
     3  H    1.071706   1.856248   0.000000
     4  H    1.071706   1.856248   1.856248   0.000000
 Stoichiometry    CH3(1+)
 Framework group  C3[C3(C),X(H3)]
 Deg. of freedom     2
 Full point group                 C3      NOp   3
 Largest Abelian subgroup         C1      NOp   1
 Largest concise Abelian subgroup C1      NOp   1
                         Standard orientation:                         
 ---------------------------------------------------------------------
 Center     Atomic      Atomic             Coordinates (Angstroms)
 Number     Number       Type             X           Y           Z
 ---------------------------------------------------------------------
      1          6           0        0.000000    0.000000    0.000127
      2          1           0        0.000000    1.071705   -0.000255
      3          1           0        0.928124   -0.535853   -0.000255
      4          1           0       -0.928124   -0.535853   -0.000255
 ---------------------------------------------------------------------
 Rotational constants (GHZ):    291.0650779    291.0650779    145.5325685
 Standard basis: 3-21G* (6D, 7F)
 There are    15 symmetry adapted cartesian basis functions of A   symmetry.
 There are    15 symmetry adapted basis functions of A   symmetry.
    15 basis functions,    24 primitive gaussians,    15 cartesian basis functions
     4 alpha electrons        4 beta electrons
       nuclear repulsion energy         9.7431194951 Hartrees.
 NAtoms=    4 NActive=    4 NUniq=    2 SFac= 4.00D+00 NAtFMM=   60 NAOKFM=F Big=F
 Integral buffers will be    131072 words long.
 Raffenetti 1 integral format.
 Two-electron integral symmetry is turned on.
 One-electron integrals computed using PRISM.
 NBasis=    15 RedAO= T EigKep=  4.71D-02  NBF=    15
 NBsUse=    15 1.00D-06 EigRej= -1.00D+00 NBFU=    15
 ExpMin= 1.83D-01 ExpMax= 1.72D+02 ExpMxC= 1.72D+02 IAcc=1 IRadAn=         1 AccDes= 0.00D+00
 Harris functional with IExCor=  205 and IRadAn=       1 diagonalized for initial guess.
 HarFok:  IExCor=  205 AccDes= 0.00D+00 IRadAn=         1 IDoV= 1 UseB2=F ITyADJ=14
 ICtDFT=  3500011 ScaDFX=  1.000000  1.000000  1.000000  1.000000
 FoFCou: FMM=F IPFlag=           0 FMFlag=      100000 FMFlg1=           0
         NFxFlg=           0 DoJE=T BraDBF=F KetDBF=T FulRan=T
         wScrn=  0.000000 ICntrl=     500 IOpCl=  0 I1Cent=   200000004 NGrid=           0
         NMat0=    1 NMatS0=      1 NMatT0=    0 NMatD0=    1 NMtDS0=    0 NMtDT0=    0
 Petite list used in FoFCou.
 Initial guess orbital symmetries:
       Occupied  (A) (A) (E) (E)
       Virtual   (A) (A) (E) (E) (A) (E) (E) (A) (E) (E) (A)
 The electronic state of the initial guess is 1-A.
 Keep R1 ints in memory in canonical form, NReq=830674.
 Requested convergence on RMS density matrix=1.00D-08 within 128 cycles.
 Requested convergence on MAX density matrix=1.00D-06.
 Requested convergence on             energy=1.00D-06.
 No special actions if energy rises.
 SCF Done:  E(RHF) =  -39.0090565091     A.U. after    7 cycles
            NFock=  7  Conv=0.51D-08     -V/T= 2.0026

 **********************************************************************

            Population analysis using the SCF density.

 **********************************************************************

 Orbital symmetries:
       Occupied  (A) (A) (E) (E)
       Virtual   (A) (A) (E) (E) (E) (E) (A) (A) (E) (E) (A)
 The electronic state is 1-A.
 Alpha  occ. eigenvalues --  -11.62908  -1.28749  -0.96266  -0.96266
 Alpha virt. eigenvalues --   -0.28724   0.00062   0.05404   0.05404   0.58442
 Alpha virt. eigenvalues --    0.58442   0.63775   0.78051   1.01267   1.01267
 Alpha virt. eigenvalues --    1.35249
          Condensed to atoms (all electrons):
               1          2          3          4
     1  C    5.207990   0.323672   0.323672   0.323672
     2  H    0.323672   0.306476  -0.011575  -0.011575
     3  H    0.323672  -0.011575   0.306476  -0.011575
     4  H    0.323672  -0.011575  -0.011575   0.306476
 Mulliken charges:
               1
     1  C   -0.179007
     2  H    0.393002
     3  H    0.393002
     4  H    0.393002
 Sum of Mulliken charges =   1.00000
 Mulliken charges with hydrogens summed into heavy atoms:
               1
     1  C    1.000000
 Electronic spatial extent (au):  <R**2>=             22.7423
 Charge=              1.0000 electrons
 Dipole moment (field-independent basis, Debye):
    X=              0.0000    Y=              0.0000    Z=             -0.0001  Tot=              0.0001
 Quadrupole moment (field-independent basis, Debye-Ang):
   XX=             -4.3833   YY=             -4.3833   ZZ=             -5.2724
   XY=              0.0000   XZ=              0.0000   YZ=              0.0000
 Traceless Quadrupole moment (field-independent basis, Debye-Ang):
   XX=              0.2964   YY=              0.2964   ZZ=             -0.5927
   XY=              0.0000   XZ=              0.0000   YZ=              0.0000
 Octapole moment (field-independent basis, Debye-Ang**2):
  XXX=              0.0000  YYY=              1.6555  ZZZ=              0.0003  XYY=              0.0000
  XXY=             -1.6555  XXZ=             -0.0011  XZZ=              0.0000  YZZ=              0.0000
  YYZ=             -0.0011  XYZ=              0.0000
 Hexadecapole moment (field-independent basis, Debye-Ang**3):
 XXXX=             -8.2629 YYYY=             -8.2629 ZZZZ=             -3.9200 XXXY=              0.0000
 XXXZ=              0.0000 YYYX=              0.0000 YYYZ=             -0.0006 ZZZX=              0.0000
 ZZZY=              0.0000 XXYY=             -2.7543 XXZZ=             -2.5568 YYZZ=             -2.5568
 XXYZ=              0.0006 YYXZ=              0.0000 ZZXY=              0.0000
 N-N= 9.743119495054D+00 E-N=-1.067283980559D+02  KE= 3.890784609823D+01
 Calling FoFJK, ICntrl=      2127 FMM=F ISym2X=1 I1Cent= 0 IOpClX= 0 NMat=1 NMatS=1 NMatT=0.
 ***** Axes restored to original set *****
 -------------------------------------------------------------------
 Center     Atomic                   Forces (Hartrees/Bohr)
 Number     Number              X              Y              Z
 -------------------------------------------------------------------
      1        6           0.000000000    0.000000000    0.000145302
      2        1           0.000000000    0.004414404   -0.000048434
      3        1          -0.003822986   -0.002207202   -0.000048434
      4        1           0.003822986   -0.002207202   -0.000048434
 -------------------------------------------------------------------
 Cartesian Forces:  Max     0.004414404 RMS     0.002207733

 GradGradGradGradGradGradGradGradGradGradGradGradGradGradGradGradGradGrad
 Berny optimization.
 FormGI is forming the generalized inverse of G from B-inverse, IUseBI=4.
 Internal  Forces:  Max     0.004414386 RMS     0.002890084
 Search for a local minimum.
 Step number   1 out of a maximum of   20
 All quantities printed in internal units (Hartrees-Bohrs-Radians)
 Mixed Optimization -- RFO/linear search
 Second derivative matrix not updated -- first step.
 The second derivative matrix:
                          R1        R2        R3        A1        A2
           R1           0.37015
           R2           0.00000   0.37015
           R3           0.00000   0.00000   0.37015
           A1           0.00000   0.00000   0.00000   0.16000
           A2           0.00000   0.00000   0.00000   0.00000   0.16000
           A3           0.00000   0.00000   0.00000   0.00000   0.00000
           D1           0.00000   0.00000   0.00000   0.00000   0.00000
                          A3        D1
           A3           0.16000
           D1           0.00000   0.00477
 ITU=  0
     Eigenvalues ---    0.00477   0.16000   0.16000   0.37015   0.37015
     Eigenvalues ---    0.37015
 RFO step:  Lambda=-1.59428277D-04 EMin= 4.76841383D-03
 Linear search not attempted -- first point.
 Iteration  1 RMS(Cart)=  0.00851648 RMS(Int)=  0.00005240
 Iteration  2 RMS(Cart)=  0.00002663 RMS(Int)=  0.00002993
 Iteration  3 RMS(Cart)=  0.00000000 RMS(Int)=  0.00002993
 ClnCor:  largest displacement from symmetrization is 3.37D-07 for atom     3.
 Variable       Old X    -DE/DX   Delta X   Delta X   Delta X     New X
                                 (Linear)    (Quad)   (Total)
    R1        2.02523   0.00441   0.00000   0.01192   0.01192   2.03715
    R2        2.02523   0.00441   0.00000   0.01192   0.01192   2.03715
    R3        2.02523   0.00441   0.00000   0.01192   0.01192   2.03715
    A1        2.09439   0.00000   0.00000   0.00001  -0.00004   2.09436
    A2        2.09439   0.00000   0.00000   0.00001  -0.00004   2.09436
    A3        2.09439   0.00000   0.00000   0.00001  -0.00004   2.09436
    D1        3.14036   0.00009   0.00000   0.01780   0.01780  -3.12503
         Item               Value     Threshold  Converged?
 Maximum Force            0.004414     0.000450     NO 
 RMS     Force            0.002890     0.000300     NO 
 Maximum Displacement     0.011897     0.001800     NO 
 RMS     Displacement     0.008508     0.001200     NO 
 Predicted change in Energy=-7.977305D-05
 GradGradGradGradGradGradGradGradGradGradGradGradGradGradGradGradGradGrad

                          Input orientation:                          
 ---------------------------------------------------------------------
 Center     Atomic      Atomic             Coordinates (Angstroms)
 Number     Number       Type             X           Y           Z
 ---------------------------------------------------------------------
      1          6           0        0.000000    0.000000    0.004025
      2          1           0        0.000000    1.078001   -0.001129
      3          1           0       -0.933576   -0.539001   -0.001129
      4          1           0        0.933576   -0.539001   -0.001129
 ---------------------------------------------------------------------
                    Distance matrix (angstroms):
                    1          2          3          4
     1  C    0.000000
     2  H    1.078013   0.000000
     3  H    1.078013   1.867152   0.000000
     4  H    1.078013   1.867152   1.867152   0.000000
 Stoichiometry    CH3(1+)
 Framework group  C3V[C3(C),3SGV(H)]
 Deg. of freedom     2
 Full point group                 C3V     NOp   6
 Omega: Change in point group or standard orientation.

 Old FWG=C03  [C3(C1),X(H3)]
 New FWG=C03V [C3(C1),3SGV(H1)]
 Largest Abelian subgroup         CS      NOp   2
 Largest concise Abelian subgroup CS      NOp   2
                         Standard orientation:                         
 ---------------------------------------------------------------------
 Center     Atomic      Atomic             Coordinates (Angstroms)
 Number     Number       Type             X           Y           Z
 ---------------------------------------------------------------------
      1          6           0        0.000000    0.000000   -0.001718
      2          1           0        0.000000    1.078001    0.003436
      3          1           0        0.933576   -0.539000    0.003436
      4          1           0       -0.933576   -0.539000    0.003436
 ---------------------------------------------------------------------
 Rotational constants (GHZ):    287.6647372    287.6647372    143.8376218
 Standard basis: 3-21G* (6D, 7F)
 There are    11 symmetry adapted cartesian basis functions of A'  symmetry.
 There are     4 symmetry adapted cartesian basis functions of A"  symmetry.
 There are    11 symmetry adapted basis functions of A'  symmetry.
 There are     4 symmetry adapted basis functions of A"  symmetry.
    15 basis functions,    24 primitive gaussians,    15 cartesian basis functions
     4 alpha electrons        4 beta electrons
       nuclear repulsion energy         9.6861162105 Hartrees.
 NAtoms=    4 NActive=    4 NUniq=    2 SFac= 4.00D+00 NAtFMM=   60 NAOKFM=F Big=F
 Integral buffers will be    131072 words long.
 Raffenetti 1 integral format.
 Two-electron integral symmetry is turned on.
 One-electron integrals computed using PRISM.
 NBasis=    15 RedAO= T EigKep=  5.66D-02  NBF=    11     4
 NBsUse=    15 1.00D-06 EigRej= -1.00D+00 NBFU=    11     4
 Initial guess from the checkpoint file:  "C:\Users\Robert\Desktop\h3c+-cbs4m.com.chk"
 B after Tr=     0.000000    0.000000    0.000000
         Rot=    1.000000    0.000000    0.000000    0.000000 Ang=   0.00 deg.
 Initial guess orbital symmetries:
       Occupied  (A1) (A1) (?A) (?A)
       Virtual   (?A) (?A) (?A) (?A) (?A) (?A) (A1) (?A) (?A) (?A)
                 (?A)
 Keep R1 ints in memory in symmetry-blocked form, NReq=831131.
 Requested convergence on RMS density matrix=1.00D-08 within 128 cycles.
 Requested convergence on MAX density matrix=1.00D-06.
 Requested convergence on             energy=1.00D-06.
 No special actions if energy rises.
 An orbital has undefined symmetry, so N**3 symmetry is turned off.
 SCF Done:  E(RHF) =  -39.0091195869     A.U. after    6 cycles
            NFock=  6  Conv=0.58D-08     -V/T= 2.0033
 Calling FoFJK, ICntrl=      2127 FMM=F ISym2X=1 I1Cent= 0 IOpClX= 0 NMat=1 NMatS=1 NMatT=0.
 ***** Axes restored to original set *****
 -------------------------------------------------------------------
 Center     Atomic                   Forces (Hartrees/Bohr)
 Number     Number              X              Y              Z
 -------------------------------------------------------------------
      1        6           0.000000000    0.000000000   -0.001996090
      2        1           0.000000000   -0.000313027    0.000665363
      3        1           0.000271089    0.000156514    0.000665363
      4        1          -0.000271089    0.000156514    0.000665363
 -------------------------------------------------------------------
 Cartesian Forces:  Max     0.001996090 RMS     0.000683524

 GradGradGradGradGradGradGradGradGradGradGradGradGradGradGradGradGradGrad
 Berny optimization.
 Using GEDIIS/GDIIS optimizer.
 FormGI is forming the generalized inverse of G from B-inverse, IUseBI=4.
 Internal  Forces:  Max     0.001171209 RMS     0.000488710
 Search for a local minimum.
 Step number   2 out of a maximum of   20
 All quantities printed in internal units (Hartrees-Bohrs-Radians)
 Mixed Optimization -- En-DIIS/RFO-DIIS
 Update second derivatives using D2CorX and points    1    2
 DE= -6.31D-05 DEPred=-7.98D-05 R= 7.91D-01
 TightC=F SS=  1.41D+00  RLast= 2.73D-02 DXNew= 5.0454D-01 8.1778D-02
 Trust test= 7.91D-01 RLast= 2.73D-02 DXMaxT set to 3.00D-01
 The second derivative matrix:
                          R1        R2        R3        A1        A2
           R1           0.36475
           R2          -0.00540   0.36475
           R3          -0.00540  -0.00540   0.36475
           A1           0.00022   0.00022   0.00022   0.16000
           A2          -0.00005  -0.00005  -0.00005   0.00000   0.16000
           A3          -0.00005  -0.00005  -0.00005   0.00000   0.00000
           D1           0.02874   0.02874   0.02874   0.00002  -0.00006
                          A3        D1
           A3           0.16000
           D1          -0.00006   0.01300
 ITU=  1  0
 Use linear search instead of GDIIS.
     Eigenvalues ---    0.00589   0.16000   0.16000   0.36106   0.37015
     Eigenvalues ---    0.37015
 RFO step:  Lambda=-1.91873106D-04 EMin= 5.89039750D-03
 Quartic linear search produced a step of -0.17030.
 Iteration  1 RMS(Cart)=  0.03544950 RMS(Int)=  0.00348364
 Iteration  2 RMS(Cart)=  0.00177315 RMS(Int)=  0.00298597
 Iteration  3 RMS(Cart)=  0.00000113 RMS(Int)=  0.00298597
 Iteration  4 RMS(Cart)=  0.00000000 RMS(Int)=  0.00298597
 ClnCor:  largest displacement from symmetrization is 5.23D-05 for atom     4.
 Variable       Old X    -DE/DX   Delta X   Delta X   Delta X     New X
                                 (Linear)    (Quad)   (Total)
    R1        2.03715  -0.00032  -0.00203   0.01556   0.01351   2.05066
    R2        2.03715  -0.00032  -0.00203   0.01556   0.01351   2.05066
    R3        2.03715  -0.00032  -0.00203   0.01556   0.01351   2.05066
    A1        2.09436   0.00000   0.00001   0.00080  -0.00370   2.09065
    A2        2.09436   0.00001   0.00001   0.00086  -0.00370   2.09065
    A3        2.09436   0.00001   0.00001   0.00086  -0.00370   2.09065
    D1       -3.12503  -0.00117  -0.00303  -0.17494  -0.17733   2.98083
         Item               Value     Threshold  Converged?
 Maximum Force            0.001171     0.000450     NO 
 RMS     Force            0.000489     0.000300     NO 
 Maximum Displacement     0.078837     0.001800     NO 
 RMS     Displacement     0.035195     0.001200     NO 
 Predicted change in Energy=-9.689462D-05
 GradGradGradGradGradGradGradGradGradGradGradGradGradGradGradGradGradGrad

                          Input orientation:                          
 ---------------------------------------------------------------------
 Center     Atomic      Atomic             Coordinates (Angstroms)
 Number     Number       Type             X           Y           Z
 ---------------------------------------------------------------------
      1          6           0        0.000000    0.000000   -0.037693
      2          1           0        0.000000    1.083987    0.012777
      3          1           0       -0.938760   -0.541994    0.012777
      4          1           0        0.938760   -0.541994    0.012777
 ---------------------------------------------------------------------
                    Distance matrix (angstroms):
                    1          2          3          4
     1  C    0.000000
     2  H    1.085161   0.000000
     3  H    1.085161   1.877521   0.000000
     4  H    1.085161   1.877521   1.877521   0.000000
 Stoichiometry    CH3(1+)
 Framework group  C3V[C3(C),3SGV(H)]
 Deg. of freedom     2
 Full point group                 C3V     NOp   6
 Largest Abelian subgroup         CS      NOp   2
 Largest concise Abelian subgroup CS      NOp   2
                         Standard orientation:                         
 ---------------------------------------------------------------------
 Center     Atomic      Atomic             Coordinates (Angstroms)
 Number     Number       Type             X           Y           Z
 ---------------------------------------------------------------------
      1          6           0        0.000000    0.000000    0.016824
      2          1           0        0.000000    1.083987   -0.033647
      3          1           0        0.938760   -0.541994   -0.033647
      4          1           0       -0.938760   -0.541994   -0.033647
 ---------------------------------------------------------------------
 Rotational constants (GHZ):    283.5248389    283.5248389    142.2533618
 Standard basis: 3-21G* (6D, 7F)
 There are    11 symmetry adapted cartesian basis functions of A'  symmetry.
 There are     4 symmetry adapted cartesian basis functions of A"  symmetry.
 There are    11 symmetry adapted basis functions of A'  symmetry.
 There are     4 symmetry adapted basis functions of A"  symmetry.
    15 basis functions,    24 primitive gaussians,    15 cartesian basis functions
     4 alpha electrons        4 beta electrons
       nuclear repulsion energy         9.6232172567 Hartrees.
 NAtoms=    4 NActive=    4 NUniq=    2 SFac= 4.00D+00 NAtFMM=   60 NAOKFM=F Big=F
 Integral buffers will be    131072 words long.
 Raffenetti 1 integral format.
 Two-electron integral symmetry is turned on.
 One-electron integrals computed using PRISM.
 NBasis=    15 RedAO= T EigKep=  5.75D-02  NBF=    11     4
 NBsUse=    15 1.00D-06 EigRej= -1.00D+00 NBFU=    11     4
 Initial guess from the checkpoint file:  "C:\Users\Robert\Desktop\h3c+-cbs4m.com.chk"
 B after Tr=     0.000000    0.000000    0.000000
         Rot=    1.000000    0.000000    0.000000    0.000000 Ang=   0.00 deg.
 Initial guess orbital symmetries:
       Occupied  (A1) (A1) (E) (E)
       Virtual   (?A) (?A) (?A) (?A) (?A) (?A) (?A) (?A) (?A) (?A)
                 (?A)
 ExpMin= 1.83D-01 ExpMax= 1.72D+02 ExpMxC= 1.72D+02 IAcc=1 IRadAn=         1 AccDes= 0.00D+00
 Harris functional with IExCor=  205 and IRadAn=       1 diagonalized for initial guess.
 HarFok:  IExCor=  205 AccDes= 0.00D+00 IRadAn=         1 IDoV= 1 UseB2=F ITyADJ=14
 ICtDFT=  3500011 ScaDFX=  1.000000  1.000000  1.000000  1.000000
 FoFCou: FMM=F IPFlag=           0 FMFlag=      100000 FMFlg1=           0
         NFxFlg=           0 DoJE=T BraDBF=F KetDBF=T FulRan=T
         wScrn=  0.000000 ICntrl=     500 IOpCl=  0 I1Cent=   200000004 NGrid=           0
         NMat0=    1 NMatS0=      1 NMatT0=    0 NMatD0=    1 NMtDS0=    0 NMtDT0=    0
 Petite list used in FoFCou.
 Keep R1 ints in memory in symmetry-blocked form, NReq=831131.
 Requested convergence on RMS density matrix=1.00D-08 within 128 cycles.
 Requested convergence on MAX density matrix=1.00D-06.
 Requested convergence on             energy=1.00D-06.
 No special actions if energy rises.
 SCF Done:  E(RHF) =  -39.0080976222     A.U. after    8 cycles
            NFock=  8  Conv=0.28D-09     -V/T= 2.0041
 Calling FoFJK, ICntrl=      2127 FMM=F ISym2X=1 I1Cent= 0 IOpClX= 0 NMat=1 NMatS=1 NMatT=0.
 ***** Axes restored to original set *****
 -------------------------------------------------------------------
 Center     Atomic                   Forces (Hartrees/Bohr)
 Number     Number              X              Y              Z
 -------------------------------------------------------------------
      1        6           0.000000000    0.000000000    0.019880543
      2        1           0.000000000   -0.005047118   -0.006626848
      3        1           0.004370932    0.002523559   -0.006626848
      4        1          -0.004370932    0.002523559   -0.006626848
 -------------------------------------------------------------------
 Cartesian Forces:  Max     0.019880543 RMS     0.007091083

 GradGradGradGradGradGradGradGradGradGradGradGradGradGradGradGradGradGrad
 Berny optimization.
 Using GEDIIS/GDIIS optimizer.
 FormGI is forming the generalized inverse of G from B-inverse, IUseBI=4.
 Internal  Forces:  Max     0.011350374 RMS     0.005558613
 Search for a local minimum.
 Step number   3 out of a maximum of   20
 All quantities printed in internal units (Hartrees-Bohrs-Radians)
 Mixed Optimization -- RFO/linear search
 Update second derivatives using D2CorX and points    1    3    2
 DE=  1.02D-03 DEPred=-9.69D-05 R=-1.05D+01
 Trust test=-1.05D+01 RLast= 1.79D-01 DXMaxT set to 1.50D-01
 The second derivative matrix:
                          R1        R2        R3        A1        A2
           R1           0.37467
           R2           0.00451   0.37467
           R3           0.00451   0.00451   0.37467
           A1          -0.00038  -0.00038  -0.00038   0.15826
           A2          -0.00281  -0.00281  -0.00281  -0.00181   0.15857
           A3          -0.00281  -0.00281  -0.00281  -0.00181  -0.00143
           D1           0.00097   0.00097   0.00097  -0.00426   0.00105
                          A3        D1
           A3           0.15857
           D1           0.00105   0.07088
 ITU= -1  1  0
 Use linear search instead of GDIIS.
     Eigenvalues ---    0.07100   0.16000   0.16046   0.37015   0.37015
     Eigenvalues ---    0.38376
 RFO step:  Lambda=-4.41495808D-06 EMin= 7.10042987D-02
 Quartic linear search produced a step of -0.92013.
 Iteration  1 RMS(Cart)=  0.03193701 RMS(Int)=  0.00154164
 Iteration  2 RMS(Cart)=  0.00151366 RMS(Int)=  0.00028614
 Iteration  3 RMS(Cart)=  0.00000003 RMS(Int)=  0.00028614
 ClnCor:  largest displacement from symmetrization is 2.57D-04 for atom     4.
 Variable       Old X    -DE/DX   Delta X   Delta X   Delta X     New X
                                 (Linear)    (Quad)   (Total)
    R1        2.05066  -0.00535  -0.01243  -0.00187  -0.01438   2.03628
    R2        2.05066  -0.00535  -0.01243  -0.00187  -0.01438   2.03628
    R3        2.05066  -0.00535  -0.01243  -0.00187  -0.01438   2.03628
    A1        2.09065  -0.00017   0.00341  -0.00049   0.00374   2.09440
    A2        2.09065   0.00088   0.00341   0.00009   0.00374   2.09440
    A3        2.09065   0.00088   0.00341   0.00009   0.00374   2.09440
    D1        2.98083   0.01135   0.16317  -0.00221   0.16095  -3.14141
         Item               Value     Threshold  Converged?
 Maximum Force            0.011350     0.000450     NO 
 RMS     Force            0.005559     0.000300     NO 
 Maximum Displacement     0.071614     0.001800     NO 
 RMS     Displacement     0.032252     0.001200     NO 
 Predicted change in Energy=-8.394884D-06
 GradGradGradGradGradGradGradGradGradGradGradGradGradGradGradGradGradGrad

                          Input orientation:                          
 ---------------------------------------------------------------------
 Center     Atomic      Atomic             Coordinates (Angstroms)
 Number     Number       Type             X           Y           Z
 ---------------------------------------------------------------------
      1          6           0        0.000000    0.000000    0.000203
      2          1           0        0.000000    1.077551    0.000146
      3          1           0       -0.933187   -0.538776    0.000146
      4          1           0        0.933187   -0.538776    0.000146
 ---------------------------------------------------------------------
                    Distance matrix (angstroms):
                    1          2          3          4
     1  C    0.000000
     2  H    1.077551   0.000000
     3  H    1.077551   1.866374   0.000000
     4  H    1.077551   1.866374   1.866374   0.000000
 Stoichiometry    CH3(1+)
 Framework group  C3V[C3(C),3SGV(H)]
 Deg. of freedom     2
 Full point group                 C3V     NOp   6
 Largest Abelian subgroup         CS      NOp   2
 Largest concise Abelian subgroup CS      NOp   2
                         Standard orientation:                         
 ---------------------------------------------------------------------
 Center     Atomic      Atomic             Coordinates (Angstroms)
 Number     Number       Type             X           Y           Z
 ---------------------------------------------------------------------
      1          6           0        0.000000    0.000000   -0.000019
      2          1           0        0.000000    1.077551    0.000038
      3          1           0        0.933187   -0.538776    0.000038
      4          1           0       -0.933187   -0.538776    0.000038
 ---------------------------------------------------------------------
 Rotational constants (GHZ):    287.9153563    287.9153563    143.9576788
 Standard basis: 3-21G* (6D, 7F)
 There are    11 symmetry adapted cartesian basis functions of A'  symmetry.
 There are     4 symmetry adapted cartesian basis functions of A"  symmetry.
 There are    11 symmetry adapted basis functions of A'  symmetry.
 There are     4 symmetry adapted basis functions of A"  symmetry.
    15 basis functions,    24 primitive gaussians,    15 cartesian basis functions
     4 alpha electrons        4 beta electrons
       nuclear repulsion energy         9.6902587582 Hartrees.
 NAtoms=    4 NActive=    4 NUniq=    2 SFac= 4.00D+00 NAtFMM=   60 NAOKFM=F Big=F
 Integral buffers will be    131072 words long.
 Raffenetti 1 integral format.
 Two-electron integral symmetry is turned on.
 One-electron integrals computed using PRISM.
 NBasis=    15 RedAO= T EigKep=  5.66D-02  NBF=    11     4
 NBsUse=    15 1.00D-06 EigRej= -1.00D+00 NBFU=    11     4
 Lowest energy guess from the checkpoint file:  "C:\Users\Robert\Desktop\h3c+-cbs4m.com.chk"
 B after Tr=     0.000000    0.000000    0.000000
         Rot=    1.000000    0.000000    0.000000    0.000000 Ang=   0.00 deg.
 B after Tr=     0.000000    0.000000    0.000000
         Rot=    1.000000    0.000000    0.000000    0.000000 Ang=   0.00 deg.
 Initial guess orbital symmetries:
       Occupied  (A1) (?A) (?A) (A1)
       Virtual   (A1) (?A) (?A) (A1) (?A) (?A) (?A) (?A) (?A) (?A)
                 (?A)
 Keep R1 ints in memory in symmetry-blocked form, NReq=831131.
 Requested convergence on RMS density matrix=1.00D-08 within 128 cycles.
 Requested convergence on MAX density matrix=1.00D-06.
 Requested convergence on             energy=1.00D-06.
 No special actions if energy rises.
 An orbital has undefined symmetry, so N**3 symmetry is turned off.
 SCF Done:  E(RHF) =  -39.0091296710     A.U. after    6 cycles
            NFock=  6  Conv=0.11D-08     -V/T= 2.0033
 Calling FoFJK, ICntrl=      2127 FMM=F ISym2X=1 I1Cent= 0 IOpClX= 0 NMat=1 NMatS=1 NMatT=0.
 ***** Axes restored to original set *****
 -------------------------------------------------------------------
 Center     Atomic                   Forces (Hartrees/Bohr)
 Number     Number              X              Y              Z
 -------------------------------------------------------------------
      1        6           0.000000000    0.000000000   -0.000021924
      2        1           0.000000000    0.000023005    0.000007308
      3        1          -0.000019923   -0.000011503    0.000007308
      4        1           0.000019923   -0.000011503    0.000007308
 -------------------------------------------------------------------
 Cartesian Forces:  Max     0.000023005 RMS     0.000013628

 GradGradGradGradGradGradGradGradGradGradGradGradGradGradGradGradGradGrad
 Berny optimization.
 Using GEDIIS/GDIIS optimizer.
 FormGI is forming the generalized inverse of G from B-inverse, IUseBI=4.
 Internal  Forces:  Max     0.000023005 RMS     0.000015828
 Search for a local minimum.
 Step number   4 out of a maximum of   20
 All quantities printed in internal units (Hartrees-Bohrs-Radians)
 Mixed Optimization -- En-DIIS/RFO-DIIS
 Update second derivatives using D2CorX and points    1    3    2    4
 DE= -1.01D-05 DEPred=-8.39D-06 R= 1.20D+00
 TightC=F SS=  1.41D+00  RLast= 1.65D-02 DXNew= 2.5227D-01 4.9352D-02
 Trust test= 1.20D+00 RLast= 1.65D-02 DXMaxT set to 1.50D-01
 The second derivative matrix:
                          R1        R2        R3        A1        A2
           R1           0.37655
           R2           0.00640   0.37655
           R3           0.00640   0.00640   0.37655
           A1           0.00182   0.00182   0.00182   0.15794
           A2          -0.00083  -0.00083  -0.00083  -0.00176   0.15859
           A3          -0.00083  -0.00083  -0.00083  -0.00176  -0.00141
           D1          -0.00004  -0.00004  -0.00004   0.00020  -0.00006
                          A3        D1
           A3           0.15859
           D1          -0.00006   0.07072
 ITU=  1 -1  1  0
 Use linear search instead of GDIIS.
     Eigenvalues ---    0.07072   0.15998   0.16000   0.37015   0.37015
     Eigenvalues ---    0.38942
 RFO step:  Lambda= 0.00000000D+00 EMin= 7.07180196D-02
 Quartic linear search produced a step of  0.00759.
 Iteration  1 RMS(Cart)=  0.00005219 RMS(Int)=  0.00000020
 Iteration  2 RMS(Cart)=  0.00000000 RMS(Int)=  0.00000020
 ClnCor:  largest displacement from symmetrization is 1.17D-06 for atom     4.
 Variable       Old X    -DE/DX   Delta X   Delta X   Delta X     New X
                                 (Linear)    (Quad)   (Total)
    R1        2.03628   0.00002  -0.00001   0.00007   0.00006   2.03634
    R2        2.03628   0.00002  -0.00001   0.00007   0.00006   2.03634
    R3        2.03628   0.00002  -0.00001   0.00007   0.00006   2.03634
    A1        2.09440   0.00000   0.00000   0.00000   0.00000   2.09440
    A2        2.09440   0.00000   0.00000   0.00000   0.00000   2.09440
    A3        2.09440   0.00000   0.00000   0.00000   0.00000   2.09440
    D1       -3.14141  -0.00001  -0.00012  -0.00006  -0.00018  -3.14159
         Item               Value     Threshold  Converged?
 Maximum Force            0.000023     0.000450     YES
 RMS     Force            0.000016     0.000300     YES
 Maximum Displacement     0.000080     0.001800     YES
 RMS     Displacement     0.000052     0.001200     YES
 Predicted change in Energy=-3.212075D-09
 Optimization completed.
    -- Stationary point found.
                           ----------------------------
                           !   Optimized Parameters   !
                           ! (Angstroms and Degrees)  !
 --------------------------                            --------------------------
 ! Name  Definition              Value          Derivative Info.                !
 --------------------------------------------------------------------------------
 ! R1    R(1,2)                  1.0776         -DE/DX =    0.0                 !
 ! R2    R(1,3)                  1.0776         -DE/DX =    0.0                 !
 ! R3    R(1,4)                  1.0776         -DE/DX =    0.0                 !
 ! A1    A(2,1,3)              120.0            -DE/DX =    0.0                 !
 ! A2    A(2,1,4)              120.0            -DE/DX =    0.0                 !
 ! A3    A(3,1,4)              120.0            -DE/DX =    0.0                 !
 ! D1    D(2,1,4,3)           -179.9896         -DE/DX =    0.0                 !
 --------------------------------------------------------------------------------
 GradGradGradGradGradGradGradGradGradGradGradGradGradGradGradGradGradGrad

                          Input orientation:                          
 ---------------------------------------------------------------------
 Center     Atomic      Atomic             Coordinates (Angstroms)
 Number     Number       Type             X           Y           Z
 ---------------------------------------------------------------------
      1          6           0        0.000000    0.000000    0.000203
      2          1           0        0.000000    1.077551    0.000146
      3          1           0       -0.933187   -0.538776    0.000146
      4          1           0        0.933187   -0.538776    0.000146
 ---------------------------------------------------------------------
                    Distance matrix (angstroms):
                    1          2          3          4
     1  C    0.000000
     2  H    1.077551   0.000000
     3  H    1.077551   1.866374   0.000000
     4  H    1.077551   1.866374   1.866374   0.000000
 Stoichiometry    CH3(1+)
 Framework group  C3V[C3(C),3SGV(H)]
 Deg. of freedom     2
 Full point group                 C3V     NOp   6
 Largest Abelian subgroup         CS      NOp   2
 Largest concise Abelian subgroup CS      NOp   2
                         Standard orientation:                         
 ---------------------------------------------------------------------
 Center     Atomic      Atomic             Coordinates (Angstroms)
 Number     Number       Type             X           Y           Z
 ---------------------------------------------------------------------
      1          6           0        0.000000    0.000000   -0.000019
      2          1           0        0.000000    1.077551    0.000038
      3          1           0        0.933187   -0.538776    0.000038
      4          1           0       -0.933187   -0.538776    0.000038
 ---------------------------------------------------------------------
 Rotational constants (GHZ):    287.9153563    287.9153563    143.9576788

 **********************************************************************

            Population analysis using the SCF density.

 **********************************************************************

 Orbital symmetries:
       Occupied  (A1) (A1) (?A) (?A)
       Virtual   (A1) (A1) (?A) (?A) (?A) (?A) (A1) (A1) (?A) (?A)
                 (A1)
 Unable to determine electronic state:  an orbital has unidentified symmetry.
 Alpha  occ. eigenvalues --  -11.63000  -1.28463  -0.95986  -0.95986
 Alpha virt. eigenvalues --   -0.28677  -0.00159   0.05231   0.05231   0.58828
 Alpha virt. eigenvalues --    0.58828   0.63790   0.77974   1.00758   1.00758
 Alpha virt. eigenvalues --    1.34917
          Condensed to atoms (all electrons):
               1          2          3          4
     1  C    5.212230   0.322871   0.322871   0.322871
     2  H    0.322871   0.306449  -0.011467  -0.011467
     3  H    0.322871  -0.011467   0.306449  -0.011467
     4  H    0.322871  -0.011467  -0.011467   0.306449
 Mulliken charges:
               1
     1  C   -0.180843
     2  H    0.393614
     3  H    0.393614
     4  H    0.393614
 Sum of Mulliken charges =   1.00000
 Mulliken charges with hydrogens summed into heavy atoms:
               1
     1  C    1.000000
 Electronic spatial extent (au):  <R**2>=             22.8746
 Charge=              1.0000 electrons
 Dipole moment (field-independent basis, Debye):
    X=              0.0000    Y=              0.0000    Z=              0.0000  Tot=              0.0000
 Quadrupole moment (field-independent basis, Debye-Ang):
   XX=             -4.3698   YY=             -4.3698   ZZ=             -5.2963
   XY=              0.0000   XZ=              0.0000   YZ=              0.0000
 Traceless Quadrupole moment (field-independent basis, Debye-Ang):
   XX=              0.3088   YY=              0.3088   ZZ=             -0.6176
   XY=              0.0000   XZ=              0.0000   YZ=              0.0000
 Octapole moment (field-independent basis, Debye-Ang**2):
  XXX=              0.0000  YYY=              1.6915  ZZZ=              0.0000  XYY=              0.0000
  XXY=             -1.6915  XXZ=              0.0002  XZZ=              0.0000  YZZ=              0.0000
  YYZ=              0.0002  XYZ=              0.0000
 Hexadecapole moment (field-independent basis, Debye-Ang**3):
 XXXX=             -8.2992 YYYY=             -8.2992 ZZZZ=             -3.9513 XXXY=              0.0000
 XXXZ=              0.0000 YYYX=              0.0000 YYYZ=              0.0001 ZZZX=              0.0000
 ZZZY=              0.0000 XXYY=             -2.7664 XXZZ=             -2.5817 YYZZ=             -2.5817
 XXYZ=             -0.0001 YYXZ=              0.0000 ZZXY=              0.0000
 N-N= 9.690258758196D+00 E-N=-1.066120573588D+02  KE= 3.888198463194D+01
 Symmetry A'   KE= 3.670997261616D+01
 Symmetry A"   KE= 2.172012015778D+00
 1|1|UNPC-KING|FOpt|RHF|3-21G*|C1H3(1+)|ROBERT|24-Oct-2016|0||# cbs-4m 
 geom=connectivity||Title Card Required||1,1|C,0.,-0.0000001111,0.00020
 3066|H,-0.0000000891,1.077551254,0.0001463812|H,-0.9331868115,-0.53877
 58708,0.0001463812|H,0.9331869006,-0.5387757165,0.0001463812||Version=
 EM64W-G09RevD.01|HF=-39.0091297|RMSD=1.126e-009|RMSF=1.363e-005|Dipole
 =0.,0.,-0.0000054|Quadrupole=0.2295959,0.2295959,-0.4591918,0.,0.,0.|P
 G=C03V [C3(C1),3SGV(H1)]||@


 HERE WE GO......
 SLIDING DOWN THE RAZOR BLADE OF LIFE......
                                 TOM LEHRER
 Job cpu time:       0 days  0 hours  0 minutes 36.0 seconds.
 File lengths (MBytes):  RWF=      5 Int=      0 D2E=      0 Chk=      1 Scr=      1
 Normal termination of Gaussian 09 at Mon Oct 24 14:01:42 2016.
 Link1:  Proceeding to internal job step number  2.
 -------------------------------------------------------
 #N Geom=AllCheck Guess=TCheck SCRF=Check HF/3-21G* Freq
 -------------------------------------------------------
 1/10=4,29=7,30=1,38=1,40=1/1,3;
 2/12=2,40=1/2;
 3/5=5,7=1,11=9,14=-4,16=1,25=1,30=1,70=2,71=2,116=-2,140=1/1,2,3;
 4/5=101/1;
 5/5=2,98=1/2;
 8/6=4,10=90,11=11/1;
 10/13=10,15=4/2;
 11/6=3,8=1,9=11,15=111,16=1/1,2,10;
 10/6=1/2;
 6/7=2,8=2,9=2,10=2,18=1,28=1/1;
 7/8=1,10=1,25=1/1,2,3,16;
 1/10=4,30=1/3;
 99//99;
 Structure from the checkpoint file:  "C:\Users\Robert\Desktop\h3c+-cbs4m.com.chk"
 -------------------
 Title Card Required
 -------------------
 Charge =  1 Multiplicity = 1
 Redundant internal coordinates found in file.
 C,0,0.,-0.0000001111,0.000203066
 H,0,-0.0000000891,1.077551254,0.0001463812
 H,0,-0.9331868115,-0.5387758708,0.0001463812
 H,0,0.9331869006,-0.5387757165,0.0001463812
 Recover connectivity data from disk.

 GradGradGradGradGradGradGradGradGradGradGradGradGradGradGradGradGradGrad
 Berny optimization.
 Initialization pass.
                           ----------------------------
                           !    Initial Parameters    !
                           ! (Angstroms and Degrees)  !
 --------------------------                            --------------------------
 ! Name  Definition              Value          Derivative Info.                !
 --------------------------------------------------------------------------------
 ! R1    R(1,2)                  1.0776         calculate D2E/DX2 analytically  !
 ! R2    R(1,3)                  1.0776         calculate D2E/DX2 analytically  !
 ! R3    R(1,4)                  1.0776         calculate D2E/DX2 analytically  !
 ! A1    A(2,1,3)              120.0            calculate D2E/DX2 analytically  !
 ! A2    A(2,1,4)              120.0            calculate D2E/DX2 analytically  !
 ! A3    A(3,1,4)              120.0            calculate D2E/DX2 analytically  !
 ! D1    D(2,1,4,3)           -179.9896         calculate D2E/DX2 analytically  !
 --------------------------------------------------------------------------------
 Trust Radius=3.00D-01 FncErr=1.00D-07 GrdErr=1.00D-07
 Number of steps in this run=      2 maximum allowed number of steps=      2.
 GradGradGradGradGradGradGradGradGradGradGradGradGradGradGradGradGradGrad

                          Input orientation:                          
 ---------------------------------------------------------------------
 Center     Atomic      Atomic             Coordinates (Angstroms)
 Number     Number       Type             X           Y           Z
 ---------------------------------------------------------------------
      1          6           0        0.000000    0.000000    0.000203
      2          1           0        0.000000    1.077551    0.000146
      3          1           0       -0.933187   -0.538776    0.000146
      4          1           0        0.933187   -0.538776    0.000146
 ---------------------------------------------------------------------
                    Distance matrix (angstroms):
                    1          2          3          4
     1  C    0.000000
     2  H    1.077551   0.000000
     3  H    1.077551   1.866374   0.000000
     4  H    1.077551   1.866374   1.866374   0.000000
 Stoichiometry    CH3(1+)
 Framework group  C3V[C3(C),3SGV(H)]
 Deg. of freedom     2
 Full point group                 C3V     NOp   6
 Largest Abelian subgroup         CS      NOp   2
 Largest concise Abelian subgroup CS      NOp   2
                         Standard orientation:                         
 ---------------------------------------------------------------------
 Center     Atomic      Atomic             Coordinates (Angstroms)
 Number     Number       Type             X           Y           Z
 ---------------------------------------------------------------------
      1          6           0        0.000000    0.000000   -0.000019
      2          1           0        0.000000    1.077551    0.000038
      3          1           0        0.933187   -0.538776    0.000038
      4          1           0       -0.933187   -0.538776    0.000038
 ---------------------------------------------------------------------
 Rotational constants (GHZ):    287.9153563    287.9153563    143.9576788
 Standard basis: 3-21G* (6D, 7F)
 There are    11 symmetry adapted cartesian basis functions of A'  symmetry.
 There are     4 symmetry adapted cartesian basis functions of A"  symmetry.
 There are    11 symmetry adapted basis functions of A'  symmetry.
 There are     4 symmetry adapted basis functions of A"  symmetry.
    15 basis functions,    24 primitive gaussians,    15 cartesian basis functions
     4 alpha electrons        4 beta electrons
       nuclear repulsion energy         9.6902587582 Hartrees.
 NAtoms=    4 NActive=    4 NUniq=    2 SFac= 4.00D+00 NAtFMM=   60 NAOKFM=F Big=F
 Integral buffers will be    131072 words long.
 Raffenetti 1 integral format.
 Two-electron integral symmetry is turned on.
 One-electron integrals computed using PRISM.
 NBasis=    15 RedAO= T EigKep=  5.66D-02  NBF=    11     4
 NBsUse=    15 1.00D-06 EigRej= -1.00D+00 NBFU=    11     4
 Initial guess from the checkpoint file:  "C:\Users\Robert\Desktop\h3c+-cbs4m.com.chk"
 B after Tr=     0.000000    0.000000    0.000000
         Rot=    1.000000    0.000000    0.000000    0.000000 Ang=   0.00 deg.
 Initial guess orbital symmetries:
       Occupied  (A1) (A1) (?A) (?A)
       Virtual   (A1) (A1) (?A) (?A) (?A) (?A) (A1) (A1) (?A) (?A)
                 (A1)
 Keep R1 ints in memory in symmetry-blocked form, NReq=831131.
 Requested convergence on RMS density matrix=1.00D-08 within 128 cycles.
 Requested convergence on MAX density matrix=1.00D-06.
 Requested convergence on             energy=1.00D-06.
 No special actions if energy rises.
 An orbital has undefined symmetry, so N**3 symmetry is turned off.
 Skip diagonalization as Alpha Fock matrix is already diagonal.
 SCF Done:  E(RHF) =  -39.0091296710     A.U. after    1 cycles
            NFock=  1  Conv=0.22D-17     -V/T= 2.0033
 Range of M.O.s used for correlation:     1    15
 NBasis=    15 NAE=     4 NBE=     4 NFC=     0 NFV=     0
 NROrb=     15 NOA=     4 NOB=     4 NVA=    11 NVB=    11
          Differentiating once with respect to electric field.
                with respect to dipole field.
          Electric field/nuclear overlap derivatives assumed to be zero.
 Keep R1 ints in memory in canonical form, NReq=812159.
          There are     3 degrees of freedom in the 1st order CPHF.  IDoFFX=0 NUNeed=     3.
      3 vectors produced by pass  0 Test12= 1.47D-15 3.33D-08 XBig12= 1.62D+00 8.62D-01.
 AX will form     3 AO Fock derivatives at one time.
      3 vectors produced by pass  1 Test12= 1.47D-15 3.33D-08 XBig12= 1.42D-02 5.83D-02.
      3 vectors produced by pass  2 Test12= 1.47D-15 3.33D-08 XBig12= 4.16D-05 3.27D-03.
      3 vectors produced by pass  3 Test12= 1.47D-15 3.33D-08 XBig12= 1.70D-07 1.99D-04.
      3 vectors produced by pass  4 Test12= 1.47D-15 3.33D-08 XBig12= 1.05D-09 1.68D-05.
      2 vectors produced by pass  5 Test12= 1.47D-15 3.33D-08 XBig12= 4.72D-12 1.30D-06.
      2 vectors produced by pass  6 Test12= 1.47D-15 3.33D-08 XBig12= 6.65D-15 5.49D-08.
 InvSVY:  IOpt=1 It=  1 EMax= 3.38D-17
 Solved reduced A of dimension    19 with     3 vectors.
 End of Minotr F.D. properties file   721 does not exist.
 End of Minotr F.D. properties file   722 does not exist.
 End of Minotr F.D. properties file   788 does not exist.
 Symmetrizing basis deriv contribution to polar:
 IMax=3 JMax=2 DiffMx= 0.00D+00
 G2DrvN: will do     5 centers at a time, making    1 passes.
 PxScal for G2LodP:  IOpCl= 0 ISclPx=1 IMOff=     1 NMtTot=     4 NTT=     120 ScalPx= 1.07D+00
 Calling FoFCou, ICntrl=  3107 FMM=F I1Cent=   0 AccDes= 0.00D+00.
 End of G2Drv F.D. properties file   721 does not exist.
 End of G2Drv F.D. properties file   722 does not exist.
 End of G2Drv F.D. properties file   788 does not exist.
          IDoAtm=1111
          Differentiating once with respect to electric field.
                with respect to dipole field.
          Differentiating once with respect to nuclear coordinates.
 Keep R1 ints in memory in canonical form, NReq=812251.
          There are     9 degrees of freedom in the 1st order CPHF.  IDoFFX=4 NUNeed=     9.
 Will reuse    3 saved solutions.
      6 vectors produced by pass  0 Test12= 4.89D-16 1.11D-08 XBig12= 2.80D-02 1.27D-01.
 AX will form     6 AO Fock derivatives at one time.
      6 vectors produced by pass  1 Test12= 4.89D-16 1.11D-08 XBig12= 4.10D-04 1.06D-02.
      6 vectors produced by pass  2 Test12= 4.89D-16 1.11D-08 XBig12= 2.00D-06 7.96D-04.
      5 vectors produced by pass  3 Test12= 4.89D-16 1.11D-08 XBig12= 5.40D-09 4.68D-05.
      4 vectors produced by pass  4 Test12= 4.89D-16 1.11D-08 XBig12= 4.51D-11 4.75D-06.
      4 vectors produced by pass  5 Test12= 4.89D-16 1.11D-08 XBig12= 7.21D-14 1.18D-07.
      1 vectors produced by pass  6 Test12= 4.89D-16 1.11D-08 XBig12= 1.64D-15 2.71D-08.
 InvSVY:  IOpt=1 It=  1 EMax= 5.55D-16
 Solved reduced A of dimension    32 with     6 vectors.
 Isotropic polarizability for W=    0.000000        7.12 Bohr**3.
 End of Minotr F.D. properties file   721 does not exist.
 End of Minotr F.D. properties file   722 does not exist.
 End of Minotr F.D. properties file   788 does not exist.

 **********************************************************************

            Population analysis using the SCF density.

 **********************************************************************

 Orbital symmetries:
       Occupied  (A1) (A1) (?A) (?A)
       Virtual   (A1) (A1) (?A) (?A) (?A) (?A) (A1) (A1) (?A) (?A)
                 (A1)
 Unable to determine electronic state:  an orbital has unidentified symmetry.
 Alpha  occ. eigenvalues --  -11.63000  -1.28463  -0.95986  -0.95986
 Alpha virt. eigenvalues --   -0.28677  -0.00159   0.05231   0.05231   0.58828
 Alpha virt. eigenvalues --    0.58828   0.63790   0.77974   1.00758   1.00758
 Alpha virt. eigenvalues --    1.34917
          Condensed to atoms (all electrons):
               1          2          3          4
     1  C    5.212230   0.322871   0.322871   0.322871
     2  H    0.322871   0.306449  -0.011467  -0.011467
     3  H    0.322871  -0.011467   0.306449  -0.011467
     4  H    0.322871  -0.011467  -0.011467   0.306449
 Mulliken charges:
               1
     1  C   -0.180843
     2  H    0.393614
     3  H    0.393614
     4  H    0.393614
 Sum of Mulliken charges =   1.00000
 Mulliken charges with hydrogens summed into heavy atoms:
               1
     1  C    1.000000
 APT charges:
               1
     1  C    0.398367
     2  H    0.200544
     3  H    0.200544
     4  H    0.200544
 Sum of APT charges =   1.00000
 APT charges with hydrogens summed into heavy atoms:
               1
     1  C    1.000000
 Electronic spatial extent (au):  <R**2>=             22.8746
 Charge=              1.0000 electrons
 Dipole moment (field-independent basis, Debye):
    X=              0.0000    Y=              0.0000    Z=              0.0000  Tot=              0.0000
 Quadrupole moment (field-independent basis, Debye-Ang):
   XX=             -4.3698   YY=             -4.3698   ZZ=             -5.2963
   XY=              0.0000   XZ=              0.0000   YZ=              0.0000
 Traceless Quadrupole moment (field-independent basis, Debye-Ang):
   XX=              0.3088   YY=              0.3088   ZZ=             -0.6176
   XY=              0.0000   XZ=              0.0000   YZ=              0.0000
 Octapole moment (field-independent basis, Debye-Ang**2):
  XXX=              0.0000  YYY=              1.6915  ZZZ=              0.0000  XYY=              0.0000
  XXY=             -1.6915  XXZ=              0.0002  XZZ=              0.0000  YZZ=              0.0000
  YYZ=              0.0002  XYZ=              0.0000
 Hexadecapole moment (field-independent basis, Debye-Ang**3):
 XXXX=             -8.2992 YYYY=             -8.2992 ZZZZ=             -3.9513 XXXY=              0.0000
 XXXZ=              0.0000 YYYX=              0.0000 YYYZ=              0.0001 ZZZX=              0.0000
 ZZZY=              0.0000 XXYY=             -2.7664 XXZZ=             -2.5817 YYZZ=             -2.5817
 XXYZ=             -0.0001 YYXZ=              0.0000 ZZXY=              0.0000
 N-N= 9.690258758196D+00 E-N=-1.066120573588D+02  KE= 3.888198463194D+01
 Symmetry A'   KE= 3.670997261616D+01
 Symmetry A"   KE= 2.172012015778D+00
  Exact polarizability:   8.689   0.000   8.689   0.000   0.000   3.997
 Approx polarizability:   6.859   0.000   6.859   0.000   0.000   3.077
 Calling FoFJK, ICntrl=    100127 FMM=F ISym2X=1 I1Cent= 0 IOpClX= 0 NMat=1 NMatS=1 NMatT=0.
 Full mass-weighted force constant matrix:
 Low frequencies ---  -17.2120  -17.2108  -17.2108   -0.0010   -0.0009    0.0012
 Low frequencies --- 1496.4922 1526.4179 1526.4181
 Diagonal vibrational polarizability:
        0.4712900       0.4712901       0.1612495
 Diagonal vibrational hyperpolarizability:
        0.0000000      -0.2997762       0.0009181
 Harmonic frequencies (cm**-1), IR intensities (KM/Mole), Raman scattering
 activities (A**4/AMU), depolarization ratios for plane and unpolarized
 incident light, reduced masses (AMU), force constants (mDyne/A),
 and normal coordinates:
                      1                      2                      3
                     A1                     ?A                     ?A
 Frequencies --   1496.4922              1526.4179              1526.4181
 Red. masses --      1.2356                 1.0979                 1.0979
 Frc consts  --      1.6303                 1.5071                 1.5071
 IR Inten    --     13.4188                22.7204                22.7204
 Raman Activ --      0.0000                 3.7842                 3.7842
 Depolar (P) --      0.6716                 0.7500                 0.7500
 Depolar (U) --      0.8036                 0.8571                 0.8571
  Atom  AN      X      Y      Z        X      Y      Z        X      Y      Z
     1   6     0.00   0.00   0.14     0.00   0.09   0.00    -0.09   0.00   0.00
     2   1     0.00   0.00  -0.57     0.00   0.09   0.00     0.81   0.00   0.00
     3   1     0.00   0.00  -0.57    -0.39  -0.58   0.00     0.13   0.39   0.00
     4   1     0.00   0.00  -0.57     0.39  -0.58   0.00     0.13  -0.39   0.00
                      4                      5                      6
                     ?B                     ?A                     ?A
 Frequencies --   3200.0229              3399.3257              3399.3257
 Red. masses --      1.0078                 1.1227                 1.1227
 Frc consts  --      6.0805                 7.6436                 7.6436
 IR Inten    --      0.0000                89.6857                89.6857
 Raman Activ --     78.3358                18.4666                18.4666
 Depolar (P) --      0.0682                 0.7500                 0.7500
 Depolar (U) --      0.1277                 0.8571                 0.8571
  Atom  AN      X      Y      Z        X      Y      Z        X      Y      Z
     1   6     0.00   0.00   0.00     0.00   0.10   0.00     0.10   0.00   0.00
     2   1     0.00   0.58   0.00     0.00  -0.81   0.00     0.00   0.00   0.00
     3   1     0.50  -0.29   0.00     0.35  -0.20   0.00    -0.61   0.35   0.00
     4   1    -0.50  -0.29   0.00    -0.35  -0.20   0.00    -0.61  -0.35   0.00

 -------------------
 - Thermochemistry -
 -------------------
 Temperature   298.150 Kelvin.  Pressure   1.00000 Atm.
 Atom     1 has atomic number  6 and mass  12.00000
 Atom     2 has atomic number  1 and mass   1.00783
 Atom     3 has atomic number  1 and mass   1.00783
 Atom     4 has atomic number  1 and mass   1.00783
 Molecular mass:    15.02348 amu.
 Principal axes and moments of inertia in atomic units:
                           1         2         3
     Eigenvalues --     6.26830   6.26830  12.53661
           X            0.62799   0.77822   0.00000
           Y            0.77822  -0.62799   0.00000
           Z            0.00000   0.00000   1.00000
 This molecule is an oblate symmetric top.
 Rotational symmetry number  3.
 Rotational temperatures (Kelvin)     13.81774    13.81774     6.90887
 Rotational constants (GHZ):         287.91536   287.91536   143.95768
 Zero-point vibrational energy      87016.4 (Joules/Mol)
                                   20.79741 (Kcal/Mol)
 Vibrational temperatures:   2153.12  2196.17  2196.17  4604.11  4890.87
          (Kelvin)           4890.87
 
 Zero-point correction=                           0.033143 (Hartree/Particle)
 Thermal correction to Energy=                    0.035989
 Thermal correction to Enthalpy=                  0.036933
 Thermal correction to Gibbs Free Energy=         0.015134
 Sum of electronic and zero-point Energies=            -38.975987
 Sum of electronic and thermal Energies=               -38.973141
 Sum of electronic and thermal Enthalpies=             -38.972196
 Sum of electronic and thermal Free Energies=          -38.993996
 
                     E (Thermal)             CV                S
                      KCal/Mol        Cal/Mol-Kelvin    Cal/Mol-Kelvin
 Total                   22.584              6.174             45.881
 Electronic               0.000              0.000              0.000
 Translational            0.889              2.981             34.068
 Rotational               0.889              2.981             11.780
 Vibrational             20.806              0.213              0.033
                       Q            Log10(Q)             Ln(Q)
 Total Bot       0.109358D-06         -6.961149        -16.028637
 Total V=0       0.192063D+09          8.283443         19.073333
 Vib (Bot)       0.570526D-15        -15.243725        -35.099974
 Vib (V=0)       0.100200D+01          0.000867          0.001996
 Electronic      0.100000D+01          0.000000          0.000000
 Translational   0.228882D+07          6.359611         14.643545
 Rotational      0.837462D+02          1.922965          4.427791
 ***** Axes restored to original set *****
 -------------------------------------------------------------------
 Center     Atomic                   Forces (Hartrees/Bohr)
 Number     Number              X              Y              Z
 -------------------------------------------------------------------
      1        6           0.000000000    0.000000000   -0.000021924
      2        1           0.000000000    0.000023005    0.000007308
      3        1          -0.000019923   -0.000011503    0.000007308
      4        1           0.000019923   -0.000011503    0.000007308
 -------------------------------------------------------------------
 Cartesian Forces:  Max     0.000023005 RMS     0.000013628
 FormGI is forming the generalized inverse of G from B-inverse, IUseBI=4.

 GradGradGradGradGradGradGradGradGradGradGradGradGradGradGradGradGradGrad
 Berny optimization.
 Internal  Forces:  Max     0.000023005 RMS     0.000015828
 Search for a local minimum.
 Step number   1 out of a maximum of    2
 All quantities printed in internal units (Hartrees-Bohrs-Radians)
 Second derivative matrix not updated -- analytic derivatives used.
 The second derivative matrix:
                          R1        R2        R3        A1        A2
           R1           0.39183
           R2          -0.00064   0.39183
           R3          -0.00064  -0.00064   0.39183
           A1           0.00362   0.00362  -0.00723   0.07365
           A2           0.00362  -0.00723   0.00362  -0.03683   0.07365
           A3          -0.00723   0.00362   0.00362  -0.03683  -0.03683
           D1           0.00000   0.00000   0.00000   0.00001  -0.00001
                          A3        D1
           A3           0.07365
           D1          -0.00001   0.07073
 ITU=  0
     Eigenvalues ---    0.07073   0.11006   0.11006   0.39056   0.39289
     Eigenvalues ---    0.39289
 Angle between quadratic step and forces=  42.83 degrees.
 Linear search not attempted -- first point.
 Iteration  1 RMS(Cart)=  0.00005212 RMS(Int)=  0.00000000
 Iteration  2 RMS(Cart)=  0.00000000 RMS(Int)=  0.00000001
 ClnCor:  largest displacement from symmetrization is 5.21D-09 for atom     4.
 Variable       Old X    -DE/DX   Delta X   Delta X   Delta X     New X
                                 (Linear)    (Quad)   (Total)
    R1        2.03628   0.00002   0.00000   0.00006   0.00006   2.03634
    R2        2.03628   0.00002   0.00000   0.00006   0.00006   2.03634
    R3        2.03628   0.00002   0.00000   0.00006   0.00006   2.03634
    A1        2.09440   0.00000   0.00000   0.00000   0.00000   2.09440
    A2        2.09440   0.00000   0.00000   0.00000   0.00000   2.09440
    A3        2.09440   0.00000   0.00000   0.00000   0.00000   2.09440
    D1       -3.14141  -0.00001   0.00000  -0.00018  -0.00018  -3.14159
         Item               Value     Threshold  Converged?
 Maximum Force            0.000023     0.000450     YES
 RMS     Force            0.000016     0.000300     YES
 Maximum Displacement     0.000080     0.001800     YES
 RMS     Displacement     0.000052     0.001200     YES
 Predicted change in Energy=-3.206899D-09
 Optimization completed.
    -- Stationary point found.
                           ----------------------------
                           !   Optimized Parameters   !
                           ! (Angstroms and Degrees)  !
 --------------------------                            --------------------------
 ! Name  Definition              Value          Derivative Info.                !
 --------------------------------------------------------------------------------
 ! R1    R(1,2)                  1.0776         -DE/DX =    0.0                 !
 ! R2    R(1,3)                  1.0776         -DE/DX =    0.0                 !
 ! R3    R(1,4)                  1.0776         -DE/DX =    0.0                 !
 ! A1    A(2,1,3)              120.0            -DE/DX =    0.0                 !
 ! A2    A(2,1,4)              120.0            -DE/DX =    0.0                 !
 ! A3    A(3,1,4)              120.0            -DE/DX =    0.0                 !
 ! D1    D(2,1,4,3)           -179.9896         -DE/DX =    0.0                 !
 --------------------------------------------------------------------------------
 GradGradGradGradGradGradGradGradGradGradGradGradGradGradGradGradGradGrad

 1|1|UNPC-KING|Freq|RHF|3-21G*|C1H3(1+)|ROBERT|24-Oct-2016|0||#N Geom=A
 llCheck Guess=TCheck SCRF=Check HF/3-21G* Freq||Title Card Required||1
 ,1|C,0.,-0.0000001111,0.000203066|H,-0.0000000891,1.077551254,0.000146
 3812|H,-0.9331868115,-0.5387758708,0.0001463812|H,0.9331869006,-0.5387
 757165,0.0001463812||Version=EM64W-G09RevD.01|HF=-39.0091297|RMSD=2.24
 3e-018|RMSF=1.363e-005|ZeroPoint=0.0331428|Thermal=0.0359891|Dipole=0.
 ,0.,-0.0000054|DipoleDeriv=0.2893365,0.,0.,0.,0.2893366,0.,0.,0.,0.616
 4275,0.1855407,0.,0.,0.,0.288235,-0.0000256,0.,-0.0000114,0.1278575,0.
 2625614,0.0444679,0.0000221,0.0444679,0.2112143,0.0000128,0.0000099,0.
 0000057,0.1278575,0.2625614,-0.0444679,-0.0000221,-0.0444679,0.2112142
 ,0.0000128,-0.0000099,0.0000057,0.1278575|Polar=8.6887982,0.,8.6887982
 ,0.,0.,3.9973881|PolarDeriv=-0.0000006,2.3056116,0.0000006,0.0004788,0
 .,0.,2.3056086,0.0000006,-2.3056073,0.,0.0004788,-0.0000037,0.0000956,
 0.,0.0000956,0.,0.,0.0009353,-0.0000003,1.180767,-0.0000003,-0.0001255
 ,0.,0.,0.6922262,-0.0000004,6.1279089,0.,-0.0001937,0.7377837,0.000048
 8,0.,-0.0001126,-0.0000001,1.5359437,-0.0003117,-4.6413517,-1.7431894,
 -1.2650583,-0.0001766,-0.0000295,-0.6389394,-1.498919,-1.6881471,-1.91
 11491,-0.0000295,-0.0001426,-0.3688919,-0.0000722,-0.0000699,0.0000085
 ,-1.3301662,-0.767972,-0.0003117,4.6413525,-1.7431891,1.265058,-0.0001
 766,0.0000295,0.6389395,-1.4989188,1.6881468,-1.9111483,0.0000295,-0.0
 001426,-0.3688918,-0.0000722,0.0000699,0.0000085,1.3301663,-0.7679718,
 -0.0003117|HyperPolar=0.0000046,-18.7405864,-0.0000046,18.7405864,-0.0
 014465,0.,-0.0014465,0.,0.,0.0015261|PG=C03V [C3(C1),3SGV(H1)]|NImag=0
 ||0.68090907,0.,0.68090880,0.,0.,0.20467162,-0.07069335,0.00000003,0.,
 0.05327750,0.00000003,-0.38324600,0.00001057,-0.00000003,0.39183489,0.
 ,0.00001670,-0.06822387,0.,-0.00001457,0.02273376,-0.30510783,-0.13533
 935,-0.00000915,0.00870792,0.00321805,-0.00000170,0.30719552,-0.135339
 29,-0.14883149,-0.00000528,-0.02573878,-0.00429443,-0.00000107,0.14659
 966,0.13791687,-0.00001446,-0.00000835,-0.06822387,0.00000008,0.000002
 00,0.02274506,0.00001262,0.00000729,0.02273376,-0.30510788,0.13533932,
 0.00000915,0.00870792,-0.00321805,0.00000170,-0.01079561,0.01447841,0.
 00000177,0.30719556,0.13533926,-0.14883144,-0.00000528,0.02573878,-0.0
 0429443,-0.00000107,-0.01447842,0.01520910,-0.00000094,-0.14659963,0.1
 3791682,0.00001446,-0.00000835,-0.06822387,-0.00000008,0.00000200,0.02
 274506,-0.00000177,-0.00000094,0.02274506,-0.00001262,0.00000729,0.022
 73376||0.,0.,0.00002192,0.,-0.00002301,-0.00000731,0.00001992,0.000011
 50,-0.00000731,-0.00001992,0.00001150,-0.00000731|||@


 CHINESE FORTUNE COOKIE OF JAN 1 1967 SAY....
 ALL THINGS ARE DIFFICULT BEFORE THEY ARE EASY.
 WE LEARN SO LITTLE AND FORGET SO MUCH.
 YOU WILL OVERCOME OBSTACLES TO ACHIEVE SUCCESS.
 AH SO.
 Job cpu time:       0 days  0 hours  0 minutes 23.0 seconds.
 File lengths (MBytes):  RWF=      5 Int=      0 D2E=      0 Chk=      1 Scr=      1
 Normal termination of Gaussian 09 at Mon Oct 24 14:02:06 2016.
 Link1:  Proceeding to internal job step number  3.
 -----------------------------------------------------
 #N Geom=AllCheck Guess=TCheck SCRF=Check MP4SDQ/6-31G
 -----------------------------------------------------
 1/29=7,38=1,40=1/1;
 2/12=2,40=1/2;
 3/5=1,6=6,11=9,14=-4,16=1,25=1,30=1,70=2,116=-2/1,2,3;
 4/5=101/1;
 5/5=2/2;
 8/6=3,9=120000,10=2/1,4;
 9/5=4/13;
 6/7=2,8=2,9=2,10=2/1;
 99/5=1,9=1/99;
 Structure from the checkpoint file:  "C:\Users\Robert\Desktop\h3c+-cbs4m.com.chk"
 -------------------
 Title Card Required
 -------------------
 Charge =  1 Multiplicity = 1
 Redundant internal coordinates found in file.
 C,0,0.,-0.0000001111,0.000203066
 H,0,-0.0000000891,1.077551254,0.0001463812
 H,0,-0.9331868115,-0.5387758708,0.0001463812
 H,0,0.9331869006,-0.5387757165,0.0001463812
 Recover connectivity data from disk.
                          Input orientation:                          
 ---------------------------------------------------------------------
 Center     Atomic      Atomic             Coordinates (Angstroms)
 Number     Number       Type             X           Y           Z
 ---------------------------------------------------------------------
      1          6           0        0.000000    0.000000    0.000203
      2          1           0        0.000000    1.077551    0.000146
      3          1           0       -0.933187   -0.538776    0.000146
      4          1           0        0.933187   -0.538776    0.000146
 ---------------------------------------------------------------------
                    Distance matrix (angstroms):
                    1          2          3          4
     1  C    0.000000
     2  H    1.077551   0.000000
     3  H    1.077551   1.866374   0.000000
     4  H    1.077551   1.866374   1.866374   0.000000
 Stoichiometry    CH3(1+)
 Framework group  C3V[C3(C),3SGV(H)]
 Deg. of freedom     2
 Full point group                 C3V     NOp   6
 Largest Abelian subgroup         CS      NOp   2
 Largest concise Abelian subgroup CS      NOp   2
                         Standard orientation:                         
 ---------------------------------------------------------------------
 Center     Atomic      Atomic             Coordinates (Angstroms)
 Number     Number       Type             X           Y           Z
 ---------------------------------------------------------------------
      1          6           0        0.000000    0.000000   -0.000019
      2          1           0        0.000000    1.077551    0.000038
      3          1           0        0.933187   -0.538776    0.000038
      4          1           0       -0.933187   -0.538776    0.000038
 ---------------------------------------------------------------------
 Rotational constants (GHZ):    287.9153563    287.9153563    143.9576788
 Standard basis: 6-31G (6D, 7F)
 There are    11 symmetry adapted cartesian basis functions of A'  symmetry.
 There are     4 symmetry adapted cartesian basis functions of A"  symmetry.
 There are    11 symmetry adapted basis functions of A'  symmetry.
 There are     4 symmetry adapted basis functions of A"  symmetry.
    15 basis functions,    34 primitive gaussians,    15 cartesian basis functions
     4 alpha electrons        4 beta electrons
       nuclear repulsion energy         9.6902587582 Hartrees.
 NAtoms=    4 NActive=    4 NUniq=    2 SFac= 4.00D+00 NAtFMM=   60 NAOKFM=F Big=F
 Integral buffers will be    131072 words long.
 Raffenetti 1 integral format.
 Two-electron integral symmetry is turned on.
 One-electron integrals computed using PRISM.
 NBasis=    15 RedAO= T EigKep=  3.86D-02  NBF=    11     4
 NBsUse=    15 1.00D-06 EigRej= -1.00D+00 NBFU=    11     4
 Initial guess from the checkpoint file:  "C:\Users\Robert\Desktop\h3c+-cbs4m.com.chk"
 B after Tr=     0.000000    0.000000    0.000000
         Rot=    1.000000    0.000000    0.000000    0.000000 Ang=   0.00 deg.
 Initial guess orbital symmetries:
       Occupied  (A1) (A1) (?A) (?A)
       Virtual   (A1) (A1) (?A) (?A) (?A) (?A) (A1) (A1) (?A) (?A)
                 (A1)
 Keep R1 ints in memory in symmetry-blocked form, NReq=833951.
 Requested convergence on RMS density matrix=1.00D-08 within 128 cycles.
 Requested convergence on MAX density matrix=1.00D-06.
 Requested convergence on             energy=1.00D-06.
 No special actions if energy rises.
 An orbital has undefined symmetry, so N**3 symmetry is turned off.
 SCF Done:  E(RHF) =  -39.2162108231     A.U. after    8 cycles
            NFock=  8  Conv=0.14D-08     -V/T= 1.9985
 ExpMin= 1.61D-01 ExpMax= 3.05D+03 ExpMxC= 4.57D+02 IAcc=3 IRadAn=         5 AccDes= 0.00D+00
 HarFok:  IExCor=  205 AccDes= 0.00D+00 IRadAn=         5 IDoV=-2 UseB2=F ITyADJ=14
 ICtDFT= 12500011 ScaDFX=  1.000000  1.000000  1.000000  1.000000
 Range of M.O.s used for correlation:     2    15
 NBasis=    15 NAE=     4 NBE=     4 NFC=     1 NFV=     0
 NROrb=     14 NOA=     3 NOB=     3 NVA=    11 NVB=    11
 Semi-Direct transformation.
 ModeAB=           2 MOrb=             3 LenV=     805194001
 LASXX=         1359 LTotXX=        1359 LenRXX=        1359
 LTotAB=        1719 MaxLAS=        5040 LenRXY=        5040
 NonZer=        5544 LenScr=      785920 LnRSAI=           0
 LnScr1=           0 LExtra=           0 Total=       792319
 MaxDsk=          -1 SrtSym=           F ITran=            3
 JobTyp=0 Pass  1:  I=   1 to   3.
 (rs|ai) integrals will be sorted in core.
 SymMOI:  orbitals are not symmetric.
 Spin components of T(2) and E(2):
     alpha-alpha T2 =       0.1361059094D-02 E2=     -0.3794175206D-02
     alpha-beta  T2 =       0.2033930889D-01 E2=     -0.5704411911D-01
     beta-beta   T2 =       0.1361059094D-02 E2=     -0.3794175206D-02
 ANorm=    0.1011464991D+01
 E2 =    -0.6463246952D-01 EUMP2 =    -0.39280843292639D+02
 Keep R2 and R3 ints in memory in canonical form, NReq=815782.
 DD1Dir will call FoFMem   1 times, MxPair=        12
 NAB=     6 NAA=     0 NBB=     0.
 MP4(R+Q)=  0.52074641D-03
 E3=       -0.13056596D-01        EUMP3=      -0.39293899889D+02
 E4(DQ)=   -0.29609889D-02        UMP4(DQ)=   -0.39296860878D+02
 E4(SDQ)=  -0.29990948D-02        UMP4(SDQ)=  -0.39296898983D+02
 Largest amplitude= 4.19D-02
 Discarding MO integrals.

 **********************************************************************

            Population analysis using the SCF density.

 **********************************************************************

 Orbital symmetries:
       Occupied  (A1) (A1) (?A) (?A)
       Virtual   (A1) (A1) (?A) (?A) (?A) (?A) (A1) (A1) (A1) (?A)
                 (?A)
 Unable to determine electronic state:  an orbital has unidentified symmetry.
 Alpha  occ. eigenvalues --  -11.68198  -1.28558  -0.95627  -0.95627
 Alpha virt. eigenvalues --   -0.28315  -0.02099   0.03640   0.03640   0.41943
 Alpha virt. eigenvalues --    0.41943   0.46322   0.61236   0.87852   0.89782
 Alpha virt. eigenvalues --    0.89782
          Condensed to atoms (all electrons):
               1          2          3          4
     1  C    4.971374   0.345108   0.345108   0.345108
     2  H    0.345108   0.344803  -0.012738  -0.012738
     3  H    0.345108  -0.012738   0.344803  -0.012738
     4  H    0.345108  -0.012738  -0.012738   0.344803
 Mulliken charges:
               1
     1  C   -0.006698
     2  H    0.335566
     3  H    0.335566
     4  H    0.335566
 Sum of Mulliken charges =   1.00000
[...]
 NBasis=    34 RedAO= T EigKep=  2.11D-02  NBF=    23    11
 NBsUse=    34 1.00D-06 EigRej= -1.00D+00 NBFU=    23    11
 Initial guess from the checkpoint file:  "C:\Users\Robert\Desktop\h3c+-cbs4m.com.chk"
 B after Tr=     0.000000    0.000000    0.000000
         Rot=    1.000000    0.000000    0.000000    0.000000 Ang=   0.00 deg.
 Initial guess orbital symmetries:
       Occupied  (?A) (?A) (?A) (?A)
       Virtual   (A1) (?A) (?A) (?A) (?A) (?A) (A1) (?A) (?A) (?A)
                 (?A) (?A) (?A) (?B) (?A) (?B) (?A) (?A) (?B) (?A)
                 (?A) (?B) (?A) (?A) (?A) (?B) (?A) (?A) (?A) (?B)
 Keep R1 ints in memory in symmetry-blocked form, NReq=1032840.
 Requested convergence on RMS density matrix=1.00D-08 within 128 cycles.
 Requested convergence on MAX density matrix=1.00D-06.
 Requested convergence on             energy=1.00D-06.
 No special actions if energy rises.
 An orbital has undefined symmetry, so N**3 symmetry is turned off.
 SCF Done:  E(RHF) =  -39.2358400224     A.U. after    8 cycles
            NFock=  8  Conv=0.32D-08     -V/T= 2.0012
 ExpMin= 4.38D-02 ExpMax= 3.05D+03 ExpMxC= 4.57D+02 IAcc=3 IRadAn=         5 AccDes= 0.00D+00
 HarFok:  IExCor=  205 AccDes= 0.00D+00 IRadAn=         5 IDoV=-2 UseB2=F ITyADJ=14
 ICtDFT= 12500011 ScaDFX=  1.000000  1.000000  1.000000  1.000000
 Range of M.O.s used for correlation:     2    34
 NBasis=    34 NAE=     4 NBE=     4 NFC=     1 NFV=     0
 NROrb=     33 NOA=     3 NOB=     3 NVA=    30 NVB=    30
 Disk-based method using OVN memory for  3 occupieds at a time.
 Permanent disk used for amplitudes and <ij||ab> integrals=       18810 words.
 Estimated scratch disk usage=      843250 words.
 Actual    scratch disk usage=      843250 words.
 JobTyp=1 Pass  1:  I=   1 to   3 NPSUse=  4 ParTrn=T ParDer=T DoDerP=F.
 (rs|ai) integrals will be sorted in core.
 Spin components of T(2) and E(2):
     alpha-alpha T2 =       0.2309078198D-02 E2=     -0.7346818288D-02
     alpha-beta  T2 =       0.2952483876D-01 E2=     -0.9526305333D-01
     beta-beta   T2 =       0.2309078198D-02 E2=     -0.7346818288D-02
 ANorm=    0.1016928215D+01
 E2 =    -0.1099566899D+00 EUMP2 =    -0.39345796712354D+02

 Complete Basis Set (CBS) Extrapolation:
 M. R. Nyden and G. A. Petersson, JCP 75, 1843 (1981)
 G. A. Petersson and M. A. Al-Laham, JCP 94, 6081 (1991)
 G. A. Petersson, T. Tensfeldt, and J. A. Montgomery, JCP 94, 6091 (1991)
 J. A. Montgomery, J. W. Ochterski, and G. A. Petersson, JCP 101, 5900 (1994)
 
 Minimum Number of PNO for Extrapolation =   5
 Absolute Overlaps: IRadAn =     99590
 LocTrn: ILocal=3 LocCor=F DoCore=F.
 LocMO: Using population method
 Initial Trace= 0.30000000D+01 Initial TraceA= 0.13987290D+01
 RMSG= 0.34528163D-09
 There are a total of      197060 grid points.
 ElSum from         orbitals=        3.9999999862
 E2(CBS)=      -0.138155 CBS-Int=       0.009296 OIii=       1.773452

 **********************************************************************

            Population analysis using the SCF density.

 **********************************************************************

 Orbital symmetries:
       Occupied  (?A) (?A) (?B) (?B)
       Virtual   (A1) (?A) (?B) (?B) (A1) (?B) (?B) (?A) (?B) (?B)
                 (A1) (?A) (?B) (?B) (?A) (?C) (?C) (?A) (?B) (?B)
                 (?A) (A1) (?C) (?C) (?B) (?B) (?A) (?B) (?B) (?A)
 Unable to determine electronic state:  an orbital has unidentified symmetry.
 Alpha  occ. eigenvalues --  -11.68541  -1.28328  -0.95591  -0.95591
 Alpha virt. eigenvalues --   -0.28603  -0.11576  -0.07102  -0.07102  -0.04372
 Alpha virt. eigenvalues --    0.05465   0.05465   0.06982   0.50125   0.50125
 Alpha virt. eigenvalues --    0.58070   0.66060   0.77376   0.77376   0.82686
 Alpha virt. eigenvalues --    0.93492   0.93492   1.32191   1.52192   1.52192
 Alpha virt. eigenvalues --    1.57687   1.59253   1.87843   1.87843   2.17541
 Alpha virt. eigenvalues --    2.17541   2.56194   2.67954   2.67954   3.17912
          Condensed to atoms (all electrons):
               1          2          3          4
     1  C    4.650780   0.382165   0.382165   0.382165
     2  H    0.382165   0.377852  -0.012888  -0.012888
     3  H    0.382165  -0.012888   0.377852  -0.012888
     4  H    0.382165  -0.012888  -0.012888   0.377852
 Mulliken charges:
               1
     1  C    0.202725
     2  H    0.265758
     3  H    0.265758
     4  H    0.265758
 Sum of Mulliken charges =   1.00000
 Mulliken charges with hydrogens summed into heavy atoms:
               1
     1  C    1.000000
 Electronic spatial extent (au):  <R**2>=             22.3379
 Charge=              1.0000 electrons
 Dipole moment (field-independent basis, Debye):
    X=              0.0000    Y=              0.0000    Z=              0.0000  Tot=              0.0000
 Quadrupole moment (field-independent basis, Debye-Ang):
   XX=             -4.1496   YY=             -4.1496   ZZ=             -5.0148
   XY=              0.0000   XZ=              0.0000   YZ=              0.0000
 Traceless Quadrupole moment (field-independent basis, Debye-Ang):
   XX=              0.2884   YY=              0.2884   ZZ=             -0.5769
   XY=              0.0000   XZ=              0.0000   YZ=              0.0000
 Octapole moment (field-independent basis, Debye-Ang**2):
  XXX=              0.0000  YYY=              1.6916  ZZZ=             -0.0001  XYY=              0.0000
  XXY=             -1.6916  XXZ=              0.0002  XZZ=              0.0000  YZZ=              0.0000
  YYZ=              0.0002  XYZ=              0.0000
 Hexadecapole moment (field-independent basis, Debye-Ang**3):
 XXXX=             -7.9606 YYYY=             -7.9606 ZZZZ=             -3.4695 XXXY=              0.0000
 XXXZ=              0.0000 YYYX=              0.0000 YYYZ=              0.0001 ZZZX=              0.0000
 ZZZY=              0.0000 XXYY=             -2.6535 XXZZ=             -2.4902 YYZZ=             -2.4902
 XXYZ=             -0.0001 YYXZ=              0.0000 ZZXY=              0.0000
 N-N= 9.690258758196D+00 E-N=-1.072795250138D+02  KE= 3.918834299635D+01
 Symmetry A'   KE= 3.699403927253D+01
 Symmetry A"   KE= 2.194303723818D+00
 1|1|UNPC-KING|SP|RMP2-FC|6-31+(d',p')|C1H3(1+)|ROBERT|24-Oct-2016|0||#
 N Geom=AllCheck Guess=TCheck SCRF=Check MP2/6-31+D** CBSExtrap=(NMin=5
 ,MinPop)||Title Card Required||1,1|C,0,0.,-0.0000001111,0.000203066|H,
 0,-0.0000000891,1.077551254,0.0001463812|H,0,-0.9331868115,-0.53877587
 08,0.0001463812|H,0,0.9331869006,-0.5387757165,0.0001463812||Version=E
 M64W-G09RevD.01|HF=-39.23584|MP2=-39.3457967|E2(CBS)=-0.1381546|CBS-In
 t=-0.1288588|OIii=1.7734519|RMSD=3.182e-009|PG=C03V [C3(C1),3SGV(H1)]|
 |@


 OUR LITTLE SYSTEMS HAVE THEIR DAY,    
   THEY HAVE THEIR DAY AND CEASE TO BE.
   THEY ARE BUT BROKEN LIGHTS OF THEE, 
 AND THOU, OH LORD, ART MORE THAN THEY.
          -------------------          
 LET KNOWLEDGE GROW FROM MORE TO MORE, 
   BUT MORE OF REVERENCE IN US DWELL.  
   THAT MIND AND SOUL, ACCORDING WELL, 
 MAY MAKE ONE MUSIC AS BEFORE.....     
          -------------------          
                    LORD TENNYSON      
 Job cpu time:       0 days  0 hours  0 minutes  8.0 seconds.
 File lengths (MBytes):  RWF=     12 Int=      0 D2E=      0 Chk=      1 Scr=      1
 Normal termination of Gaussian 09 at Mon Oct 24 14:02:18 2016.
 Link1:  Proceeding to internal job step number  5.
 -----------------------------------------------------------
 #N Geom=AllCheck Guess=TCheck SCRF=Check HF/CBSB1 SCF=Tight
 -----------------------------------------------------------
 1/29=7,38=1,40=1/1;
 2/12=2,40=1/2;
 3/5=10,11=9,14=-4,16=1,25=1,30=1,70=2,116=-2/1,2,3;
 4/5=101/1;
 5/5=2,32=2/2;
 6/7=2,8=2,9=2,10=2,28=1/1;
 99/5=1,9=1/99;
 Structure from the checkpoint file:  "C:\Users\Robert\Desktop\h3c+-cbs4m.com.chk"
 -------------------
 Title Card Required
 -------------------
 Charge =  1 Multiplicity = 1
 Redundant internal coordinates found in file.
 C,0,0.,-0.0000001111,0.000203066
 H,0,-0.0000000891,1.077551254,0.0001463812
 H,0,-0.9331868115,-0.5387758708,0.0001463812
 H,0,0.9331869006,-0.5387757165,0.0001463812
 Recover connectivity data from disk.
                          Input orientation:                          
 ---------------------------------------------------------------------
 Center     Atomic      Atomic             Coordinates (Angstroms)
 Number     Number       Type             X           Y           Z
 ---------------------------------------------------------------------
      1          6           0        0.000000    0.000000    0.000203
      2          1           0        0.000000    1.077551    0.000146
      3          1           0       -0.933187   -0.538776    0.000146
      4          1           0        0.933187   -0.538776    0.000146
 ---------------------------------------------------------------------
                    Distance matrix (angstroms):
                    1          2          3          4
     1  C    0.000000
     2  H    1.077551   0.000000
     3  H    1.077551   1.866374   0.000000
     4  H    1.077551   1.866374   1.866374   0.000000
 Stoichiometry    CH3(1+)
 Framework group  C3V[C3(C),3SGV(H)]
 Deg. of freedom     2
 Full point group                 C3V     NOp   6
 Largest Abelian subgroup         CS      NOp   2
 Largest concise Abelian subgroup CS      NOp   2
                         Standard orientation:                         
 ---------------------------------------------------------------------
 Center     Atomic      Atomic             Coordinates (Angstroms)
 Number     Number       Type             X           Y           Z
 ---------------------------------------------------------------------
      1          6           0        0.000000    0.000000   -0.000019
      2          1           0        0.000000    1.077551    0.000038
      3          1           0        0.933187   -0.538776    0.000038
      4          1           0       -0.933187   -0.538776    0.000038
 ---------------------------------------------------------------------
 Rotational constants (GHZ):    287.9153563    287.9153563    143.9576788
 Standard basis: CBSB1 (5D, 7F)
 There are    38 symmetry adapted cartesian basis functions of A'  symmetry.
 There are    19 symmetry adapted cartesian basis functions of A"  symmetry.
 There are    34 symmetry adapted basis functions of A'  symmetry.
 There are    18 symmetry adapted basis functions of A"  symmetry.
    52 basis functions,    76 primitive gaussians,    57 cartesian basis functions
     4 alpha electrons        4 beta electrons
       nuclear repulsion energy         9.6902587582 Hartrees.
 NAtoms=    4 NActive=    4 NUniq=    2 SFac= 4.00D+00 NAtFMM=   60 NAOKFM=F Big=F
 Integral buffers will be    131072 words long.
 Raffenetti 1 integral format.
 Two-electron integral symmetry is turned on.
 One-electron integrals computed using PRISM.
 NBasis=    52 RedAO= T EigKep=  5.83D-03  NBF=    34    18
 NBsUse=    52 1.00D-06 EigRej= -1.00D+00 NBFU=    34    18
 Initial guess from the checkpoint file:  "C:\Users\Robert\Desktop\h3c+-cbs4m.com.chk"
 B after Tr=     0.000000    0.000000    0.000000
         Rot=    1.000000    0.000000    0.000000    0.000000 Ang=   0.00 deg.
 Initial guess orbital symmetries:
       Occupied  (?A) (?A) (?A) (?A)
       Virtual   (?A) (?A) (?B) (?A) (?B) (?A) (?A) (?A) (?B) (?B)
                 (?A) (?B) (?A) (?A) (?A) (?A) (?B) (?A) (?B) (?A)
                 (?A) (?B) (?A) (?B) (?A) (A1) (?A) (?A) (?A) (?A)
                 (?A) (?A) (?A) (?B) (?A) (?A) (?B) (?A) (?A) (?B)
                 (?A) (?A) (?A) (?A) (?B) (?A) (?A) (?A)
 Keep R1 ints in memory in symmetry-blocked form, NReq=2940175.
 Requested convergence on RMS density matrix=1.00D-08 within 128 cycles.
 Requested convergence on MAX density matrix=1.00D-06.
 Requested convergence on             energy=1.00D-06.
 No special actions if energy rises.
 SCF Done:  E(RHF) =  -39.2430555193     A.U. after    7 cycles
            NFock=  7  Conv=0.98D-08     -V/T= 1.9995

 **********************************************************************

            Population analysis using the SCF density.

 **********************************************************************

 Orbital symmetries:
       Occupied  (?A) (?A) (?B) (?B)
       Virtual   (A1) (?A) (?B) (?B) (A1) (?B) (?B) (?A) (?A) (?B)
                 (?B) (?B) (?B) (A1) (?C) (?C) (?A) (?B) (?B) (?A)
                 (?A) (?B) (?B) (?A) (A1) (?C) (?C) (?B) (?B) (?B)
                 (?B) (?A) (A1) (?B) (?B) (?C) (?C) (A1) (?C) (?C)
                 (?B) (?B) (?A) (?A) (?A) (?B) (?B) (?A)
 Unable to determine electronic state:  an orbital has unidentified symmetry.
 Alpha  occ. eigenvalues --  -11.67975  -1.28273  -0.95617  -0.95617
 Alpha virt. eigenvalues --   -0.28612  -0.12844  -0.08201  -0.08201  -0.04700
 Alpha virt. eigenvalues --   -0.02074  -0.02074   0.01195   0.06618   0.08284
 Alpha virt. eigenvalues --    0.08284   0.41460   0.41460   0.43837   0.46722
 Alpha virt. eigenvalues --    0.46722   0.57375   0.60041   0.60041   0.65115
 Alpha virt. eigenvalues --    1.11787   1.30476   1.30476   1.32176   1.57680
 Alpha virt. eigenvalues --    1.67958   1.67958   2.17398   2.17398   2.26720
 Alpha virt. eigenvalues --    2.26720   2.29003   2.69423   2.75433   2.75433
 Alpha virt. eigenvalues --    3.15707   3.15707   3.20326   3.21820   3.21820
 Alpha virt. eigenvalues --    3.37620   3.37620   3.44628   3.63789   4.11582
 Alpha virt. eigenvalues --    4.48362   4.48362  24.63675
          Condensed to atoms (all electrons):
               1          2          3          4
     1  C    4.653112   0.381769   0.381769   0.381769
     2  H    0.381769   0.391950  -0.019929  -0.019929
     3  H    0.381769  -0.019929   0.391950  -0.019929
     4  H    0.381769  -0.019929  -0.019929   0.391950
 Mulliken charges:
               1
     1  C    0.201582
     2  H    0.266139
     3  H    0.266139
     4  H    0.266139
 Sum of Mulliken charges =   1.00000
 Mulliken charges with hydrogens summed into heavy atoms:
               1
     1  C    1.000000
 Electronic spatial extent (au):  <R**2>=             22.3177
 Charge=              1.0000 electrons
 Dipole moment (field-independent basis, Debye):
    X=              0.0000    Y=              0.0000    Z=              0.0000  Tot=              0.0000
 Quadrupole moment (field-independent basis, Debye-Ang):
   XX=             -4.1407   YY=             -4.1407   ZZ=             -5.0054
   XY=              0.0000   XZ=              0.0000   YZ=              0.0000
 Traceless Quadrupole moment (field-independent basis, Debye-Ang):
   XX=              0.2882   YY=              0.2882   ZZ=             -0.5764
   XY=              0.0000   XZ=              0.0000   YZ=              0.0000
 Octapole moment (field-independent basis, Debye-Ang**2):
  XXX=              0.0000  YYY=              1.6906  ZZZ=             -0.0001  XYY=              0.0000
  XXY=             -1.6906  XXZ=              0.0002  XZZ=              0.0000  YZZ=              0.0000
  YYZ=              0.0002  XYZ=              0.0000
 Hexadecapole moment (field-independent basis, Debye-Ang**3):
 XXXX=             -8.0146 YYYY=             -8.0146 ZZZZ=             -3.4759 XXXY=              0.0000
 XXXZ=              0.0000 YYYX=              0.0000 YYYZ=              0.0001 ZZZX=              0.0000
 ZZZY=              0.0000 XXYY=             -2.6715 XXZZ=             -2.5160 YYZZ=             -2.5160
 XXYZ=             -0.0001 YYXZ=              0.0000 ZZXY=              0.0000
 N-N= 9.690258758196D+00 E-N=-1.073780955984D+02  KE= 3.926111742408D+01
 Symmetry A'   KE= 3.705994126790D+01
 Symmetry A"   KE= 2.201176156178D+00
 1|1|UNPC-KING|SP|RHF|CBSB1|C1H3(1+)|ROBERT|24-Oct-2016|0||#N Geom=AllC
 heck Guess=TCheck SCRF=Check HF/CBSB1 SCF=Tight||Title Card Required||
 1,1|C,0,0.,-0.0000001111,0.000203066|H,0,-0.0000000891,1.077551254,0.0
 001463812|H,0,-0.9331868115,-0.5387758708,0.0001463812|H,0,0.933186900
 6,-0.5387757165,0.0001463812||Version=EM64W-G09RevD.01|HF=-39.2430555|
 RMSD=9.750e-009|Dipole=0.,0.,0.0000015|Quadrupole=0.2142843,0.2142843,
 -0.4285686,0.,0.,0.|PG=C03V [C3(C1),3SGV(H1)]||@


 THESE ARE THE TIMES THAT TRY MENS SOULS.
 THE SUMMER SOLDIER AND THE SUNSHINE PATRIOT WILL IN THIS CRISIS,
 SHRINK FROM THE SERVICE OF HIS COUNTRY.  BUT HE THAT STANDS NOW,
 DESERVES THE LOVE AND THANKS OF MAN AND WOMAN.
 TYRANNY, LIKE HELL, IS NOT EASILY CONQUERED,
 YET WE HAVE THIS CONSOLATION WITH US,
 THAT THE HARDER THE CONFLICT, THE MORE GLORIOUS THE TRIUMPH.
 WHAT WE OBTAIN TOO CHEAP, WE ESTEEM TOO LIGHTLY, 
 'TIS DEARNESS ONLY THAT GIVES EVERYTHING ITS VALUE.

                                              -- TOM PAINE
 Diagonal vibrational polarizability:
        0.0000000       0.0000000       0.0000000

 Complete Basis Set (CBS) Extrapolation:
 M. R. Nyden and G. A. Petersson, JCP 75, 1843 (1981)
 G. A. Petersson and M. A. Al-Laham, JCP 94, 6081 (1991)
 G. A. Petersson, T. Tensfeldt, and J. A. Montgomery, JCP 94, 6091 (1991)
 J. A. Montgomery, J. W. Ochterski, and G. A. Petersson, JCP 101, 5900 (1994)

 Temperature=               298.150000 Pressure=                       1.000000
 E(ZPE)=                      0.030382 E(Thermal)=                     0.033238
 E(SCF)=                    -39.243056 DE(MP2)=                       -0.109957
 DE(CBS)=                    -0.028198 DE(MP34)=                      -0.016056
 DE(Int)=                     0.009296 DE(Empirical)=                 -0.037905
 CBS-4 (0 K)=               -39.395493 CBS-4 Energy=                 -39.392637
 CBS-4 Enthalpy=            -39.391693 CBS-4 Free Energy=            -39.413503
 1|1|UNPC-KING|Mixed|CBS-4M|CBS-4M|C1H3(1+)|ROBERT|24-Oct-2016|0||# cbs
 -4m geom=connectivity||Title Card Required||1,1|C,0,0.,-0.0000001111,0
 .000203066|H,0,-0.0000000891,1.077551254,0.0001463812|H,0,-0.933186811
 5,-0.5387758708,0.0001463812|H,0,0.9331869006,-0.5387757165,0.00014638
 12||Version=EM64W-G09RevD.01|HF/CbsB1=-39.2430555|HF/CbsB2=-39.23584|M
 P2/CbsB2=-39.3457967|E2(CBS)/CbsB2=-0.1381546|CBS-Int/CbsB2=0.0092958|
 OIii/CbsB2=1.7734519|MP2/6-31G=-39.2808433|MP4(SDQ)/6-31G=-39.296899|C
 BS4M=-39.3954929|FreqCoord=0.,-0.00000021,0.0003837391,-0.0000001683,2
 .0362767642,0.0002766203,-1.7634675046,-1.0181388428,0.0002766203,1.76
 34676729,-1.0181385513,0.0002766203|PG=C03V [C3(C1),3SGV(H1)]|NImag=0|
 |0.68090907,0.,0.68090880,0.,0.,0.20467162,-0.07069335,0.00000003,0.,0
 .05327750,0.00000003,-0.38324600,0.00001057,-0.00000003,0.39183489,0.,
 0.00001670,-0.06822387,0.,-0.00001457,0.02273376,-0.30510783,-0.135339
 35,-0.00000915,0.00870792,0.00321805,-0.00000170,0.30719552,-0.1353392
 9,-0.14883149,-0.00000528,-0.02573878,-0.00429443,-0.00000107,0.146599
 66,0.13791687,-0.00001446,-0.00000835,-0.06822387,0.00000008,0.0000020
 0,0.02274506,0.00001262,0.00000729,0.02273376,-0.30510788,0.13533932,0
 .00000915,0.00870792,-0.00321805,0.00000170,-0.01079561,0.01447841,0.0
 0000177,0.30719556,0.13533926,-0.14883144,-0.00000528,0.02573878,-0.00
 429443,-0.00000107,-0.01447842,0.01520910,-0.00000094,-0.14659963,0.13
 791682,0.00001446,-0.00000835,-0.06822387,-0.00000008,0.00000200,0.022
 74506,-0.00000177,-0.00000094,0.02274506,-0.00001262,0.00000729,0.0227
 3376||0.,0.,0.00002192,0.,-0.00002301,-0.00000731,0.00001992,0.0000115
 0,-0.00000731,-0.00001992,0.00001150,-0.00000731|||@
 Job cpu time:       0 days  0 hours  0 minutes 16.0 seconds.
 File lengths (MBytes):  RWF=     12 Int=      0 D2E=      0 Chk=      1 Scr=      1
 Normal termination of Gaussian 09 at Mon Oct 24 14:02:34 2016.
