 Entering Gaussian System, Link 0=g09
 Initial command:
 /cluster/software/gaussian/gaussian-09-D.01/g09/l1.exe "/local/scratch/epktb/Gau-3922.inp" -scrdir="/local/scratch/epktb/"
 Entering Link 1 = /cluster/software/gaussian/gaussian-09-D.01/g09/l1.exe PID=      3923.
  
 Copyright (c) 1988,1990,1992,1993,1995,1998,2003,2009,2013,
            Gaussian, Inc.  All Rights Reserved.
  
 This is part of the Gaussian(R) 09 program.  It is based on
 the Gaussian(R) 03 system (copyright 2003, Gaussian, Inc.),
 the Gaussian(R) 98 system (copyright 1998, Gaussian, Inc.),
 the Gaussian(R) 94 system (copyright 1995, Gaussian, Inc.),
 the Gaussian 92(TM) system (copyright 1992, Gaussian, Inc.),
 the Gaussian 90(TM) system (copyright 1990, Gaussian, Inc.),
 the Gaussian 88(TM) system (copyright 1988, Gaussian, Inc.),
 the Gaussian 86(TM) system (copyright 1986, Carnegie Mellon
 University), and the Gaussian 82(TM) system (copyright 1983,
 Carnegie Mellon University). Gaussian is a federally registered
 trademark of Gaussian, Inc.
  
 This software contains proprietary and confidential information,
 including trade secrets, belonging to Gaussian, Inc.
  
 This software is provided under written license and may be
 used, copied, transmitted, or stored only in accord with that
 written license.
  
 The following legend is applicable only to US Government
 contracts under FAR:
  
                    RESTRICTED RIGHTS LEGEND
  
 Use, reproduction and disclosure by the US Government is
 subject to restrictions as set forth in subparagraphs (a)
 and (c) of the Commercial Computer Software - Restricted
 Rights clause in FAR 52.227-19.
  
 Gaussian, Inc.
 340 Quinnipiac St., Bldg. 40, Wallingford CT 06492
  
  
 ---------------------------------------------------------------
 Warning -- This program may not be used in any manner that
 competes with the business of Gaussian, Inc. or will provide
 assistance to any competitor of Gaussian, Inc.  The licensee
 of this program is prohibited from giving any competitor of
 Gaussian, Inc. access to this program.  By using this program,
 the user acknowledges that Gaussian, Inc. is engaged in the
 business of creating and licensing software in the field of
 computational chemistry and represents and warrants to the
 licensee that it is not a competitor of Gaussian, Inc. and that
 it will not use this program in any manner prohibited above.
 ---------------------------------------------------------------
  

 Cite this work as:
 Gaussian 09, Revision D.01,
 M. J. Frisch, G. W. Trucks, H. B. Schlegel, G. E. Scuseria, 
 M. A. Robb, J. R. Cheeseman, G. Scalmani, V. Barone, B. Mennucci, 
 G. A. Petersson, H. Nakatsuji, M. Caricato, X. Li, H. P. Hratchian, 
 A. F. Izmaylov, J. Bloino, G. Zheng, J. L. Sonnenberg, M. Hada, 
 M. Ehara, K. Toyota, R. Fukuda, J. Hasegawa, M. Ishida, T. Nakajima, 
 Y. Honda, O. Kitao, H. Nakai, T. Vreven, J. A. Montgomery, Jr., 
 J. E. Peralta, F. Ogliaro, M. Bearpark, J. J. Heyd, E. Brothers, 
 K. N. Kudin, V. N. Staroverov, T. Keith, R. Kobayashi, J. Normand, 
 K. Raghavachari, A. Rendell, J. C. Burant, S. S. Iyengar, J. Tomasi, 
 M. Cossi, N. Rega, J. M. Millam, M. Klene, J. E. Knox, J. B. Cross, 
 V. Bakken, C. Adamo, J. Jaramillo, R. Gomperts, R. E. Stratmann, 
 O. Yazyev, A. J. Austin, R. Cammi, C. Pomelli, J. W. Ochterski, 
 R. L. Martin, K. Morokuma, V. G. Zakrzewski, G. A. Voth, 
 P. Salvador, J. J. Dannenberg, S. Dapprich, A. D. Daniels, 
 O. Farkas, J. B. Foresman, J. V. Ortiz, J. Cioslowski, 
 and D. J. Fox, Gaussian, Inc., Wallingford CT, 2013.
 
 ******************************************
 Gaussian 09:  ES64L-G09RevD.01 24-Apr-2013
                21-Oct-2016 
 ******************************************
 %mem=6GB
 %nprocshared=6
 Will use up to    6 processors via shared memory.
 %chk=h3c+-cbs4m
 --------------------------
 # cbs-4m geom=connectivity
 --------------------------
 1/18=20,19=15,38=1,57=2/1,3;
 2/9=110,12=2,17=6,18=5,40=1/2;
 3/5=5,6=3,7=1,11=9,16=1,25=1,30=1,71=1/1,2,3;
 4//1;
 5/5=2,38=5/2;
 6/7=2,8=2,9=2,10=2,28=1/1;
 7//1,2,3,16;
 1/18=20,19=15/3(2);
 2/9=110/2;
 99//99;
 2/9=110/2;
 3/5=5,6=3,7=1,11=9,16=1,25=1,30=1,71=1/1,2,3;
 4/5=5,16=3,69=1/1;
 5/5=2,38=5/2;
 7//1,2,3,16;
 1/18=20,19=15/3(-5);
 2/9=110/2;
 6/7=2,8=2,9=2,10=2,19=2,28=1/1;
 99/9=1/99;
 -------------------
 Title Card Required
 -------------------
 Symbolic Z-matrix:
 Charge =  0 Multiplicity = 2
 C
 H                    1    B1
 H                    1    B2       2    A1
 H                    1    B3       3    A2       2    D1       0
       Variables:
  B1                    1.07                     
  B2                    1.07                     
  B3                    1.07                     
  A1                  109.4712                   
  A2                  109.47122                  
  D1                 -120.                       
 
     2 tetrahedral angles replaced.

 GradGradGradGradGradGradGradGradGradGradGradGradGradGradGradGradGradGrad
 Berny optimization.
 Initialization pass.
                           ----------------------------
                           !    Initial Parameters    !
                           ! (Angstroms and Degrees)  !
 --------------------------                            --------------------------
 ! Name  Definition              Value          Derivative Info.                !
 --------------------------------------------------------------------------------
 ! R1    R(1,2)                  1.07           estimate D2E/DX2                !
 ! R2    R(1,3)                  1.07           estimate D2E/DX2                !
 ! R3    R(1,4)                  1.07           estimate D2E/DX2                !
 ! A1    A(2,1,3)              109.4712         estimate D2E/DX2                !
 ! A2    A(2,1,4)              109.4712         estimate D2E/DX2                !
 ! A3    A(3,1,4)              109.4712         estimate D2E/DX2                !
 ! D1    D(2,1,4,3)           -120.0            estimate D2E/DX2                !
 --------------------------------------------------------------------------------
 Trust Radius=3.00D-01 FncErr=1.00D-07 GrdErr=1.00D-07
 Number of steps in this run=     20 maximum allowed number of steps=    100.
 GradGradGradGradGradGradGradGradGradGradGradGradGradGradGradGradGradGrad

                          Input orientation:                          
 ---------------------------------------------------------------------
 Center     Atomic      Atomic             Coordinates (Angstroms)
 Number     Number       Type             X           Y           Z
 ---------------------------------------------------------------------
      1          6           0        0.000000    0.000000    0.000000
      2          1           0        0.000000    0.000000    1.070000
      3          1           0        1.008806    0.000000   -0.356667
      4          1           0       -0.504403   -0.873651   -0.356667
 ---------------------------------------------------------------------
                    Distance matrix (angstroms):
                    1          2          3          4
     1  C    0.000000
     2  H    1.070000   0.000000
     3  H    1.070000   1.747303   0.000000
     4  H    1.070000   1.747303   1.747303   0.000000
 Stoichiometry    CH3(2)
 Framework group  C3V[C3(C),3SGV(H)]
 Deg. of freedom     2
 Full point group                 C3V     NOp   6
 Largest Abelian subgroup         CS      NOp   2
 Largest concise Abelian subgroup CS      NOp   2
                         Standard orientation:                         
 ---------------------------------------------------------------------
 Center     Atomic      Atomic             Coordinates (Angstroms)
 Number     Number       Type             X           Y           Z
 ---------------------------------------------------------------------
      1          6           0        0.000000    0.000000    0.118889
      2          1           0        0.000000    1.008806   -0.237778
      3          1           0       -0.873651   -0.504403   -0.237778
      4          1           0        0.873651   -0.504403   -0.237778
 ---------------------------------------------------------------------
 Rotational constants (GHZ):    273.8152496    273.8152496    164.2463640
 Standard basis: 3-21G* (6D, 7F)
 There are    11 symmetry adapted cartesian basis functions of A'  symmetry.
 There are     4 symmetry adapted cartesian basis functions of A"  symmetry.
 There are    11 symmetry adapted basis functions of A'  symmetry.
 There are     4 symmetry adapted basis functions of A"  symmetry.
    15 basis functions,    24 primitive gaussians,    15 cartesian basis functions
     5 alpha electrons        4 beta electrons
       nuclear repulsion energy         9.8106078116 Hartrees.
 NAtoms=    4 NActive=    4 NUniq=    2 SFac= 4.00D+00 NAtFMM=   60 NAOKFM=F Big=F
 Integral buffers will be    131072 words long.
 Raffenetti 2 integral format.
 Two-electron integral symmetry is turned on.
 One-electron integrals computed using PRISM.
 NBasis=    15 RedAO= T EigKep=  4.67D-02  NBF=    11     4
 NBsUse=    15 1.00D-06 EigRej= -1.00D+00 NBFU=    11     4
 ExpMin= 1.83D-01 ExpMax= 1.72D+02 ExpMxC= 1.72D+02 IAcc=1 IRadAn=         1 AccDes= 0.00D+00
 Harris functional with IExCor=  205 and IRadAn=       1 diagonalized for initial guess.
 HarFok:  IExCor=  205 AccDes= 0.00D+00 IRadAn=         1 IDoV= 1 UseB2=F ITyADJ=14
 ICtDFT=  3500011 ScaDFX=  1.000000  1.000000  1.000000  1.000000
 FoFCou: FMM=F IPFlag=           0 FMFlag=      100000 FMFlg1=           0
         NFxFlg=           0 DoJE=T BraDBF=F KetDBF=T FulRan=T
         wScrn=  0.000000 ICntrl=     500 IOpCl=  0 I1Cent=   200000004 NGrid=           0
         NMat0=    1 NMatS0=      1 NMatT0=    0 NMatD0=    1 NMtDS0=    0 NMtDT0=    0
 Petite list used in FoFCou.
 Initial guess orbital symmetries:
 Alpha Orbitals:
       Occupied  (A1) (A1) (E) (E) (A1)
       Virtual   (A1) (E) (E) (E) (E) (A1) (A1) (E) (E) (A1)
 Beta  Orbitals:
       Occupied  (A1) (A1) (E) (E)
       Virtual   (A1) (A1) (E) (E) (E) (E) (A1) (A1) (E) (E) (A1)
 The electronic state of the initial guess is 2-A1.
 Initial guess <Sx>= 0.0000 <Sy>= 0.0000 <Sz>= 0.5000 <S**2>= 0.7500 S= 0.5000
 Keep R1 and R2 ints in memory in symmetry-blocked form, NReq=831745.
 Requested convergence on RMS density matrix=1.00D-08 within 128 cycles.
 Requested convergence on MAX density matrix=1.00D-06.
 Requested convergence on             energy=1.00D-06.
 No special actions if energy rises.
 SCF Done:  E(UHF) =  -39.3313402030     A.U. after   11 cycles
            NFock= 11  Conv=0.43D-08     -V/T= 2.0010
 <Sx>= 0.0000 <Sy>= 0.0000 <Sz>= 0.5000 <S**2>= 0.7581 S= 0.5040
 <L.S>= 0.000000000000E+00
 Annihilation of the first spin contaminant:
 S**2 before annihilation     0.7581,   after     0.7500

 **********************************************************************

            Population analysis using the SCF density.

 **********************************************************************

 Orbital symmetries:
 Alpha Orbitals:
       Occupied  (A1) (A1) (E) (E) (A1)
       Virtual   (A1) (E) (E) (E) (E) (A1) (A1) (E) (E) (A1)
 Beta  Orbitals:
       Occupied  (A1) (A1) (E) (E)
       Virtual   (A1) (A1) (E) (E) (E) (E) (A1) (A1) (E) (E) (A1)
 The electronic state is 2-A1.
 Alpha  occ. eigenvalues --  -11.17777  -0.96068  -0.56840  -0.56840  -0.42604
 Alpha virt. eigenvalues --    0.29841   0.34841   0.34841   0.90766   0.90766
 Alpha virt. eigenvalues --    0.93563   1.26528   1.35394   1.35394   1.77395
  Beta  occ. eigenvalues --  -11.15179  -0.87541  -0.54554  -0.54554
  Beta virt. eigenvalues --    0.14359   0.31193   0.37188   0.37188   0.92367
  Beta virt. eigenvalues --    0.92367   1.07729   1.27684   1.36803   1.36803
  Beta virt. eigenvalues --    1.81578
          Condensed to atoms (all electrons):
               1          2          3          4
     1  C    5.484320   0.360936   0.360936   0.360936
     2  H    0.360936   0.521039  -0.035508  -0.035508
     3  H    0.360936  -0.035508   0.521039  -0.035508
     4  H    0.360936  -0.035508  -0.035508   0.521039
          Atomic-Atomic Spin Densities.
               1          2          3          4
     1  C    1.326586  -0.022514  -0.022514  -0.022514
     2  H   -0.022514  -0.078637   0.007402   0.007402
     3  H   -0.022514   0.007402  -0.078637   0.007402
     4  H   -0.022514   0.007402   0.007402  -0.078637
 Mulliken charges and spin densities:
               1          2
     1  C   -0.567127   1.259043
     2  H    0.189042  -0.086348
     3  H    0.189042  -0.086348
     4  H    0.189042  -0.086348
 Sum of Mulliken charges =   0.00000   1.00000
 Mulliken charges and spin densities with hydrogens summed into heavy atoms:
               1          2
     1  C    0.000000   1.000000
 Electronic spatial extent (au):  <R**2>=             29.2525
 Charge=              0.0000 electrons
 Dipole moment (field-independent basis, Debye):
    X=              0.0000    Y=              0.0000    Z=             -0.6572  Tot=              0.6572
 Quadrupole moment (field-independent basis, Debye-Ang):
   XX=             -7.5399   YY=             -7.5399   ZZ=             -8.3794
   XY=              0.0000   XZ=              0.0000   YZ=              0.0000
 Traceless Quadrupole moment (field-independent basis, Debye-Ang):
   XX=              0.2798   YY=              0.2798   ZZ=             -0.5597
   XY=              0.0000   XZ=              0.0000   YZ=              0.0000
 Octapole moment (field-independent basis, Debye-Ang**2):
  XXX=              0.0000  YYY=              0.5138  ZZZ=             -0.9056  XYY=              0.0000
  XXY=             -0.5138  XXZ=             -0.6103  XZZ=              0.0000  YZZ=              0.0000
  YYZ=             -0.6103  XYZ=              0.0000
 Hexadecapole moment (field-independent basis, Debye-Ang**3):
 XXXX=            -13.7700 YYYY=            -13.7700 ZZZZ=             -9.6800 XXXY=              0.0000
 XXXZ=              0.0000 YYYX=              0.0000 YYYZ=             -0.2399 ZZZX=              0.0000
 ZZZY=              0.0000 XXYY=             -4.5900 XXZZ=             -3.9812 YYZZ=             -3.9812
 XXYZ=              0.2399 YYXZ=              0.0000 ZZXY=              0.0000
 N-N= 9.810607811634D+00 E-N=-1.107545930611D+02  KE= 3.929025401730D+01
 Symmetry A'   KE= 3.736251589810D+01
 Symmetry A"   KE= 1.927738119193D+00
                          Isotropic Fermi Contact Couplings
        Atom                 a.u.       MegaHertz       Gauss      10(-4) cm-1
     1  C(13)              0.36161     406.51972     145.05634     135.60038
     2  H(1)              -0.01773     -79.24738     -28.27743     -26.43408
     3  H(1)              -0.01773     -79.24738     -28.27743     -26.43408
     4  H(1)              -0.01773     -79.24738     -28.27743     -26.43408
 --------------------------------------------------------
       Center         ----  Spin Dipole Couplings  ----
                      3XX-RR        3YY-RR        3ZZ-RR
 --------------------------------------------------------
     1   Atom       -0.414781     -0.414781      0.829561
     2   Atom       -0.070371      0.073288     -0.002917
     3   Atom        0.037373     -0.034456     -0.002917
     4   Atom        0.037373     -0.034456     -0.002917
 --------------------------------------------------------
                        XY            XZ            YZ
 --------------------------------------------------------
     1   Atom        0.000000      0.000000      0.000000
     2   Atom        0.000000      0.000000     -0.042138
     3   Atom        0.062206      0.036493      0.021069
     4   Atom       -0.062206     -0.036493      0.021069
 --------------------------------------------------------


 ---------------------------------------------------------------------------------
              Anisotropic Spin Dipole Couplings in Principal Axis System
 ---------------------------------------------------------------------------------

       Atom             a.u.   MegaHertz   Gauss  10(-4) cm-1        Axes

              Baa    -0.4148   -55.660   -19.861   -18.566  0.0046  1.0000  0.0000
     1 C(13)  Bbb    -0.4148   -55.660   -19.861   -18.566  1.0000 -0.0046  0.0000
              Bcc     0.8296   111.319    39.721    37.132  0.0000  0.0000  1.0000
 
              Baa    -0.0704   -37.547   -13.398   -12.524  1.0000  0.0000  0.0000
     2 H(1)   Bbb    -0.0216   -11.538    -4.117    -3.849  0.0000  0.4058  0.9140
              Bcc     0.0920    49.085    17.515    16.373  0.0000  0.9140 -0.4058
 
              Baa    -0.0704   -37.547   -13.398   -12.524 -0.5000  0.8660  0.0000
     3 H(1)   Bbb    -0.0216   -11.538    -4.117    -3.849 -0.3514 -0.2029  0.9140
              Bcc     0.0920    49.085    17.515    16.373  0.7915  0.4570  0.4058
 
              Baa    -0.0704   -37.547   -13.398   -12.524  0.5000  0.8660  0.0000
     4 H(1)   Bbb    -0.0216   -11.538    -4.117    -3.849  0.3514 -0.2029  0.9140
              Bcc     0.0920    49.085    17.515    16.373  0.7915 -0.4570 -0.4058
 

 ---------------------------------------------------------------------------------

 Calling FoFJK, ICntrl=      2127 FMM=F ISym2X=1 I1Cent= 0 IOpClX= 1 NMat=1 NMatS=1 NMatT=0.
 ***** Axes restored to original set *****
 -------------------------------------------------------------------
 Center     Atomic                   Forces (Hartrees/Bohr)
 Number     Number              X              Y              Z
 -------------------------------------------------------------------
      1        6           0.018051439   -0.031266010    0.012764295
      2        1          -0.008358133    0.014476712    0.008987858
      3        1           0.005687789    0.014476712   -0.010876077
      4        1          -0.015381095    0.002312586   -0.010876076
 -------------------------------------------------------------------
 Cartesian Forces:  Max     0.031266010 RMS     0.014568775

 GradGradGradGradGradGradGradGradGradGradGradGradGradGradGradGradGradGrad
 Berny optimization.
 FormGI is forming the generalized inverse of G from B-inverse, IUseBI=4.
 Internal  Forces:  Max     0.025475001 RMS     0.014931159
 Search for a local minimum.
 Step number   1 out of a maximum of   20
 All quantities printed in internal units (Hartrees-Bohrs-Radians)
 Mixed Optimization -- RFO/linear search
 Second derivative matrix not updated -- first step.
 The second derivative matrix:
                          R1        R2        R3        A1        A2
           R1           0.37230
           R2           0.00000   0.37230
           R3           0.00000   0.00000   0.37230
           A1           0.00000   0.00000   0.00000   0.16000
           A2           0.00000   0.00000   0.00000   0.00000   0.16000
           A3           0.00000   0.00000   0.00000   0.00000   0.00000
           D1           0.00000   0.00000   0.00000   0.00000   0.00000
                          A3        D1
           A3           0.16000
           D1           0.00000   0.00499
 ITU=  0
     Eigenvalues ---    0.05269   0.16000   0.16000   0.37230   0.37230
     Eigenvalues ---    0.37230
 RFO step:  Lambda=-1.63592233D-02 EMin= 5.26880960D-02
 Linear search not attempted -- first point.
 Iteration  1 RMS(Cart)=  0.09116411 RMS(Int)=  0.05716232
 Iteration  2 RMS(Cart)=  0.02836717 RMS(Int)=  0.02476637
 Iteration  3 RMS(Cart)=  0.00189488 RMS(Int)=  0.02467142
 Iteration  4 RMS(Cart)=  0.00006292 RMS(Int)=  0.02467128
 Iteration  5 RMS(Cart)=  0.00000292 RMS(Int)=  0.02467128
 Iteration  6 RMS(Cart)=  0.00000014 RMS(Int)=  0.02467128
 ClnCor:  largest displacement from symmetrization is 1.77D-02 for atom     4.
 Variable       Old X    -DE/DX   Delta X   Delta X   Delta X     New X
                                 (Linear)    (Quad)   (Total)
    R1        2.02201   0.00899   0.00000   0.02313   0.01783   2.03984
    R2        2.02201   0.00899   0.00000   0.02313   0.01783   2.03984
    R3        2.02201   0.00899   0.00000   0.02313   0.01783   2.03984
    A1        1.91063   0.00260   0.00000   0.13695   0.11898   2.02961
    A2        1.91063   0.01820   0.00000   0.16430   0.11898   2.02961
    A3        1.91063   0.01820   0.00000   0.16430   0.11898   2.02961
    D1       -2.09440  -0.02548   0.00000  -0.36895  -0.39536  -2.48975
         Item               Value     Threshold  Converged?
 Maximum Force            0.025475     0.000450     NO 
 RMS     Force            0.014931     0.000300     NO 
 Maximum Displacement     0.170084     0.001800     NO 
 RMS     Displacement     0.109404     0.001200     NO 
 Predicted change in Energy=-1.122749D-02
 GradGradGradGradGradGradGradGradGradGradGradGradGradGradGradGradGradGrad

                          Input orientation:                          
 ---------------------------------------------------------------------
 Center     Atomic      Atomic             Coordinates (Angstroms)
 Number     Number       Type             X           Y           Z
 ---------------------------------------------------------------------
      1          6           0        0.051964   -0.090005    0.036744
      2          1           0       -0.025192    0.043635    1.105094
      3          1           0        1.033495    0.043635   -0.392116
      4          1           0       -0.554536   -0.873215   -0.392116
 ---------------------------------------------------------------------
                    Distance matrix (angstroms):
                    1          2          3          4
     1  C    0.000000
     2  H    1.079437   0.000000
     3  H    1.079437   1.833700   0.000000
     4  H    1.079437   1.833700   1.833700   0.000000
 Stoichiometry    CH3(2)
 Framework group  C3V[C3(C),3SGV(H)]
 Deg. of freedom     2
 Full point group                 C3V     NOp   6
 Largest Abelian subgroup         CS      NOp   2
 Largest concise Abelian subgroup CS      NOp   2
                         Standard orientation:                         
 ---------------------------------------------------------------------
 Center     Atomic      Atomic             Coordinates (Angstroms)
 Number     Number       Type             X           Y           Z
 ---------------------------------------------------------------------
      1          6           0        0.000000    0.000000    0.070209
      2          1           0        0.000000    1.058687   -0.140419
      3          1           0       -0.916850   -0.529344   -0.140419
      4          1           0        0.916850   -0.529344   -0.140419
 ---------------------------------------------------------------------
 Rotational constants (GHZ):    280.5286191    280.5286191    149.1335550
 Standard basis: 3-21G* (6D, 7F)
 There are    11 symmetry adapted cartesian basis functions of A'  symmetry.
 There are     4 symmetry adapted cartesian basis functions of A"  symmetry.
 There are    11 symmetry adapted basis functions of A'  symmetry.
 There are     4 symmetry adapted basis functions of A"  symmetry.
    15 basis functions,    24 primitive gaussians,    15 cartesian basis functions
     5 alpha electrons        4 beta electrons
       nuclear repulsion energy         9.6899771852 Hartrees.
 NAtoms=    4 NActive=    4 NUniq=    2 SFac= 4.00D+00 NAtFMM=   60 NAOKFM=F Big=F
 Integral buffers will be    131072 words long.
 Raffenetti 2 integral format.
 Two-electron integral symmetry is turned on.
 One-electron integrals computed using PRISM.
 NBasis=    15 RedAO= T EigKep=  5.38D-02  NBF=    11     4
 NBsUse=    15 1.00D-06 EigRej= -1.00D+00 NBFU=    11     4
 Initial guess from the checkpoint file:  "h3c+-cbs4m.chk"
 B after Tr=     0.000000    0.000000    0.000000
         Rot=    1.000000    0.000000    0.000000    0.000000 Ang=   0.00 deg.
 Initial guess orbital symmetries:
 Alpha Orbitals:
       Occupied  (A1) (A1) (E) (E) (A1)
       Virtual   (?A) (?A) (?A) (?A) (?A) (?A) (?A) (?A) (?A) (?A)
 Beta  Orbitals:
       Occupied  (A1) (A1) (E) (E)
       Virtual   (?A) (?A) (?A) (?A) (?A) (?A) (?A) (?A) (?A) (?A)
                 (?A)
 Initial guess <Sx>= 0.0000 <Sy>= 0.0000 <Sz>= 0.5000 <S**2>= 0.7585 S= 0.5042
 ExpMin= 1.83D-01 ExpMax= 1.72D+02 ExpMxC= 1.72D+02 IAcc=1 IRadAn=         1 AccDes= 0.00D+00
 Harris functional with IExCor=  205 and IRadAn=       1 diagonalized for initial guess.
 HarFok:  IExCor=  205 AccDes= 0.00D+00 IRadAn=         1 IDoV= 1 UseB2=F ITyADJ=14
 ICtDFT=  3500011 ScaDFX=  1.000000  1.000000  1.000000  1.000000
 FoFCou: FMM=F IPFlag=           0 FMFlag=      100000 FMFlg1=           0
         NFxFlg=           0 DoJE=T BraDBF=F KetDBF=T FulRan=T
         wScrn=  0.000000 ICntrl=     500 IOpCl=  0 I1Cent=   200000004 NGrid=           0
         NMat0=    1 NMatS0=      1 NMatT0=    0 NMatD0=    1 NMtDS0=    0 NMtDT0=    0
 Petite list used in FoFCou.
 Keep R1 and R2 ints in memory in symmetry-blocked form, NReq=831703.
 Requested convergence on RMS density matrix=1.00D-08 within 128 cycles.
 Requested convergence on MAX density matrix=1.00D-06.
 Requested convergence on             energy=1.00D-06.
 No special actions if energy rises.
 SCF Done:  E(UHF) =  -39.3403738507     A.U. after   12 cycles
            NFock= 12  Conv=0.39D-08     -V/T= 2.0029
 <Sx>= 0.0000 <Sy>= 0.0000 <Sz>= 0.5000 <S**2>= 0.7600 S= 0.5050
 <L.S>= 0.000000000000E+00
 Annihilation of the first spin contaminant:
 S**2 before annihilation     0.7600,   after     0.7501
 Calling FoFJK, ICntrl=      2127 FMM=F ISym2X=1 I1Cent= 0 IOpClX= 1 NMat=1 NMatS=1 NMatT=0.
 ***** Axes restored to original set *****
 -------------------------------------------------------------------
 Center     Atomic                   Forces (Hartrees/Bohr)
 Number     Number              X              Y              Z
 -------------------------------------------------------------------
      1        6           0.007687320   -0.013314828    0.005435756
      2        1          -0.002242124    0.003883473   -0.003623897
      3        1          -0.004164017    0.003883473   -0.000905930
      4        1          -0.001281178    0.005547881   -0.000905930
 -------------------------------------------------------------------
 Cartesian Forces:  Max     0.013314828 RMS     0.005520042

 GradGradGradGradGradGradGradGradGradGradGradGradGradGradGradGradGradGrad
 Berny optimization.
 Using GEDIIS/GDIIS optimizer.
 FormGI is forming the generalized inverse of G from B-inverse, IUseBI=4.
 Internal  Forces:  Max     0.008688325 RMS     0.004151379
 Search for a local minimum.
 Step number   2 out of a maximum of   20
 All quantities printed in internal units (Hartrees-Bohrs-Radians)
 Mixed Optimization -- RFO/linear search
 Update second derivatives using D2CorX and points    1    2
 DE= -9.03D-03 DEPred=-1.12D-02 R= 8.05D-01
 TightC=F SS=  1.41D+00  RLast= 4.47D-01 DXNew= 5.0454D-01 1.3407D+00
 Trust test= 8.05D-01 RLast= 4.47D-01 DXMaxT set to 5.05D-01
 The second derivative matrix:
                          R1        R2        R3        A1        A2
           R1           0.37946
           R2           0.00715   0.37946
           R3           0.00715   0.00715   0.37946
           A1          -0.01297  -0.01297  -0.01297   0.11500
           A2           0.00016   0.00016   0.00016  -0.04194   0.13469
           A3           0.00016   0.00016   0.00016  -0.04194  -0.02531
           D1          -0.01623  -0.01623  -0.01623   0.00056  -0.01790
                          A3        D1
           A3           0.13469
           D1          -0.01790   0.02966
 ITU=  1  0
 Use linear search instead of GDIIS.
     Eigenvalues ---    0.04078   0.16000   0.17207   0.37230   0.37230
     Eigenvalues ---    0.39654
 RFO step:  Lambda=-1.14430767D-03 EMin= 4.07824081D-02
 Quartic linear search produced a step of  0.62605.
 Iteration  1 RMS(Cart)=  0.04898054 RMS(Int)=  0.04887292
 Iteration  2 RMS(Cart)=  0.02201613 RMS(Int)=  0.02595653
 Iteration  3 RMS(Cart)=  0.00127666 RMS(Int)=  0.02589818
 Iteration  4 RMS(Cart)=  0.00003715 RMS(Int)=  0.02589810
 Iteration  5 RMS(Cart)=  0.00000147 RMS(Int)=  0.02589810
 Iteration  6 RMS(Cart)=  0.00000006 RMS(Int)=  0.02589810
 ClnCor:  largest displacement from symmetrization is 1.61D-02 for atom     4.
 Variable       Old X    -DE/DX   Delta X   Delta X   Delta X     New X
                                 (Linear)    (Quad)   (Total)
    R1        2.03984  -0.00295   0.01116  -0.02760  -0.01132   2.02852
    R2        2.03984  -0.00295   0.01116  -0.02760  -0.01132   2.02852
    R3        2.03984  -0.00295   0.01116  -0.02760  -0.01132   2.02852
    A1        2.02961  -0.00019   0.07449   0.03974   0.05005   2.07967
    A2        2.02961   0.00309   0.07449   0.00171   0.05005   2.07967
    A3        2.02961   0.00309   0.07449   0.00171   0.05005   2.07967
    D1       -2.48975  -0.00869  -0.24751  -0.07807  -0.33443  -2.82418
         Item               Value     Threshold  Converged?
 Maximum Force            0.008688     0.000450     NO 
 RMS     Force            0.004151     0.000300     NO 
 Maximum Displacement     0.128507     0.001800     NO 
 RMS     Displacement     0.070069     0.001200     NO 
 Predicted change in Energy=-9.363390D-04
 GradGradGradGradGradGradGradGradGradGradGradGradGradGradGradGradGradGrad

                          Input orientation:                          
 ---------------------------------------------------------------------
 Center     Atomic      Atomic             Coordinates (Angstroms)
 Number     Number       Type             X           Y           Z
 ---------------------------------------------------------------------
      1          6           0        0.091226   -0.158008    0.064506
      2          1           0       -0.040157    0.069554    1.105296
      3          1           0        1.028698    0.069554   -0.406292
      4          1           0       -0.574584   -0.856102   -0.406292
 ---------------------------------------------------------------------
                    Distance matrix (angstroms):
                    1          2          3          4
     1  C    0.000000
     2  H    1.073447   0.000000
     3  H    1.073447   1.851311   0.000000
     4  H    1.073447   1.851311   1.851311   0.000000
 Stoichiometry    CH3(2)
 Framework group  C3V[C3(C),3SGV(H)]
 Deg. of freedom     2
 Full point group                 C3V     NOp   6
 Largest Abelian subgroup         CS      NOp   2
 Largest concise Abelian subgroup CS      NOp   2
                         Standard orientation:                         
 ---------------------------------------------------------------------
 Center     Atomic      Atomic             Coordinates (Angstroms)
 Number     Number       Type             X           Y           Z
 ---------------------------------------------------------------------
      1          6           0        0.000000    0.000000    0.033064
      2          1           0        0.000000    1.068855   -0.066128
      3          1           0       -0.925655   -0.534427   -0.066128
      4          1           0        0.925655   -0.534427   -0.066128
 ---------------------------------------------------------------------
 Rotational constants (GHZ):    288.6483661    288.6483661    146.3098237
 Standard basis: 3-21G* (6D, 7F)
 There are    11 symmetry adapted cartesian basis functions of A'  symmetry.
 There are     4 symmetry adapted cartesian basis functions of A"  symmetry.
 There are    11 symmetry adapted basis functions of A'  symmetry.
 There are     4 symmetry adapted basis functions of A"  symmetry.
    15 basis functions,    24 primitive gaussians,    15 cartesian basis functions
     5 alpha electrons        4 beta electrons
       nuclear repulsion energy         9.7309746130 Hartrees.
 NAtoms=    4 NActive=    4 NUniq=    2 SFac= 4.00D+00 NAtFMM=   60 NAOKFM=F Big=F
 Integral buffers will be    131072 words long.
 Raffenetti 2 integral format.
 Two-electron integral symmetry is turned on.
 One-electron integrals computed using PRISM.
 NBasis=    15 RedAO= T EigKep=  5.53D-02  NBF=    11     4
 NBsUse=    15 1.00D-06 EigRej= -1.00D+00 NBFU=    11     4
 Initial guess from the checkpoint file:  "h3c+-cbs4m.chk"
 B after Tr=     0.000000    0.000000    0.000000
         Rot=    1.000000    0.000000    0.000000    0.000000 Ang=   0.00 deg.
 Initial guess orbital symmetries:
 Alpha Orbitals:
       Occupied  (A1) (A1) (E) (E) (A1)
       Virtual   (?A) (?A) (?A) (?A) (?A) (?A) (?A) (?A) (?A) (?A)
 Beta  Orbitals:
       Occupied  (A1) (A1) (E) (E)
       Virtual   (?A) (?A) (?A) (?A) (?A) (?A) (?A) (?A) (?A) (?A)
                 (?A)
 Initial guess <Sx>= 0.0000 <Sy>= 0.0000 <Sz>= 0.5000 <S**2>= 0.7602 S= 0.5051
 ExpMin= 1.83D-01 ExpMax= 1.72D+02 ExpMxC= 1.72D+02 IAcc=1 IRadAn=         1 AccDes= 0.00D+00
 Harris functional with IExCor=  205 and IRadAn=       1 diagonalized for initial guess.
 HarFok:  IExCor=  205 AccDes= 0.00D+00 IRadAn=         1 IDoV= 1 UseB2=F ITyADJ=14
 ICtDFT=  3500011 ScaDFX=  1.000000  1.000000  1.000000  1.000000
 FoFCou: FMM=F IPFlag=           0 FMFlag=      100000 FMFlg1=           0
         NFxFlg=           0 DoJE=T BraDBF=F KetDBF=T FulRan=T
         wScrn=  0.000000 ICntrl=     500 IOpCl=  0 I1Cent=   200000004 NGrid=           0
         NMat0=    1 NMatS0=      1 NMatT0=    0 NMatD0=    1 NMtDS0=    0 NMtDT0=    0
 Petite list used in FoFCou.
 Keep R1 and R2 ints in memory in symmetry-blocked form, NReq=831703.
 Requested convergence on RMS density matrix=1.00D-08 within 128 cycles.
 Requested convergence on MAX density matrix=1.00D-06.
 Requested convergence on             energy=1.00D-06.
 No special actions if energy rises.
 SCF Done:  E(UHF) =  -39.3422726403     A.U. after   12 cycles
            NFock= 12  Conv=0.27D-08     -V/T= 2.0025
 <Sx>= 0.0000 <Sy>= 0.0000 <Sz>= 0.5000 <S**2>= 0.7614 S= 0.5057
 <L.S>= 0.000000000000E+00
 Annihilation of the first spin contaminant:
 S**2 before annihilation     0.7614,   after     0.7501
 Calling FoFJK, ICntrl=      2127 FMM=F ISym2X=1 I1Cent= 0 IOpClX= 1 NMat=1 NMatS=1 NMatT=0.
 ***** Axes restored to original set *****
 -------------------------------------------------------------------
 Center     Atomic                   Forces (Hartrees/Bohr)
 Number     Number              X              Y              Z
 -------------------------------------------------------------------
      1        6           0.001982852   -0.003434400    0.001402088
      2        1          -0.000570179    0.000987580   -0.000980842
      3        1          -0.001114807    0.000987580   -0.000210623
      4        1          -0.000297866    0.001459241   -0.000210623
 -------------------------------------------------------------------
 Cartesian Forces:  Max     0.003434400 RMS     0.001428288

 GradGradGradGradGradGradGradGradGradGradGradGradGradGradGradGradGradGrad
 Berny optimization.
 Using GEDIIS/GDIIS optimizer.
 FormGI is forming the generalized inverse of G from B-inverse, IUseBI=4.
 Internal  Forces:  Max     0.002370917 RMS     0.001018192
 Search for a local minimum.
 Step number   3 out of a maximum of   20
 All quantities printed in internal units (Hartrees-Bohrs-Radians)
 Mixed Optimization -- RFO/linear search
 Update second derivatives using D2CorX and points    2    3
 DE= -1.90D-03 DEPred=-9.36D-04 R= 2.03D+00
 TightC=F SS=  1.41D+00  RLast= 3.46D-01 DXNew= 8.4853D-01 1.0381D+00
 Trust test= 2.03D+00 RLast= 3.46D-01 DXMaxT set to 8.49D-01
 The second derivative matrix:
                          R1        R2        R3        A1        A2
           R1           0.38154
           R2           0.00924   0.38154
           R3           0.00924   0.00924   0.38154
           A1          -0.01298  -0.01298  -0.01298   0.11431
           A2          -0.00302  -0.00302  -0.00302  -0.04565   0.11921
           A3          -0.00302  -0.00302  -0.00302  -0.04565  -0.04079
           D1          -0.00959  -0.00959  -0.00959   0.00513  -0.00291
                          A3        D1
           A3           0.11921
           D1          -0.00291   0.01976
 ITU=  1  1  0
 Use linear search instead of GDIIS.
     Eigenvalues ---    0.01935   0.16000   0.16282   0.37230   0.37230
     Eigenvalues ---    0.40128
 RFO step:  Lambda=-1.23626721D-04 EMin= 1.93500707D-02
 Quartic linear search produced a step of  1.49893.
 Iteration  1 RMS(Cart)=  0.04263707 RMS(Int)=  0.12310032
 Iteration  2 RMS(Cart)=  0.03959035 RMS(Int)=  0.05670048
 Iteration  3 RMS(Cart)=  0.01868823 RMS(Int)=  0.04463080
 Iteration  4 RMS(Cart)=  0.00122440 RMS(Int)=  0.04457843
 Iteration  5 RMS(Cart)=  0.00007461 RMS(Int)=  0.04457824
 Iteration  6 RMS(Cart)=  0.00000468 RMS(Int)=  0.04457824
 Iteration  7 RMS(Cart)=  0.00000029 RMS(Int)=  0.04457824
 ClnCor:  largest displacement from symmetrization is 1.09D-02 for atom     4.
 Variable       Old X    -DE/DX   Delta X   Delta X   Delta X     New X
                                 (Linear)    (Quad)   (Total)
    R1        2.02852  -0.00067  -0.01696   0.00615  -0.00724   2.02128
    R2        2.02852  -0.00067  -0.01696   0.00615  -0.00724   2.02128
    R3        2.02852  -0.00067  -0.01696   0.00615  -0.00724   2.02128
    A1        2.07967  -0.00006   0.07503   0.01925   0.00909   2.08876
    A2        2.07967   0.00037   0.07503  -0.00687   0.00909   2.08876
    A3        2.07967   0.00037   0.07503  -0.00687   0.00909   2.08876
    D1       -2.82418  -0.00237  -0.50129  -0.02274  -0.51449   2.94451
         Item               Value     Threshold  Converged?
 Maximum Force            0.002371     0.000450     NO 
 RMS     Force            0.001018     0.000300     NO 
 Maximum Displacement     0.185176     0.001800     NO 
 RMS     Displacement     0.099127     0.001200     NO 
 Predicted change in Energy=-1.309661D-03
 GradGradGradGradGradGradGradGradGradGradGradGradGradGradGradGradGradGrad

                          Input orientation:                          
 ---------------------------------------------------------------------
 Center     Atomic      Atomic             Coordinates (Angstroms)
 Number     Number       Type             X           Y           Z
 ---------------------------------------------------------------------
      1          6           0        0.147801   -0.255999    0.104511
      2          1           0       -0.058957    0.102117    1.090960
      3          1           0        1.008915    0.102117   -0.419239
      4          1           0       -0.592893   -0.822687   -0.419239
 ---------------------------------------------------------------------
                    Distance matrix (angstroms):
                    1          2          3          4
     1  C    0.000000
     2  H    1.069616   0.000000
     3  H    1.069616   1.849608   0.000000
     4  H    1.069616   1.849608   1.849608   0.000000
 Stoichiometry    CH3(2)
 Framework group  C3V[C3(C),3SGV(H)]
 Deg. of freedom     2
 Full point group                 C3V     NOp   6
 Largest Abelian subgroup         CS      NOp   2
 Largest concise Abelian subgroup CS      NOp   2
                         Standard orientation:                         
 ---------------------------------------------------------------------
 Center     Atomic      Atomic             Coordinates (Angstroms)
 Number     Number       Type             X           Y           Z
 ---------------------------------------------------------------------
      1          6           0        0.000000    0.000000   -0.020350
      2          1           0        0.000000    1.067872    0.040700
      3          1           0       -0.924804   -0.533936    0.040700
      4          1           0        0.924804   -0.533936    0.040700
 ---------------------------------------------------------------------
 Rotational constants (GHZ):    291.6357724    291.6357724    146.5792519
 Standard basis: 3-21G* (6D, 7F)
 There are    11 symmetry adapted cartesian basis functions of A'  symmetry.
 There are     4 symmetry adapted cartesian basis functions of A"  symmetry.
 There are    11 symmetry adapted basis functions of A'  symmetry.
 There are     4 symmetry adapted basis functions of A"  symmetry.
    15 basis functions,    24 primitive gaussians,    15 cartesian basis functions
     5 alpha electrons        4 beta electrons
       nuclear repulsion energy         9.7635526918 Hartrees.
 NAtoms=    4 NActive=    4 NUniq=    2 SFac= 4.00D+00 NAtFMM=   60 NAOKFM=F Big=F
 Integral buffers will be    131072 words long.
 Raffenetti 2 integral format.
 Two-electron integral symmetry is turned on.
 One-electron integrals computed using PRISM.
 NBasis=    15 RedAO= T EigKep=  5.51D-02  NBF=    11     4
 NBsUse=    15 1.00D-06 EigRej= -1.00D+00 NBFU=    11     4
 Initial guess from the checkpoint file:  "h3c+-cbs4m.chk"
 B after Tr=     0.000000    0.000000    0.000000
         Rot=    1.000000    0.000000    0.000000    0.000000 Ang=   0.00 deg.
 Initial guess orbital symmetries:
 Alpha Orbitals:
       Occupied  (A1) (A1) (?A) (?A) (A1)
       Virtual   (?A) (?A) (?A) (?A) (?A) (?A) (?A) (?A) (?A) (?A)
 Beta  Orbitals:
       Occupied  (A1) (A1) (?A) (?A)
       Virtual   (?A) (?A) (?A) (?A) (?A) (?A) (?A) (?A) (?A) (?A)
                 (?A)
 Initial guess <Sx>= 0.0000 <Sy>= 0.0000 <Sz>= 0.5000 <S**2>= 0.7616 S= 0.5058
 ExpMin= 1.83D-01 ExpMax= 1.72D+02 ExpMxC= 1.72D+02 IAcc=1 IRadAn=         1 AccDes= 0.00D+00
 Harris functional with IExCor=  205 and IRadAn=       1 diagonalized for initial guess.
 HarFok:  IExCor=  205 AccDes= 0.00D+00 IRadAn=         1 IDoV= 1 UseB2=F ITyADJ=14
 ICtDFT=  3500011 ScaDFX=  1.000000  1.000000  1.000000  1.000000
 FoFCou: FMM=F IPFlag=           0 FMFlag=      100000 FMFlg1=           0
         NFxFlg=           0 DoJE=T BraDBF=F KetDBF=T FulRan=T
         wScrn=  0.000000 ICntrl=     500 IOpCl=  0 I1Cent=   200000004 NGrid=           0
         NMat0=    1 NMatS0=      1 NMatT0=    0 NMatD0=    1 NMtDS0=    0 NMtDT0=    0
 Petite list used in FoFCou.
 Keep R1 and R2 ints in memory in symmetry-blocked form, NReq=831703.
 Requested convergence on RMS density matrix=1.00D-08 within 128 cycles.
 Requested convergence on MAX density matrix=1.00D-06.
 Requested convergence on             energy=1.00D-06.
 No special actions if energy rises.
 SCF Done:  E(UHF) =  -39.3424807879     A.U. after   11 cycles
            NFock= 11  Conv=0.71D-08     -V/T= 2.0022
 <Sx>= 0.0000 <Sy>= 0.0000 <Sz>= 0.5000 <S**2>= 0.7615 S= 0.5057
 <L.S>= 0.000000000000E+00
 Annihilation of the first spin contaminant:
 S**2 before annihilation     0.7615,   after     0.7501
 Calling FoFJK, ICntrl=      2127 FMM=F ISym2X=1 I1Cent= 0 IOpClX= 1 NMat=1 NMatS=1 NMatT=0.
 ***** Axes restored to original set *****
 -------------------------------------------------------------------
 Center     Atomic                   Forces (Hartrees/Bohr)
 Number     Number              X              Y              Z
 -------------------------------------------------------------------
      1        6          -0.000888290    0.001538564   -0.000628116
      2        1          -0.000016597    0.000028747    0.001978236
      3        1           0.001859566    0.000028747   -0.000675060
      4        1          -0.000954679   -0.001596058   -0.000675060
 -------------------------------------------------------------------
 Cartesian Forces:  Max     0.001978236 RMS     0.001128950

 GradGradGradGradGradGradGradGradGradGradGradGradGradGradGradGradGradGrad
 Berny optimization.
 Using GEDIIS/GDIIS optimizer.
 FormGI is forming the generalized inverse of G from B-inverse, IUseBI=4.
 Internal  Forces:  Max     0.001837254 RMS     0.001299111
 Search for a local minimum.
 Step number   4 out of a maximum of   20
 All quantities printed in internal units (Hartrees-Bohrs-Radians)
 Mixed Optimization -- RFO/linear search
 Update second derivatives using D2CorX and points    3    4
 DE= -2.08D-04 DEPred=-1.31D-03 R= 1.59D-01
 Trust test= 1.59D-01 RLast= 5.15D-01 DXMaxT set to 8.49D-01
 The second derivative matrix:
                          R1        R2        R3        A1        A2
           R1           0.38410
           R2           0.01180   0.38410
           R3           0.01180   0.01180   0.38410
           A1          -0.01215  -0.01215  -0.01215   0.11341
           A2          -0.00402  -0.00402  -0.00402  -0.04487   0.11857
           A3          -0.00402  -0.00402  -0.00402  -0.04487  -0.04143
           D1          -0.00122  -0.00122  -0.00122   0.00101   0.00026
                          A3        D1
           A3           0.11857
           D1           0.00026   0.00719
 ITU=  0  1  1  0
 Use linear search instead of GDIIS.
     Eigenvalues ---    0.00754   0.16000   0.16069   0.37230   0.37230
     Eigenvalues ---    0.40826
 RFO step:  Lambda=-5.14544240D-06 EMin= 7.53647768D-03
 Quartic linear search produced a step of -0.40681.
 Iteration  1 RMS(Cart)=  0.03859074 RMS(Int)=  0.00812078
 Iteration  2 RMS(Cart)=  0.00331547 RMS(Int)=  0.00603945
 Iteration  3 RMS(Cart)=  0.00002093 RMS(Int)=  0.00603934
 Iteration  4 RMS(Cart)=  0.00000014 RMS(Int)=  0.00603934
 ClnCor:  largest displacement from symmetrization is 5.95D-04 for atom     4.
 Variable       Old X    -DE/DX   Delta X   Delta X   Delta X     New X
                                 (Linear)    (Quad)   (Total)
    R1        2.02128   0.00184   0.00295   0.00200   0.00475   2.02603
    R2        2.02128   0.00184   0.00295   0.00200   0.00475   2.02603
    R3        2.02128   0.00184   0.00295   0.00200   0.00475   2.02603
    A1        2.08876  -0.00002  -0.00370  -0.00082   0.00561   2.09437
    A2        2.08876   0.00012  -0.00370   0.00053   0.00561   2.09437
    A3        2.08876   0.00012  -0.00370   0.00053   0.00561   2.09437
    D1        2.94451   0.00129   0.20930   0.00131   0.21070  -3.12797
         Item               Value     Threshold  Converged?
 Maximum Force            0.001837     0.000450     NO 
 RMS     Force            0.001299     0.000300     NO 
 Maximum Displacement     0.075532     0.001800     NO 
 RMS     Displacement     0.040712     0.001200     NO 
 Predicted change in Energy=-1.273393D-04
 GradGradGradGradGradGradGradGradGradGradGradGradGradGradGradGradGradGrad

                          Input orientation:                          
 ---------------------------------------------------------------------
 Center     Atomic      Atomic             Coordinates (Angstroms)
 Number     Number       Type             X           Y           Z
 ---------------------------------------------------------------------
      1          6           0        0.124724   -0.216029    0.088194
      2          1           0       -0.051974    0.090022    1.100402
      3          1           0        1.020144    0.090022   -0.415803
      4          1           0       -0.588034   -0.838460   -0.415803
 ---------------------------------------------------------------------
                    Distance matrix (angstroms):
                    1          2          3          4
     1  C    0.000000
     2  H    1.072127   0.000000
     3  H    1.072127   1.856964   0.000000
     4  H    1.072127   1.856964   1.856964   0.000000
 Stoichiometry    CH3(2)
 Framework group  C3V[C3(C),3SGV(H)]
 Deg. of freedom     2
 Full point group                 C3V     NOp   6
 Largest Abelian subgroup         CS      NOp   2
 Largest concise Abelian subgroup CS      NOp   2
                         Standard orientation:                         
 ---------------------------------------------------------------------
 Center     Atomic      Atomic             Coordinates (Angstroms)
 Number     Number       Type             X           Y           Z
 ---------------------------------------------------------------------
      1          6           0        0.000000    0.000000    0.001405
      2          1           0        0.000000    1.072119   -0.002811
      3          1           0       -0.928482   -0.536059   -0.002811
      4          1           0        0.928482   -0.536059   -0.002811
 ---------------------------------------------------------------------
 Rotational constants (GHZ):    290.8333694    290.8333694    145.4202776
 Standard basis: 3-21G* (6D, 7F)
 There are    11 symmetry adapted cartesian basis functions of A'  symmetry.
 There are     4 symmetry adapted cartesian basis functions of A"  symmetry.
 There are    11 symmetry adapted basis functions of A'  symmetry.
 There are     4 symmetry adapted basis functions of A"  symmetry.
    15 basis functions,    24 primitive gaussians,    15 cartesian basis functions
     5 alpha electrons        4 beta electrons
       nuclear repulsion energy         9.7392918014 Hartrees.
 NAtoms=    4 NActive=    4 NUniq=    2 SFac= 4.00D+00 NAtFMM=   60 NAOKFM=F Big=F
 Integral buffers will be    131072 words long.
 Raffenetti 2 integral format.
 Two-electron integral symmetry is turned on.
 One-electron integrals computed using PRISM.
 NBasis=    15 RedAO= T EigKep=  5.57D-02  NBF=    11     4
 NBsUse=    15 1.00D-06 EigRej= -1.00D+00 NBFU=    11     4
 Initial guess from the checkpoint file:  "h3c+-cbs4m.chk"
 B after Tr=     0.000000    0.000000    0.000000
         Rot=    1.000000    0.000000    0.000000    0.000000 Ang=   0.00 deg.
 Initial guess orbital symmetries:
 Alpha Orbitals:
       Occupied  (A1) (A1) (E) (E) (A1)
       Virtual   (?A) (?A) (?A) (?A) (?A) (?A) (?A) (?A) (?A) (?A)
 Beta  Orbitals:
       Occupied  (A1) (A1) (E) (E)
       Virtual   (?A) (?A) (?A) (?A) (?A) (?A) (?A) (?A) (?A) (?A)
                 (?A)
 Initial guess <Sx>= 0.0000 <Sy>= 0.0000 <Sz>= 0.5000 <S**2>= 0.7617 S= 0.5058
 ExpMin= 1.83D-01 ExpMax= 1.72D+02 ExpMxC= 1.72D+02 IAcc=1 IRadAn=         1 AccDes= 0.00D+00
 Harris functional with IExCor=  205 and IRadAn=       1 diagonalized for initial guess.
 HarFok:  IExCor=  205 AccDes= 0.00D+00 IRadAn=         1 IDoV= 1 UseB2=F ITyADJ=14
 ICtDFT=  3500011 ScaDFX=  1.000000  1.000000  1.000000  1.000000
 FoFCou: FMM=F IPFlag=           0 FMFlag=      100000 FMFlg1=           0
         NFxFlg=           0 DoJE=T BraDBF=F KetDBF=T FulRan=T
         wScrn=  0.000000 ICntrl=     500 IOpCl=  0 I1Cent=   200000004 NGrid=           0
         NMat0=    1 NMatS0=      1 NMatT0=    0 NMatD0=    1 NMtDS0=    0 NMtDT0=    0
 Petite list used in FoFCou.
 Keep R1 and R2 ints in memory in symmetry-blocked form, NReq=831703.
 Requested convergence on RMS density matrix=1.00D-08 within 128 cycles.
 Requested convergence on MAX density matrix=1.00D-06.
 Requested convergence on             energy=1.00D-06.
 No special actions if energy rises.
 SCF Done:  E(UHF) =  -39.3426089705     A.U. after   10 cycles
            NFock= 10  Conv=0.59D-08     -V/T= 2.0025
 <Sx>= 0.0000 <Sy>= 0.0000 <Sz>= 0.5000 <S**2>= 0.7619 S= 0.5059
 <L.S>= 0.000000000000E+00
 Annihilation of the first spin contaminant:
 S**2 before annihilation     0.7619,   after     0.7501
 Calling FoFJK, ICntrl=      2127 FMM=F ISym2X=1 I1Cent= 0 IOpClX= 1 NMat=1 NMatS=1 NMatT=0.
 ***** Axes restored to original set *****
 -------------------------------------------------------------------
 Center     Atomic                   Forces (Hartrees/Bohr)
 Number     Number              X              Y              Z
 -------------------------------------------------------------------
      1        6           0.000063131   -0.000109347    0.000044641
      2        1           0.000036307   -0.000062886   -0.000339308
      3        1          -0.000307800   -0.000062886    0.000147334
      4        1           0.000208361    0.000235119    0.000147334
 -------------------------------------------------------------------
 Cartesian Forces:  Max     0.000339308 RMS     0.000177751

 GradGradGradGradGradGradGradGradGradGradGradGradGradGradGradGradGradGrad
 Berny optimization.
 Using GEDIIS/GDIIS optimizer.
 FormGI is forming the generalized inverse of G from B-inverse, IUseBI=4.
 Internal  Forces:  Max     0.000344280 RMS     0.000227205
 Search for a local minimum.
 Step number   5 out of a maximum of   20
 All quantities printed in internal units (Hartrees-Bohrs-Radians)
 Mixed Optimization -- En-DIIS/RFO-DIIS
 Update second derivatives using D2CorX and points    3    4    5
 DE= -1.28D-04 DEPred=-1.27D-04 R= 1.01D+00
 TightC=F SS=  1.41D+00  RLast= 2.11D-01 DXNew= 1.4270D+00 6.3326D-01
 Trust test= 1.01D+00 RLast= 2.11D-01 DXMaxT set to 8.49D-01
 The second derivative matrix:
                          R1        R2        R3        A1        A2
           R1           0.39417
           R2           0.02187   0.39417
           R3           0.02187   0.02187   0.39417
           A1          -0.01306  -0.01306  -0.01306   0.11313
           A2          -0.00345  -0.00345  -0.00345  -0.04518   0.11841
           A3          -0.00345  -0.00345  -0.00345  -0.04518  -0.04159
           D1           0.00102   0.00102   0.00102   0.00017  -0.00003
                          A3        D1
           A3           0.11841
           D1          -0.00003   0.00640
 ITU=  1  0  1  1  0
 Use linear search instead of GDIIS.
     Eigenvalues ---    0.00639   0.16000   0.16059   0.37230   0.37230
     Eigenvalues ---    0.43859
 RFO step:  Lambda=-2.26298523D-07 EMin= 6.38780169D-03
 Quartic linear search produced a step of -0.07969.
 Iteration  1 RMS(Cart)=  0.00288511 RMS(Int)=  0.00031510
 Iteration  2 RMS(Cart)=  0.00001235 RMS(Int)=  0.00031486
 Iteration  3 RMS(Cart)=  0.00000000 RMS(Int)=  0.00031486
 ClnCor:  largest displacement from symmetrization is 6.56D-05 for atom     4.
 Variable       Old X    -DE/DX   Delta X   Delta X   Delta X     New X
                                 (Linear)    (Quad)   (Total)
    R1        2.02603  -0.00034  -0.00038  -0.00040  -0.00080   2.02523
    R2        2.02603  -0.00034  -0.00038  -0.00040  -0.00080   2.02523
    R3        2.02603  -0.00034  -0.00038  -0.00040  -0.00080   2.02523
    A1        2.09437   0.00000  -0.00045  -0.00011   0.00003   2.09439
    A2        2.09437   0.00000  -0.00045   0.00004   0.00003   2.09439
    A3        2.09437   0.00000  -0.00045   0.00004   0.00003   2.09439
    D1       -3.12797  -0.00008  -0.01679   0.00193  -0.01486   3.14036
         Item               Value     Threshold  Converged?
 Maximum Force            0.000344     0.000450     YES
 RMS     Force            0.000227     0.000300     YES
 Maximum Displacement     0.005321     0.001800     NO 
 RMS     Displacement     0.002890     0.001200     NO 
 Predicted change in Energy=-7.908572D-07
 GradGradGradGradGradGradGradGradGradGradGradGradGradGradGradGradGradGrad

                          Input orientation:                          
 ---------------------------------------------------------------------
 Center     Atomic      Atomic             Coordinates (Angstroms)
 Number     Number       Type             X           Y           Z
 ---------------------------------------------------------------------
      1          6           0        0.126350   -0.218845    0.089343
      2          1           0       -0.052447    0.090841    1.099629
      3          1           0        1.019258    0.090841   -0.415991
      4          1           0       -0.588300   -0.837282   -0.415991
 ---------------------------------------------------------------------
                    Distance matrix (angstroms):
                    1          2          3          4
     1  C    0.000000
     2  H    1.071705   0.000000
     3  H    1.071705   1.856248   0.000000
     4  H    1.071705   1.856248   1.856248   0.000000
 Stoichiometry    CH3(2)
 Framework group  C3V[C3(C),3SGV(H)]
 Deg. of freedom     2
 Full point group                 C3V     NOp   6
 Largest Abelian subgroup         CS      NOp   2
 Largest concise Abelian subgroup CS      NOp   2
                         Standard orientation:                         
 ---------------------------------------------------------------------
 Center     Atomic      Atomic             Coordinates (Angstroms)
 Number     Number       Type             X           Y           Z
 ---------------------------------------------------------------------
      1          6           0        0.000000    0.000000   -0.000127
      2          1           0        0.000000    1.071705    0.000255
      3          1           0       -0.928124   -0.535853    0.000255
      4          1           0        0.928124   -0.535853    0.000255
 ---------------------------------------------------------------------
 Rotational constants (GHZ):    291.0651099    291.0651099    145.5325845
 Standard basis: 3-21G* (6D, 7F)
 There are    11 symmetry adapted cartesian basis functions of A'  symmetry.
 There are     4 symmetry adapted cartesian basis functions of A"  symmetry.
 There are    11 symmetry adapted basis functions of A'  symmetry.
 There are     4 symmetry adapted basis functions of A"  symmetry.
    15 basis functions,    24 primitive gaussians,    15 cartesian basis functions
     5 alpha electrons        4 beta electrons
       nuclear repulsion energy         9.7431200304 Hartrees.
 NAtoms=    4 NActive=    4 NUniq=    2 SFac= 4.00D+00 NAtFMM=   60 NAOKFM=F Big=F
 Integral buffers will be    131072 words long.
 Raffenetti 2 integral format.
 Two-electron integral symmetry is turned on.
 One-electron integrals computed using PRISM.
 NBasis=    15 RedAO= T EigKep=  5.57D-02  NBF=    11     4
 NBsUse=    15 1.00D-06 EigRej= -1.00D+00 NBFU=    11     4
 Initial guess from the checkpoint file:  "h3c+-cbs4m.chk"
 B after Tr=     0.000000    0.000000    0.000000
         Rot=    1.000000    0.000000    0.000000    0.000000 Ang=   0.00 deg.
 Initial guess orbital symmetries:
 Alpha Orbitals:
       Occupied  (A1) (A1) (?A) (?A) (A1)
       Virtual   (?A) (?A) (?A) (?A) (?A) (A1) (?A) (?A) (?A) (?A)
 Beta  Orbitals:
       Occupied  (A1) (A1) (?A) (?A)
       Virtual   (?A) (?A) (?A) (?A) (?A) (?A) (A1) (?A) (?A) (?A)
                 (?A)
 Initial guess <Sx>= 0.0000 <Sy>= 0.0000 <Sz>= 0.5000 <S**2>= 0.7619 S= 0.5059
 Keep R1 and R2 ints in memory in symmetry-blocked form, NReq=831703.
 Requested convergence on RMS density matrix=1.00D-08 within 128 cycles.
 Requested convergence on MAX density matrix=1.00D-06.
 Requested convergence on             energy=1.00D-06.
 No special actions if energy rises.
 SCF Done:  E(UHF) =  -39.3426099262     A.U. after    9 cycles
            NFock=  9  Conv=0.53D-08     -V/T= 2.0024
 <Sx>= 0.0000 <Sy>= 0.0000 <Sz>= 0.5000 <S**2>= 0.7619 S= 0.5059
 <L.S>= 0.000000000000E+00
 Annihilation of the first spin contaminant:
 S**2 before annihilation     0.7619,   after     0.7501
 Calling FoFJK, ICntrl=      2127 FMM=F ISym2X=1 I1Cent= 0 IOpClX= 1 NMat=1 NMatS=1 NMatT=0.
 ***** Axes restored to original set *****
 -------------------------------------------------------------------
 Center     Atomic                   Forces (Hartrees/Bohr)
 Number     Number              X              Y              Z
 -------------------------------------------------------------------
      1        6          -0.000005591    0.000009684   -0.000003954
      2        1           0.000005943   -0.000010294   -0.000021759
      3        1          -0.000018534   -0.000010294    0.000012856
      4        1           0.000018182    0.000010904    0.000012856
 -------------------------------------------------------------------
 Cartesian Forces:  Max     0.000021759 RMS     0.000012861

 GradGradGradGradGradGradGradGradGradGradGradGradGradGradGradGradGradGrad
 Berny optimization.
 Using GEDIIS/GDIIS optimizer.
 FormGI is forming the generalized inverse of G from B-inverse, IUseBI=4.
 Internal  Forces:  Max     0.000024478 RMS     0.000016237
 Search for a local minimum.
 Step number   6 out of a maximum of   20
 All quantities printed in internal units (Hartrees-Bohrs-Radians)
 Mixed Optimization -- En-DIIS/RFO-DIIS
 Swapping is turned off.
 Update second derivatives using D2CorX and points    3    4    5    6
 DE= -9.56D-07 DEPred=-7.91D-07 R= 1.21D+00
 Trust test= 1.21D+00 RLast= 1.49D-02 DXMaxT set to 8.49D-01
 The second derivative matrix:
                          R1        R2        R3        A1        A2
           R1           0.39040
           R2           0.01810   0.39040
           R3           0.01810   0.01810   0.39040
           A1          -0.00802  -0.00802  -0.00802   0.11222
           A2          -0.00096  -0.00096  -0.00096  -0.04582   0.11810
           A3          -0.00096  -0.00096  -0.00096  -0.04582  -0.04190
           D1          -0.00139  -0.00139  -0.00139   0.00133   0.00018
                          A3        D1
           A3           0.11810
           D1           0.00018   0.00580
 ITU=  0  1  0  1  1  0
     Eigenvalues ---    0.00579   0.16000   0.16093   0.37230   0.37230
     Eigenvalues ---    0.42700
 En-DIIS/RFO-DIIS IScMMF=        0 using points:     6    5
 RFO step:  Lambda= 0.00000000D+00.
 DidBck=F Rises=F RFO-DIIS coefs:    0.97790    0.02210
 Iteration  1 RMS(Cart)=  0.00022389 RMS(Int)=  0.00000034
 Iteration  2 RMS(Cart)=  0.00000007 RMS(Int)=  0.00000033
 ClnCor:  largest displacement from symmetrization is 6.76D-06 for atom     4.
 Variable       Old X    -DE/DX   Delta X   Delta X   Delta X     New X
                                 (Linear)    (Quad)   (Total)
    R1        2.02523  -0.00002   0.00002  -0.00007  -0.00006   2.02517
    R2        2.02523  -0.00002   0.00002  -0.00007  -0.00006   2.02517
    R3        2.02523  -0.00002   0.00002  -0.00007  -0.00006   2.02517
    A1        2.09439   0.00000   0.00000  -0.00001   0.00000   2.09440
    A2        2.09439   0.00000   0.00000   0.00001   0.00000   2.09440
    A3        2.09439   0.00000   0.00000   0.00001   0.00000   2.09440
    D1        3.14036   0.00001   0.00033   0.00083   0.00116   3.14151
         Item               Value     Threshold  Converged?
 Maximum Force            0.000024     0.000450     YES
 RMS     Force            0.000016     0.000300     YES
 Maximum Displacement     0.000414     0.001800     YES
 RMS     Displacement     0.000224     0.001200     YES
 Predicted change in Energy=-5.954812D-09
 Optimization completed.
    -- Stationary point found.
                           ----------------------------
                           !   Optimized Parameters   !
                           ! (Angstroms and Degrees)  !
 --------------------------                            --------------------------
 ! Name  Definition              Value          Derivative Info.                !
 --------------------------------------------------------------------------------
 ! R1    R(1,2)                  1.0717         -DE/DX =    0.0                 !
 ! R2    R(1,3)                  1.0717         -DE/DX =    0.0                 !
 ! R3    R(1,4)                  1.0717         -DE/DX =    0.0                 !
 ! A1    A(2,1,3)              120.0            -DE/DX =    0.0                 !
 ! A2    A(2,1,4)              120.0            -DE/DX =    0.0                 !
 ! A3    A(3,1,4)              120.0            -DE/DX =    0.0                 !
 ! D1    D(2,1,4,3)            179.9293         -DE/DX =    0.0                 !
 --------------------------------------------------------------------------------
 GradGradGradGradGradGradGradGradGradGradGradGradGradGradGradGradGradGrad

                          Input orientation:                          
 ---------------------------------------------------------------------
 Center     Atomic      Atomic             Coordinates (Angstroms)
 Number     Number       Type             X           Y           Z
 ---------------------------------------------------------------------
      1          6           0        0.126350   -0.218845    0.089343
      2          1           0       -0.052447    0.090841    1.099629
      3          1           0        1.019258    0.090841   -0.415991
      4          1           0       -0.588300   -0.837282   -0.415991
 ---------------------------------------------------------------------
                    Distance matrix (angstroms):
                    1          2          3          4
     1  C    0.000000
     2  H    1.071705   0.000000
     3  H    1.071705   1.856248   0.000000
     4  H    1.071705   1.856248   1.856248   0.000000
 Stoichiometry    CH3(2)
 Framework group  C3V[C3(C),3SGV(H)]
 Deg. of freedom     2
 Full point group                 C3V     NOp   6
 Largest Abelian subgroup         CS      NOp   2
 Largest concise Abelian subgroup CS      NOp   2
                         Standard orientation:                         
 ---------------------------------------------------------------------
 Center     Atomic      Atomic             Coordinates (Angstroms)
 Number     Number       Type             X           Y           Z
 ---------------------------------------------------------------------
      1          6           0        0.000000    0.000000   -0.000127
      2          1           0        0.000000    1.071705    0.000255
      3          1           0       -0.928124   -0.535853    0.000255
      4          1           0        0.928124   -0.535853    0.000255
 ---------------------------------------------------------------------
 Rotational constants (GHZ):    291.0651099    291.0651099    145.5325845

 **********************************************************************

            Population analysis using the SCF density.

 **********************************************************************

 Orbital symmetries:
 Alpha Orbitals:
       Occupied  (A1) (A1) (?A) (?A) (A1)
       Virtual   (A1) (?A) (?A) (?A) (?A) (A1) (A1) (?A) (?A) (A1)
 Beta  Orbitals:
       Occupied  (A1) (A1) (?A) (?A)
       Virtual   (A1) (A1) (?A) (?A) (?A) (?A) (A1) (A1) (?A) (?A)
                 (A1)
 Unable to determine electronic state:  an orbital has unidentified symmetry.
 Alpha  occ. eigenvalues --  -11.16895  -0.94893  -0.57975  -0.57975  -0.38592
 Alpha virt. eigenvalues --    0.28653   0.35924   0.35924   0.93531   0.93531
 Alpha virt. eigenvalues --    0.94089   1.11723   1.37864   1.37864   1.72187
  Beta  occ. eigenvalues --  -11.14472  -0.84844  -0.56277  -0.56277
  Beta virt. eigenvalues --    0.16253   0.31524   0.37005   0.37005   0.94855
  Beta virt. eigenvalues --    0.94855   1.08953   1.13384   1.38495   1.38495
  Beta virt. eigenvalues --    1.76829
          Condensed to atoms (all electrons):
               1          2          3          4
     1  C    5.476861   0.371452   0.371452   0.371452
     2  H    0.371452   0.481754  -0.025139  -0.025139
     3  H    0.371452  -0.025139   0.481754  -0.025139
     4  H    0.371452  -0.025139  -0.025139   0.481754
          Atomic-Atomic Spin Densities.
               1          2          3          4
     1  C    1.398973  -0.023180  -0.023180  -0.023180
     2  H   -0.023180  -0.091229   0.002299   0.002299
     3  H   -0.023180   0.002299  -0.091229   0.002299
     4  H   -0.023180   0.002299   0.002299  -0.091229
 Mulliken charges and spin densities:
               1          2
     1  C   -0.591216   1.329434
     2  H    0.197072  -0.109811
     3  H    0.197072  -0.109811
     4  H    0.197072  -0.109811
 Sum of Mulliken charges =   0.00000   1.00000
 Mulliken charges and spin densities with hydrogens summed into heavy atoms:
               1          2
     1  C    0.000000   1.000000
 Electronic spatial extent (au):  <R**2>=             29.4571
 Charge=              0.0000 electrons
 Dipole moment (field-independent basis, Debye):
    X=              0.0000    Y=              0.0000    Z=              0.0009  Tot=              0.0009
 Quadrupole moment (field-independent basis, Debye-Ang):
   XX=             -7.1499   YY=             -7.1499   ZZ=             -8.7709
   XY=              0.0000   XZ=              0.0000   YZ=              0.0000
 Traceless Quadrupole moment (field-independent basis, Debye-Ang):
   XX=              0.5403   YY=              0.5403   ZZ=             -1.0806
   XY=              0.0000   XZ=              0.0000   YZ=              0.0000
 Octapole moment (field-independent basis, Debye-Ang**2):
  XXX=              0.0000  YYY=              0.8335  ZZZ=              0.0011  XYY=              0.0000
  XXY=             -0.8335  XXZ=              0.0008  XZZ=              0.0000  YZZ=              0.0000
  YYZ=              0.0008  XYZ=              0.0000
 Hexadecapole moment (field-independent basis, Debye-Ang**3):
 XXXX=            -13.5566 YYYY=            -13.5566 ZZZZ=             -8.8973 XXXY=              0.0000
 XXXZ=              0.0000 YYYX=              0.0000 YYYZ=              0.0003 ZZZX=              0.0000
 ZZZY=              0.0000 XXYY=             -4.5189 XXZZ=             -4.0680 YYZZ=             -4.0680
 XXYZ=             -0.0003 YYXZ=              0.0000 ZZXY=              0.0000
 N-N= 9.743120030433D+00 E-N=-1.106360537938D+02  KE= 3.924660564246D+01
 Symmetry A'   KE= 3.732780857121D+01
 Symmetry A"   KE= 1.918797071245D+00
                          Isotropic Fermi Contact Couplings
        Atom                 a.u.       MegaHertz       Gauss      10(-4) cm-1
     1  C(13)              0.21515     241.87495      86.30699      80.68080
     2  H(1)              -0.02751    -122.98707     -43.88484     -41.02407
     3  H(1)              -0.02751    -122.98707     -43.88484     -41.02407
     4  H(1)              -0.02751    -122.98707     -43.88484     -41.02407
 --------------------------------------------------------
       Center         ----  Spin Dipole Couplings  ----
                      3XX-RR        3YY-RR        3ZZ-RR
 --------------------------------------------------------
     1   Atom       -0.474779     -0.474779      0.949558
     2   Atom       -0.080599      0.095654     -0.015055
     3   Atom        0.051591     -0.036535     -0.015055
     4   Atom        0.051591     -0.036535     -0.015055
 --------------------------------------------------------
                        XY            XZ            YZ
 --------------------------------------------------------
     1   Atom        0.000000      0.000000      0.000000
     2   Atom        0.000000      0.000000      0.000053
     3   Atom        0.076320     -0.000045     -0.000026
     4   Atom       -0.076320      0.000045     -0.000026
 --------------------------------------------------------


 ---------------------------------------------------------------------------------
              Anisotropic Spin Dipole Couplings in Principal Axis System
 ---------------------------------------------------------------------------------

       Atom             a.u.   MegaHertz   Gauss  10(-4) cm-1        Axes

              Baa    -0.4748   -63.711   -22.734   -21.252  0.1964  0.9805  0.0000
     1 C(13)  Bbb    -0.4748   -63.711   -22.734   -21.252  0.9805 -0.1964  0.0000
              Bcc     0.9496   127.422    45.467    42.503  0.0000  0.0000  1.0000
 
              Baa    -0.0806   -43.004   -15.345   -14.344  1.0000  0.0000  0.0000
     2 H(1)   Bbb    -0.0151    -8.033    -2.866    -2.679  0.0000 -0.0005  1.0000
              Bcc     0.0957    51.036    18.211    17.024  0.0000  1.0000  0.0005
 
              Baa    -0.0806   -43.004   -15.345   -14.344 -0.5000  0.8660  0.0000
     3 H(1)   Bbb    -0.0151    -8.033    -2.866    -2.679  0.0004  0.0002  1.0000
              Bcc     0.0957    51.036    18.211    17.024  0.8660  0.5000 -0.0005
 
              Baa    -0.0806   -43.004   -15.345   -14.344  0.5000  0.8660  0.0000
     4 H(1)   Bbb    -0.0151    -8.033    -2.866    -2.679 -0.0004  0.0002  1.0000
              Bcc     0.0957    51.036    18.211    17.024  0.8660 -0.5000  0.0005
 

 ---------------------------------------------------------------------------------

 B after Tr=    -0.132745    0.229921   -0.093865
         Rot=    1.000000    0.000000    0.000000    0.000000 Ang=   0.00 deg.
 Final structure in terms of initial Z-matrix:
 C
 H,1,B1
 H,1,B2,2,A1
 H,1,B3,3,A2,2,D1,0
      Variables:
 B1=1.07170512
 B2=1.07170512
 B3=1.07170512
 A1=119.99998739
 A2=119.99998739
 D1=179.9292531
 1\1\GINC-TC-NODE158\FOpt\UHF\3-21G*\C1H3(2)\EPKTB\21-Oct-2016\0\\# cbs
 -4m geom=connectivity\\Title Card Required\\0,2\C,0.1263502241,-0.2188
 450515,0.0893431293\H,-0.0524473548,0.0908414574,1.0996290081\H,1.0192
 57688,0.0908414469,-0.4159908183\H,-0.5882998981,-0.8372823402,-0.4159
 908073\\Version=ES64L-G09RevD.01\HF=-39.3426099\S2=0.761894\S2-1=0.\S2
 A=0.750092\RMSD=5.326e-09\RMSF=1.286e-05\Dipole=-0.0001667,0.0002887,-
 0.0001179\Quadrupole=0.1339057,-0.401717,0.2678113,0.4638628,-0.189371
 2,0.3280005\PG=C03V [C3(C1),3SGV(H1)]\\@


 SOME PHYSICISTS WOULD PREFER TO COME BACK TO THE IDEA OF AN OBJECTIVE
 REAL WORLD WHOSE SMALLEST PARTS EXIST OBJECTIVELY IN THE SAME SENSE AS
 STONES OR TREES EXIST INDEPENDENTLY OF WHETHER WE OBSERVE THEM.
 THIS, HOWEVER, IS IMPOSSIBLE.  -- WERNER HEISENBERG
 Job cpu time:       0 days  0 hours  0 minutes 32.0 seconds.
 File lengths (MBytes):  RWF=      5 Int=      0 D2E=      0 Chk=      2 Scr=      1
 Normal termination of Gaussian 09 at Fri Oct 21 11:37:24 2016.
 Link1:  Proceeding to internal job step number  2.
 -------------------------------------------------------
 #N Geom=AllCheck Guess=TCheck SCRF=Check HF/3-21G* Freq
 -------------------------------------------------------
 1/10=4,29=7,30=1,38=1,40=1/1,3;
 2/12=2,40=1/2;
 3/5=5,7=1,11=9,14=-4,16=1,25=1,30=1,70=2,71=2,116=-2,140=1/1,2,3;
 4/5=101/1;
 5/5=2,98=1/2;
 8/6=4,10=90,11=11/1;
 10/13=10,15=4/2;
 11/6=3,8=1,9=11,15=111,16=1/1,2,10;
 10/6=1/2;
 6/7=2,8=2,9=2,10=2,18=1,28=1/1;
 7/8=1,10=1,25=1/1,2,3,16;
 1/10=4,30=1/3;
 99//99;
 Structure from the checkpoint file:  "h3c+-cbs4m.chk"
 -------------------
 Title Card Required
 -------------------
 Charge =  0 Multiplicity = 2
 Redundant internal coordinates found in file.
 C,0,0.1263502449,-0.2188450455,0.0893431144
 H,0,-0.0524473339,0.0908414633,1.0996289933
 H,0,1.0192577088,0.0908414528,-0.4159908332
 H,0,-0.5882998773,-0.8372823343,-0.4159908222
 Recover connectivity data from disk.

 GradGradGradGradGradGradGradGradGradGradGradGradGradGradGradGradGradGrad
 Berny optimization.
 Initialization pass.
                           ----------------------------
                           !    Initial Parameters    !
                           ! (Angstroms and Degrees)  !
 --------------------------                            --------------------------
 ! Name  Definition              Value          Derivative Info.                !
 --------------------------------------------------------------------------------
 ! R1    R(1,2)                  1.0717         calculate D2E/DX2 analytically  !
 ! R2    R(1,3)                  1.0717         calculate D2E/DX2 analytically  !
 ! R3    R(1,4)                  1.0717         calculate D2E/DX2 analytically  !
 ! A1    A(2,1,3)              120.0            calculate D2E/DX2 analytically  !
 ! A2    A(2,1,4)              120.0            calculate D2E/DX2 analytically  !
 ! A3    A(3,1,4)              120.0            calculate D2E/DX2 analytically  !
 ! D1    D(2,1,4,3)            179.9293         calculate D2E/DX2 analytically  !
 --------------------------------------------------------------------------------
 Trust Radius=3.00D-01 FncErr=1.00D-07 GrdErr=1.00D-07
 Number of steps in this run=      2 maximum allowed number of steps=      2.
 GradGradGradGradGradGradGradGradGradGradGradGradGradGradGradGradGradGrad

                          Input orientation:                          
 ---------------------------------------------------------------------
 Center     Atomic      Atomic             Coordinates (Angstroms)
 Number     Number       Type             X           Y           Z
 ---------------------------------------------------------------------
      1          6           0        0.126350   -0.218845    0.089343
      2          1           0       -0.052447    0.090841    1.099629
      3          1           0        1.019258    0.090841   -0.415991
      4          1           0       -0.588300   -0.837282   -0.415991
 ---------------------------------------------------------------------
                    Distance matrix (angstroms):
                    1          2          3          4
     1  C    0.000000
     2  H    1.071705   0.000000
     3  H    1.071705   1.856248   0.000000
     4  H    1.071705   1.856248   1.856248   0.000000
 Stoichiometry    CH3(2)
 Framework group  C3V[C3(C),3SGV(H)]
 Deg. of freedom     2
 Full point group                 C3V     NOp   6
 Largest Abelian subgroup         CS      NOp   2
 Largest concise Abelian subgroup CS      NOp   2
                         Standard orientation:                         
 ---------------------------------------------------------------------
 Center     Atomic      Atomic             Coordinates (Angstroms)
 Number     Number       Type             X           Y           Z
 ---------------------------------------------------------------------
      1          6           0        0.000000    0.000000   -0.000127
      2          1           0        0.000000    1.071705    0.000255
      3          1           0       -0.928124   -0.535853    0.000255
      4          1           0        0.928124   -0.535853    0.000255
 ---------------------------------------------------------------------
 Rotational constants (GHZ):    291.0651099    291.0651099    145.5325845
 Standard basis: 3-21G* (6D, 7F)
 There are    11 symmetry adapted cartesian basis functions of A'  symmetry.
 There are     4 symmetry adapted cartesian basis functions of A"  symmetry.
 There are    11 symmetry adapted basis functions of A'  symmetry.
 There are     4 symmetry adapted basis functions of A"  symmetry.
    15 basis functions,    24 primitive gaussians,    15 cartesian basis functions
     5 alpha electrons        4 beta electrons
       nuclear repulsion energy         9.7431200304 Hartrees.
 NAtoms=    4 NActive=    4 NUniq=    2 SFac= 4.00D+00 NAtFMM=   60 NAOKFM=F Big=F
 Integral buffers will be    131072 words long.
 Raffenetti 2 integral format.
 Two-electron integral symmetry is turned on.
 One-electron integrals computed using PRISM.
 NBasis=    15 RedAO= T EigKep=  5.57D-02  NBF=    11     4
 NBsUse=    15 1.00D-06 EigRej= -1.00D+00 NBFU=    11     4
 Initial guess from the checkpoint file:  "h3c+-cbs4m.chk"
 B after Tr=     0.000000    0.000000    0.000000
         Rot=    1.000000    0.000000    0.000000    0.000000 Ang=   0.00 deg.
 Initial guess orbital symmetries:
 Alpha Orbitals:
       Occupied  (A1) (A1) (?A) (?A) (A1)
       Virtual   (A1) (?A) (?A) (?A) (?A) (A1) (A1) (?A) (?A) (A1)
 Beta  Orbitals:
       Occupied  (A1) (A1) (?A) (?A)
       Virtual   (A1) (A1) (?A) (?A) (?A) (?A) (A1) (A1) (?A) (?A)
                 (A1)
 Initial guess <Sx>= 0.0000 <Sy>= 0.0000 <Sz>= 0.5000 <S**2>= 0.7619 S= 0.5059
 Keep R1 and R2 ints in memory in symmetry-blocked form, NReq=831703.
 Requested convergence on RMS density matrix=1.00D-08 within 128 cycles.
 Requested convergence on MAX density matrix=1.00D-06.
 Requested convergence on             energy=1.00D-06.
 No special actions if energy rises.
 SCF Done:  E(UHF) =  -39.3426099262     A.U. after    1 cycles
            NFock=  1  Conv=0.29D-09     -V/T= 2.0024
 <Sx>= 0.0000 <Sy>= 0.0000 <Sz>= 0.5000 <S**2>= 0.7619 S= 0.5059
 <L.S>= 0.000000000000E+00
 Annihilation of the first spin contaminant:
 S**2 before annihilation     0.7619,   after     0.7501
 Range of M.O.s used for correlation:     1    15
 NBasis=    15 NAE=     5 NBE=     4 NFC=     0 NFV=     0
 NROrb=     15 NOA=     5 NOB=     4 NVA=    10 NVB=    11
          Differentiating once with respect to electric field.
                with respect to dipole field.
          Electric field/nuclear overlap derivatives assumed to be zero.
[...]
 XXXX=            -14.7117 YYYY=            -14.7117 ZZZZ=            -11.8823 XXXY=              0.0000
 XXXZ=              0.0000 YYYX=              0.0000 YYYZ=              0.0004 ZZZX=              0.0000
 ZZZY=              0.0000 XXYY=             -4.9039 XXZZ=             -4.8099 YYZZ=             -4.8099
 XXYZ=             -0.0004 YYXZ=              0.0000 ZZXY=              0.0000
 N-N= 9.743120030433D+00 E-N=-1.111805109775D+02  KE= 3.951519705372D+01
 Symmetry A'   KE= 3.757383553447D+01
 Symmetry A"   KE= 1.941361519251D+00
 1\1\GINC-TC-NODE158\SP\UMP2-FC\6-31+(d',p')\C1H3(2)\EPKTB\21-Oct-2016\
 0\\#N Geom=AllCheck Guess=TCheck SCRF=Check MP2/6-31+D** CBSExtrap=(NM
 in=5,MinPop)\\Title Card Required\\0,2\C,0,0.1263502449,-0.2188450455,
 0.0893431144\H,0,-0.0524473339,0.0908414633,1.0996289933\H,0,1.0192577
 088,0.0908414528,-0.4159908332\H,0,-0.5882998773,-0.8372823343,-0.4159
 908222\\Version=ES64L-G09RevD.01\HF=-39.5657327\MP2=-39.6969827\E2(CBS
 )=-0.1665164\CBS-Int=-0.156156\OIii=1.8061765\PUHF=-39.5685937\PMP2-0=
 -39.6987943\S2=0.760653\S2-1=0.752812\S2A=0.750061\RMSD=2.655e-09\PG=C
 03V [C3(C1),3SGV(H1)]\\@


 NOBODY LOSES ALL THE TIME
 I HAD AN UNCLE NAMED
 SOL WHO WAS A BORN FAILURE AND
 NEARLY EVERYBODY SAID HE SHOULD HAVE GONE
 INTO VAUDEVILLE PERHAPS BECAUSE MY UNCLE SOL COULD
 SING MCCANN HE WAS A DIVER ON XMAS EVE LIKE HELL ITSELF WHICH
 MAY OR MAY NOT ACCOUNT FOR THE FACT THAT MY UNCLE
 SOL INDULGED IN THAT POSSIBLY MOST INEXCUSABLE
 OF ALL TO USE A HIGHFALOOTIN PHRASE
 LUXURIES THAT IS OR TO
 WIT FARMING AND BE
 IT NEEDLESSLY
 ADDED
 MY UNCLE SOL'S FARM     
 FAILED BECAUSE THE CHICKENS
 ATE THE VEGETABLES SO
 MY UNCLE SOL HAD A
 CHICKEN FARM TILL THE
 SKUNKS ATE THE CHICKENS WHEN 
 MY UNCLE SOL
 HAD A SKUNK FARM BUT
 THE SKUNKS CAUGHT COLD AND
 DIED AND SO
 MY UNCLE SOL IMITATED THE
 SKUNKS IN A SUBTLE MANNER
 OR BY DROWNING HIMSELF IN THE WATERTANK
 BUT SOMEBODY WHO'D GIVEN MY UNCLE SOL A VICTOR     
 VICTROLA AND RECORDS WHILE HE LIVED PRESENTED TO
 HIM UPON THE AUSPICIOUS OCCASION OF HIS DECEASE A
 SCRUMPTIOUS NOT TO MENTION SPLENDIFEROUS FUNERAL WITH
 TALL BOYS IN BLACK GLOVES AND FLOWERS AND EVERYTHING AND
 I REMEMBER WE ALL CRIED LIKE THE MISSOURI
 WHEN MY UNCLE SOL'S COFFIN LURCHED BECAUSE     
 SOMEBODY PRESSED A BUTTON
 (AND DOWN WENT
 MY UNCLE
 SOL
 AND STARTED A WORM FARM)
           E. E. CUMMINGS
 Job cpu time:       0 days  0 hours  0 minutes  8.4 seconds.
 File lengths (MBytes):  RWF=     18 Int=      0 D2E=      0 Chk=      2 Scr=      1
 Normal termination of Gaussian 09 at Fri Oct 21 11:37:30 2016.
 Link1:  Proceeding to internal job step number  5.
 -----------------------------------------------------------
 #N Geom=AllCheck Guess=TCheck SCRF=Check HF/CBSB1 SCF=Tight
 -----------------------------------------------------------
 1/29=7,38=1,40=1/1;
 2/12=2,40=1/2;
 3/5=10,11=9,14=-4,16=1,25=1,30=1,70=2,116=-2/1,2,3;
 4/5=101/1;
 5/5=2,32=2/2;
 6/7=2,8=2,9=2,10=2,28=1/1;
 99/5=1,9=1/99;
 Structure from the checkpoint file:  "h3c+-cbs4m.chk"
 -------------------
 Title Card Required
 -------------------
 Charge =  0 Multiplicity = 2
 Redundant internal coordinates found in file.
 C,0,0.1263502449,-0.2188450455,0.0893431144
 H,0,-0.0524473339,0.0908414633,1.0996289933
 H,0,1.0192577088,0.0908414528,-0.4159908332
 H,0,-0.5882998773,-0.8372823343,-0.4159908222
 Recover connectivity data from disk.
                          Input orientation:                          
 ---------------------------------------------------------------------
 Center     Atomic      Atomic             Coordinates (Angstroms)
 Number     Number       Type             X           Y           Z
 ---------------------------------------------------------------------
      1          6           0        0.126350   -0.218845    0.089343
      2          1           0       -0.052447    0.090841    1.099629
      3          1           0        1.019258    0.090841   -0.415991
      4          1           0       -0.588300   -0.837282   -0.415991
 ---------------------------------------------------------------------
                    Distance matrix (angstroms):
                    1          2          3          4
     1  C    0.000000
     2  H    1.071705   0.000000
     3  H    1.071705   1.856248   0.000000
     4  H    1.071705   1.856248   1.856248   0.000000
 Stoichiometry    CH3(2)
 Framework group  C3V[C3(C),3SGV(H)]
 Deg. of freedom     2
 Full point group                 C3V     NOp   6
 Largest Abelian subgroup         CS      NOp   2
 Largest concise Abelian subgroup CS      NOp   2
                         Standard orientation:                         
 ---------------------------------------------------------------------
 Center     Atomic      Atomic             Coordinates (Angstroms)
 Number     Number       Type             X           Y           Z
 ---------------------------------------------------------------------
      1          6           0        0.000000    0.000000   -0.000127
      2          1           0        0.000000    1.071705    0.000255
      3          1           0       -0.928124   -0.535853    0.000255
      4          1           0        0.928124   -0.535853    0.000255
 ---------------------------------------------------------------------
 Rotational constants (GHZ):    291.0651099    291.0651099    145.5325845
 Standard basis: CBSB1 (5D, 7F)
 There are    38 symmetry adapted cartesian basis functions of A'  symmetry.
 There are    19 symmetry adapted cartesian basis functions of A"  symmetry.
 There are    34 symmetry adapted basis functions of A'  symmetry.
 There are    18 symmetry adapted basis functions of A"  symmetry.
    52 basis functions,    76 primitive gaussians,    57 cartesian basis functions
     5 alpha electrons        4 beta electrons
       nuclear repulsion energy         9.7431200304 Hartrees.
 NAtoms=    4 NActive=    4 NUniq=    2 SFac= 4.00D+00 NAtFMM=   60 NAOKFM=F Big=F
 Integral buffers will be    131072 words long.
 Raffenetti 2 integral format.
 Two-electron integral symmetry is turned on.
 One-electron integrals computed using PRISM.
 NBasis=    52 RedAO= T EigKep=  5.74D-03  NBF=    34    18
 NBsUse=    52 1.00D-06 EigRej= -1.00D+00 NBFU=    34    18
 Initial guess from the checkpoint file:  "h3c+-cbs4m.chk"
 B after Tr=     0.000000    0.000000    0.000000
         Rot=    1.000000    0.000000    0.000000    0.000000 Ang=   0.00 deg.
 Initial guess orbital symmetries:
 Alpha Orbitals:
       Occupied  (?A) (?A) (?A) (?A) (A1)
       Virtual   (?A) (?A) (?A) (?A) (?A) (?A) (?A) (?A) (?A) (?A)
                 (?A) (?A) (?A) (?A) (?A) (?A) (?A) (?A) (?A) (?A)
                 (?A) (?A) (?A) (?A) (?A) (?A) (?A) (?A) (?A) (?A)
                 (?A) (?A) (?A) (?A) (?A) (?A) (?A) (?A) (?A) (?A)
                 (?A) (?A) (?A) (?A) (?A) (?A) (?A)
 Beta  Orbitals:
       Occupied  (?A) (?A) (?A) (?A)
       Virtual   (?A) (?A) (?A) (?A) (?A) (?A) (?A) (?A) (?A) (?A)
                 (?A) (?A) (?A) (?A) (?A) (?A) (?A) (?A) (?A) (?A)
                 (?A) (?A) (?A) (?A) (?A) (?A) (?A) (?A) (?A) (?A)
                 (?A) (?A) (?A) (?A) (?A) (?A) (?A) (?A) (?A) (?A)
                 (?A) (?A) (?A) (?A) (?A) (?A) (?A) (?A)
 Initial guess <Sx>= 0.0000 <Sy>= 0.0000 <Sz>= 0.5000 <S**2>= 0.7608 S= 0.5054
 Keep R1 and R2 ints in memory in symmetry-blocked form, NReq=2952722.
 Requested convergence on RMS density matrix=1.00D-08 within 128 cycles.
 Requested convergence on MAX density matrix=1.00D-06.
 Requested convergence on             energy=1.00D-06.
 No special actions if energy rises.
 SCF Done:  E(UHF) =  -39.5737848273     A.U. after    9 cycles
            NFock=  9  Conv=0.95D-08     -V/T= 2.0000
 <Sx>= 0.0000 <Sy>= 0.0000 <Sz>= 0.5000 <S**2>= 0.7611 S= 0.5056
 <L.S>= 0.000000000000E+00
 Annihilation of the first spin contaminant:
 S**2 before annihilation     0.7611,   after     0.7501

 **********************************************************************

            Population analysis using the SCF density.

 **********************************************************************

 Orbital symmetries:
 Alpha Orbitals:
       Occupied  (?A) (?A) (?B) (?B) (A1)
       Virtual   (?A) (?B) (?B) (A1) (?B) (?B) (?A) (?A) (?B) (?B)
                 (A1) (?B) (?B) (?C) (?C) (?A) (?B) (?B) (?A) (?A)
                 (?B) (?B) (?A) (A1) (?C) (?C) (?B) (?B) (?B) (?B)
                 (?A) (A1) (?B) (?B) (?C) (?C) (A1) (?C) (?C) (?B)
                 (?B) (?A) (?A) (?A) (?B) (?B) (?A)
 Beta  Orbitals:
       Occupied  (?A) (?A) (?B) (?B)
       Virtual   (?A) (A1) (?B) (?B) (?B) (?B) (A1) (?A) (?A) (?B)
                 (?B) (?B) (?B) (A1) (?C) (?C) (?B) (?B) (?A) (?A)
                 (?A) (?B) (?B) (?A) (A1) (?C) (?C) (?B) (?B) (?B)
                 (?B) (?A) (A1) (?B) (?B) (?C) (?C) (A1) (?C) (?C)
                 (?B) (?B) (?A) (?A) (?A) (?B) (?B) (?A)
 Unable to determine electronic state:  an orbital has unidentified symmetry.
 Alpha  occ. eigenvalues --  -11.23233  -0.95123  -0.58398  -0.58398  -0.38469
 Alpha virt. eigenvalues --    0.04573   0.07651   0.07651   0.12739   0.17147
 Alpha virt. eigenvalues --    0.17147   0.20577   0.32542   0.35419   0.35419
 Alpha virt. eigenvalues --    0.70337   0.71126   0.71126   0.78220   0.78220
 Alpha virt. eigenvalues --    0.86538   0.91659   0.91659   0.96100   1.45523
 Alpha virt. eigenvalues --    1.64649   1.64649   1.66325   1.92329   2.02667
 Alpha virt. eigenvalues --    2.02667   2.52563   2.52563   2.61954   2.61954
 Alpha virt. eigenvalues --    2.64357   3.08077   3.15596   3.15596   3.54256
 Alpha virt. eigenvalues --    3.54256   3.59774   3.61629   3.61629   3.76581
 Alpha virt. eigenvalues --    3.76581   3.83581   4.01969   4.50677   4.88818
 Alpha virt. eigenvalues --    4.88818  25.09746
  Beta  occ. eigenvalues --  -11.20919  -0.86111  -0.56971  -0.56971
  Beta virt. eigenvalues --    0.04783   0.07100   0.07718   0.07718   0.17238
  Beta virt. eigenvalues --    0.17238   0.21449   0.21689   0.35644   0.36044
  Beta virt. eigenvalues --    0.36044   0.71926   0.71926   0.81736   0.84563
  Beta virt. eigenvalues --    0.84563   0.92641   0.92641   0.92797   0.99188
  Beta virt. eigenvalues --    1.45871   1.65279   1.65279   1.65839   1.93928
  Beta virt. eigenvalues --    2.03733   2.03733   2.52634   2.52634   2.62577
  Beta virt. eigenvalues --    2.62577   2.67039   3.16711   3.19361   3.19361
  Beta virt. eigenvalues --    3.58573   3.58573   3.63774   3.67215   3.67215
  Beta virt. eigenvalues --    3.78578   3.78578   3.88526   4.02643   4.52341
  Beta virt. eigenvalues --    4.89647   4.89647  25.11347
          Condensed to atoms (all electrons):
               1          2          3          4
     1  C    5.146004   0.410486   0.410486   0.410486
     2  H    0.410486   0.530874  -0.033591  -0.033591
     3  H    0.410486  -0.033591   0.530874  -0.033591
     4  H    0.410486  -0.033591  -0.033591   0.530874
          Atomic-Atomic Spin Densities.
               1          2          3          4
     1  C    1.219650  -0.003154  -0.003154  -0.003154
     2  H   -0.003154  -0.065868  -0.000521  -0.000521
     3  H   -0.003154  -0.000521  -0.065868  -0.000521
     4  H   -0.003154  -0.000521  -0.000521  -0.065868
 Mulliken charges and spin densities:
               1          2
     1  C   -0.377463   1.210189
     2  H    0.125821  -0.070063
     3  H    0.125821  -0.070063
     4  H    0.125821  -0.070063
 Sum of Mulliken charges =   0.00000   1.00000
 Mulliken charges and spin densities with hydrogens summed into heavy atoms:
               1          2
     1  C    0.000000   1.000000
 Electronic spatial extent (au):  <R**2>=             29.8131
 Charge=              0.0000 electrons
 Dipole moment (field-independent basis, Debye):
    X=              0.0000    Y=              0.0000    Z=              0.0008  Tot=              0.0008
 Quadrupole moment (field-independent basis, Debye-Ang):
   XX=             -7.2337   YY=             -7.2337   ZZ=             -9.0820
   XY=              0.0000   XZ=              0.0000   YZ=              0.0000
 Traceless Quadrupole moment (field-independent basis, Debye-Ang):
   XX=              0.6161   YY=              0.6161   ZZ=             -1.2322
   XY=              0.0000   XZ=              0.0000   YZ=              0.0000
 Octapole moment (field-independent basis, Debye-Ang**2):
  XXX=              0.0000  YYY=              0.8791  ZZZ=              0.0015  XYY=              0.0000
  XXY=             -0.8791  XXZ=              0.0008  XZZ=              0.0000  YZZ=              0.0000
  YYZ=              0.0008  XYZ=              0.0000
 Hexadecapole moment (field-independent basis, Debye-Ang**3):
 XXXX=            -14.6463 YYYY=            -14.6463 ZZZZ=            -11.4158 XXXY=              0.0000
 XXXZ=              0.0000 YYYX=              0.0000 YYYZ=              0.0004 ZZZX=              0.0000
 ZZZY=              0.0000 XXYY=             -4.8821 XXZZ=             -4.7447 YYZZ=             -4.7447
 XXYZ=             -0.0004 YYXZ=              0.0000 ZZXY=              0.0000
 N-N= 9.743120030433D+00 E-N=-1.112610257226D+02  KE= 3.957314398955D+01
 Symmetry A'   KE= 3.762050828847D+01
 Symmetry A"   KE= 1.952635701082D+00
                          Isotropic Fermi Contact Couplings
        Atom                 a.u.       MegaHertz       Gauss      10(-4) cm-1
     1  C(13)              0.13478     151.51542      54.06447      50.54010
     2  H(1)              -0.02602    -116.30041     -41.49888     -38.79364
     3  H(1)              -0.02602    -116.30041     -41.49888     -38.79364
     4  H(1)              -0.02602    -116.30041     -41.49888     -38.79364
 --------------------------------------------------------
       Center         ----  Spin Dipole Couplings  ----
                      3XX-RR        3YY-RR        3ZZ-RR
 --------------------------------------------------------
     1   Atom       -0.545729     -0.545729      1.091458
     2   Atom       -0.081786      0.081298      0.000488
     3   Atom        0.040527     -0.041015      0.000488
     4   Atom        0.040527     -0.041015      0.000488
 --------------------------------------------------------
                        XY            XZ            YZ
 --------------------------------------------------------
     1   Atom        0.000000      0.000000      0.000000
     2   Atom        0.000000      0.000000      0.000037
     3   Atom        0.070618     -0.000032     -0.000018
     4   Atom       -0.070618      0.000032     -0.000018
 --------------------------------------------------------


 ---------------------------------------------------------------------------------
              Anisotropic Spin Dipole Couplings in Principal Axis System
 ---------------------------------------------------------------------------------

       Atom             a.u.   MegaHertz   Gauss  10(-4) cm-1        Axes

              Baa    -0.5457   -73.232   -26.131   -24.427 -0.5693  0.8221  0.0000
     1 C(13)  Bbb    -0.5457   -73.232   -26.131   -24.427  0.8221  0.5693  0.0000
              Bcc     1.0915   146.463    52.262    48.855  0.0000  0.0000  1.0000
 
              Baa    -0.0818   -43.637   -15.571   -14.556  1.0000  0.0000  0.0000
     2 H(1)   Bbb     0.0005     0.261     0.093     0.087  0.0000 -0.0005  1.0000
              Bcc     0.0813    43.377    15.478    14.469  0.0000  1.0000  0.0005
 
              Baa    -0.0818   -43.637   -15.571   -14.556 -0.5000  0.8660  0.0000
     3 H(1)   Bbb     0.0005     0.261     0.093     0.087  0.0004  0.0002  1.0000
              Bcc     0.0813    43.377    15.478    14.469  0.8660  0.5000 -0.0005
 
              Baa    -0.0818   -43.637   -15.571   -14.556  0.5000  0.8660  0.0000
     4 H(1)   Bbb     0.0005     0.261     0.093     0.087 -0.0004  0.0002  1.0000
              Bcc     0.0813    43.377    15.478    14.469  0.8660 -0.5000  0.0005
 

 ---------------------------------------------------------------------------------

 1\1\GINC-TC-NODE158\SP\UHF\CBSB1\C1H3(2)\EPKTB\21-Oct-2016\0\\#N Geom=
 AllCheck Guess=TCheck SCRF=Check HF/CBSB1 SCF=Tight\\Title Card Requir
 ed\\0,2\C,0,0.1263502449,-0.2188450455,0.0893431144\H,0,-0.0524473339,
 0.0908414633,1.0996289933\H,0,1.0192577088,0.0908414528,-0.4159908332\
 H,0,-0.5882998773,-0.8372823343,-0.4159908222\\Version=ES64L-G09RevD.0
 1\HF=-39.5737848\S2=0.76114\S2-1=0.\S2A=0.750063\RMSD=9.476e-09\Dipole
 =-0.0001559,0.00027,-0.0001102\Quadrupole=0.1526795,-0.4580386,0.30535
 91,0.5288974,-0.2159215,0.373987\PG=C03V [C3(C1),3SGV(H1)]\\@


 THE TRULY SUCCESSFUL PERFORMANCE OF RESEARCHES IN
 INORGANIC CHEMISTRY IS POSSIBLE ONLY TO ONE WHO IS NOT
 ONLY A THEORETICAL CHEMIST, BUT ALSO AN ACCOMPLISHED
 ANALYST AND, MOREOVER, NOT MERELY A PRACTICALLY TRAINED,
 MECHANICAL WORKER, BUT A THINKING CREATIVE ARTIST.
   --  CLEMENS WINKLER, BER. 33, 1697(1900)
 Diagonal vibrational polarizability:
        0.0000000       0.0000000       0.0000000

 Complete Basis Set (CBS) Extrapolation:
 M. R. Nyden and G. A. Petersson, JCP 75, 1843 (1981)
 G. A. Petersson and M. A. Al-Laham, JCP 94, 6081 (1991)
 G. A. Petersson, T. Tensfeldt, and J. A. Montgomery, JCP 94, 6091 (1991)
 J. A. Montgomery, J. W. Ochterski, and G. A. Petersson, JCP 101, 5900 (1994)

 Temperature=               298.150000 Pressure=                       1.000000
 E(ZPE)=                      0.028441 E(Thermal)=                     0.031609
 E(SCF)=                    -39.573785 DE(MP2)=                       -0.131250
 DE(CBS)=                    -0.035266 DE(MP34)=                      -0.016013
 DE(Int)=                     0.010360 DE(Empirical)=                 -0.043079
 CBS-4 (0 K)=               -39.760591 CBS-4 Energy=                 -39.757424
 CBS-4 Enthalpy=            -39.756480 CBS-4 Free Energy=            -39.779396
 1\1\GINC-TC-NODE158\Mixed\CBS-4M\CBS-4M\C1H3(2)\EPKTB\21-Oct-2016\0\\#
  cbs-4m geom=connectivity\\Title Card Required\\0,2\C,0,0.1263502449,-
 0.2188450455,0.0893431144\H,0,-0.0524473339,0.0908414633,1.0996289933\
 H,0,1.0192577088,0.0908414528,-0.4159908332\H,0,-0.5882998773,-0.83728
 23343,-0.4159908222\\Version=ES64L-G09RevD.01\HF/CbsB1=-39.5737848\HF/
 CbsB2=-39.5657327\MP2/CbsB2=-39.6969827\E2(CBS)/CbsB2=-0.1665164\CBS-I
 nt/CbsB2=0.0103604\OIii/CbsB2=1.8061765\MP2/6-31G=-39.6217985\MP4(SDQ)
 /6-31G=-39.637811\CBS4M=-39.7605909\FreqCoord=0.2387673597,-0.41355720
 16,0.1688340182,-0.0991110976,0.1716654872,2.077997645,1.9261179284,0.
 1716654674,-0.7861087485,-1.1117256522,-1.5822343077,-0.7861087277\PG=
 C03V [C3(C1),3SGV(H1)]\NImag=0\\0.52721921,0.25277456,0.23534027,-0.10
 319478,0.17873861,0.60018894,-0.06067661,-0.00755578,0.05950044,0.0525
 4996,-0.00755578,-0.05195194,-0.10305778,0.00359944,0.04839369,0.05947
 816,-0.10301920,-0.34162092,-0.06284320,0.10884762,0.35696924,-0.27301
 352,-0.09964602,0.13455060,0.00054252,-0.00144425,-0.00171994,0.283645
 45,-0.09968240,-0.05195194,0.02722894,0.00946606,0.00529993,-0.0048786
 2,0.10382233,0.04839368,0.13457287,0.02721607,-0.12928401,0.02496022,0
 .01055090,-0.00767416,-0.14454780,-0.03288895,0.12587375,-0.19352908,-
 0.14557277,-0.09085625,0.00758412,0.00540059,0.00508498,-0.01117445,-0
 .01360600,-0.01498530,0.19711941,-0.14553639,-0.13143639,-0.10290976,-
 0.00550972,-0.00174167,-0.00094980,-0.00273205,-0.00174167,-0.00487802
 ,0.15377817,0.13491973,-0.09085625,-0.10293549,-0.12928401,-0.02161746
 ,-0.01634074,-0.00767416,0.01171714,0.01053864,0.01108441,0.10075657,0
 .10873758,0.12587375\\0.00000559,-0.00000968,0.00000395,-0.00000594,0.
 00001029,0.00002176,0.00001853,0.00001029,-0.00001286,-0.00001818,-0.0
 0001090,-0.00001286\\\@
 Job cpu time:       0 days  0 hours  0 minutes 10.0 seconds.
 File lengths (MBytes):  RWF=     18 Int=      0 D2E=      0 Chk=      2 Scr=      1
 Normal termination of Gaussian 09 at Fri Oct 21 11:37:32 2016.
