 Entering Gaussian System, Link 0=g09
 Initial command:
 /cluster/software/gaussian/gaussian-09-D.01/g09/l1.exe "/local/scratch/maxb2/Gau-1379.inp" -scrdir="/local/scratch/maxb2/"
 Entering Link 1 = /cluster/software/gaussian/gaussian-09-D.01/g09/l1.exe PID=      1380.
  
 Copyright (c) 1988,1990,1992,1993,1995,1998,2003,2009,2013,
            Gaussian, Inc.  All Rights Reserved.
  
 This is part of the Gaussian(R) 09 program.  It is based on
 the Gaussian(R) 03 system (copyright 2003, Gaussian, Inc.),
 the Gaussian(R) 98 system (copyright 1998, Gaussian, Inc.),
 the Gaussian(R) 94 system (copyright 1995, Gaussian, Inc.),
 the Gaussian 92(TM) system (copyright 1992, Gaussian, Inc.),
 the Gaussian 90(TM) system (copyright 1990, Gaussian, Inc.),
 the Gaussian 88(TM) system (copyright 1988, Gaussian, Inc.),
 the Gaussian 86(TM) system (copyright 1986, Carnegie Mellon
 University), and the Gaussian 82(TM) system (copyright 1983,
 Carnegie Mellon University). Gaussian is a federally registered
 trademark of Gaussian, Inc.
  
 This software contains proprietary and confidential information,
 including trade secrets, belonging to Gaussian, Inc.
  
 This software is provided under written license and may be
 used, copied, transmitted, or stored only in accord with that
 written license.
  
 The following legend is applicable only to US Government
 contracts under FAR:
  
                    RESTRICTED RIGHTS LEGEND
  
 Use, reproduction and disclosure by the US Government is
 subject to restrictions as set forth in subparagraphs (a)
 and (c) of the Commercial Computer Software - Restricted
 Rights clause in FAR 52.227-19.
  
 Gaussian, Inc.
 340 Quinnipiac St., Bldg. 40, Wallingford CT 06492
  
  
 ---------------------------------------------------------------
 Warning -- This program may not be used in any manner that
 competes with the business of Gaussian, Inc. or will provide
 assistance to any competitor of Gaussian, Inc.  The licensee
 of this program is prohibited from giving any competitor of
 Gaussian, Inc. access to this program.  By using this program,
 the user acknowledges that Gaussian, Inc. is engaged in the
 business of creating and licensing software in the field of
 computational chemistry and represents and warrants to the
 licensee that it is not a competitor of Gaussian, Inc. and that
 it will not use this program in any manner prohibited above.
 ---------------------------------------------------------------
  

 Cite this work as:
 Gaussian 09, Revision D.01,
 M. J. Frisch, G. W. Trucks, H. B. Schlegel, G. E. Scuseria, 
 M. A. Robb, J. R. Cheeseman, G. Scalmani, V. Barone, B. Mennucci, 
 G. A. Petersson, H. Nakatsuji, M. Caricato, X. Li, H. P. Hratchian, 
 A. F. Izmaylov, J. Bloino, G. Zheng, J. L. Sonnenberg, M. Hada, 
 M. Ehara, K. Toyota, R. Fukuda, J. Hasegawa, M. Ishida, T. Nakajima, 
 Y. Honda, O. Kitao, H. Nakai, T. Vreven, J. A. Montgomery, Jr., 
 J. E. Peralta, F. Ogliaro, M. Bearpark, J. J. Heyd, E. Brothers, 
 K. N. Kudin, V. N. Staroverov, T. Keith, R. Kobayashi, J. Normand, 
 K. Raghavachari, A. Rendell, J. C. Burant, S. S. Iyengar, J. Tomasi, 
 M. Cossi, N. Rega, J. M. Millam, M. Klene, J. E. Knox, J. B. Cross, 
 V. Bakken, C. Adamo, J. Jaramillo, R. Gomperts, R. E. Stratmann, 
 O. Yazyev, A. J. Austin, R. Cammi, C. Pomelli, J. W. Ochterski, 
 R. L. Martin, K. Morokuma, V. G. Zakrzewski, G. A. Voth, 
 P. Salvador, J. J. Dannenberg, S. Dapprich, A. D. Daniels, 
 O. Farkas, J. B. Foresman, J. V. Ortiz, J. Cioslowski, 
 and D. J. Fox, Gaussian, Inc., Wallingford CT, 2013.
 
 ******************************************
 Gaussian 09:  ES64L-G09RevD.01 24-Apr-2013
                25-Oct-2016 
 ******************************************
 %nprocshared=8
 Will use up to    8 processors via shared memory.
 %mem=4gb
 %chk=H3CN2smdspe
 %oldchk=H3CN2opt.chk
 Copying data from "H3CN2opt.chk" to current chk file "H3CN2smdspe.chk".
 -----------------------------------------------------------
 # mp2(full)/6-311g** scrf=(smd,solvent=water) geom=allcheck
 -----------------------------------------------------------
 1/29=7,38=1/1;
 2/12=2,40=1/2;
 3/5=4,6=6,7=101,11=9,14=-4,16=1,25=1,30=1,70=32201,72=1/1,2,3;
 4//1;
 5/5=2,38=5,53=1/2;
 8/10=90/1;
 9/16=-3/6;
 6/7=2,8=2,9=2,10=2/1;
 99/5=1,9=1/99;
 Structure from the checkpoint file:  "H3CN2smdspe.chk"
 -------------------
 Title Card Required
 -------------------
 Charge =  1 Multiplicity = 1
 Redundant internal coordinates found in file.
 C,0,0.0130118632,0.0225372208,0.0092007927
 H,0,-0.020286015,-0.0351369171,1.0981152523
 H,0,1.0285505784,-0.0351375747,-0.3851651427
 H,0,-0.5447051605,0.8731824737,-0.3851646856
 N,0,-0.6748985965,-1.1689578454,-0.4772243512
 N,0,-1.2022150489,-2.0822961187,-0.8500926187
 Recover connectivity data from disk.
                          Input orientation:                          
 ---------------------------------------------------------------------
 Center     Atomic      Atomic             Coordinates (Angstroms)
 Number     Number       Type             X           Y           Z
 ---------------------------------------------------------------------
      1          6           0        0.013012    0.022537    0.009201
      2          1           0       -0.020286   -0.035137    1.098115
      3          1           0        1.028551   -0.035138   -0.385165
      4          1           0       -0.544705    0.873182   -0.385165
      5          7           0       -0.674899   -1.168958   -0.477224
      6          7           0       -1.202215   -2.082296   -0.850093
 ---------------------------------------------------------------------
                    Distance matrix (angstroms):
                    1          2          3          4          5
     1  C    0.000000
     2  H    1.090949   0.000000
     3  H    1.090949   1.816639   0.000000
     4  H    1.090949   1.816639   1.816639   0.000000
     5  N    1.459277   2.048356   2.048356   2.048356   0.000000
     6  N    2.577884   3.063222   3.063222   3.063222   1.118606
                    6
     6  N    0.000000
 Stoichiometry    CH3N2(1+)
 Framework group  C3V[C3(CNN),3SGV(H)]
 Deg. of freedom     4
 Full point group                 C3V     NOp   6
 Largest Abelian subgroup         CS      NOp   2
 Largest concise Abelian subgroup CS      NOp   2
                         Standard orientation:                         
 ---------------------------------------------------------------------
 Center     Atomic      Atomic             Coordinates (Angstroms)
 Number     Number       Type             X           Y           Z
 ---------------------------------------------------------------------
      1          6           0        0.000000    0.000000   -1.189547
      2          1           0        0.000000    1.048837   -1.489730
      3          1           0        0.908320   -0.524419   -1.489730
      4          1           0       -0.908320   -0.524419   -1.489730
      5          7           0        0.000000    0.000000    0.269731
      6          7           0        0.000000    0.000000    1.388337
 ---------------------------------------------------------------------
 Rotational constants (GHZ):    151.9478522      9.5526338      9.5526338
 Standard basis: 6-311G(d,p) (5D, 7F)
 There are    53 symmetry adapted cartesian basis functions of A'  symmetry.
 There are    22 symmetry adapted cartesian basis functions of A"  symmetry.
 There are    50 symmetry adapted basis functions of A'  symmetry.
 There are    22 symmetry adapted basis functions of A"  symmetry.
    72 basis functions,   120 primitive gaussians,    75 cartesian basis functions
    11 alpha electrons       11 beta electrons
       nuclear repulsion energy        65.6903409458 Hartrees.
 NAtoms=    6 NActive=    6 NUniq=    4 SFac= 2.25D+00 NAtFMM=   60 NAOKFM=F Big=F
 Integral buffers will be    131072 words long.
 Raffenetti 1 integral format.
 Two-electron integral symmetry is turned on.
 ------------------------------------------------------------------------------
 Polarizable Continuum Model (PCM)
 =================================
 Model                : PCM (using non-symmetric T matrix).
 Atomic radii         : SMD-Coulomb.
 Polarization charges : Total charges.
 Charge compensation  : None.
 Solution method      : On-the-fly selection.
 Cavity type          : VdW (van der Waals Surface) (Alpha=1.000).
 Cavity algorithm     : GePol (No added spheres)
                        Default sphere list used, NSphG=    6.
                        Lebedev-Laikov grids with approx.  5.0 points / Ang**2.
                        Smoothing algorithm: Karplus/York (Gamma=1.0000).
                        Polarization charges: spherical gaussians, with
                                              point-specific exponents (IZeta= 3).
                        Self-potential: point-specific (ISelfS= 7).
                        Self-field    : sphere-specific E.n sum rule (ISelfD= 2).
 Solvent              : Water, Eps=  78.355300 Eps(inf)=   1.777849
 ------------------------------------------------------------------------------
 Spheres list:
 ISph  on   Nord     Re0    Alpha      Xe            Ye            Ze
    1   C      1    1.8500  1.000      0.000000      0.000000     -1.189547
    2   H      2    1.2000  1.000      0.000000      1.048837     -1.489730
    3   H      3    1.2000  1.000      0.908320     -0.524419     -1.489730
    4   H      4    1.2000  1.000     -0.908320     -0.524419     -1.489730
    5   N      5    1.8900  1.000      0.000000      0.000000      0.269731
    6   N      6    1.8900  1.000      0.000000      0.000000      1.388337
 ------------------------------------------------------------------------------
 ------------------------------------------------------------------------------
 Atomic radii for non-electrostatic terms: SMD-CDS.
 ------------------------------------------------------------------------------
 Nuclear repulsion after PCM non-electrostatic terms =       65.6900236506 Hartrees.
 One-electron integrals computed using PRISM.
 NBasis=    72 RedAO= T EigKep=  2.82D-03  NBF=    50    22
 NBsUse=    72 1.00D-06 EigRej= -1.00D+00 NBFU=    50    22
 ExpMin= 1.03D-01 ExpMax= 6.29D+03 ExpMxC= 9.49D+02 IAcc=1 IRadAn=         1 AccDes= 0.00D+00
 Harris functional with IExCor=  205 and IRadAn=       1 diagonalized for initial guess.
 HarFok:  IExCor=  205 AccDes= 0.00D+00 IRadAn=         1 IDoV= 1 UseB2=F ITyADJ=14
 ICtDFT=  3500011 ScaDFX=  1.000000  1.000000  1.000000  1.000000
 FoFCou: FMM=F IPFlag=           0 FMFlag=      100000 FMFlg1=           0
         NFxFlg=           0 DoJE=T BraDBF=F KetDBF=T FulRan=T
         wScrn=  0.000000 ICntrl=     500 IOpCl=  0 I1Cent=   200000004 NGrid=           0
         NMat0=    1 NMatS0=      1 NMatT0=    0 NMatD0=    1 NMtDS0=    0 NMtDT0=    0
 Petite list used in FoFCou.
 Initial guess orbital symmetries:
       Occupied  (A1) (A1) (A1) (A1) (A1) (A1) (E) (E) (A1) (E)
                 (E)
       Virtual   (E) (E) (A1) (A1) (E) (E) (A1) (E) (E) (A1) (A1)
                 (E) (E) (E) (E) (A1) (A1) (E) (E) (A1) (E) (E)
                 (A1) (A1) (A2) (E) (E) (E) (E) (A1) (E) (E) (E)
                 (E) (A1) (E) (E) (E) (E) (A1) (E) (E) (E) (E)
                 (A1) (A1) (E) (E) (A1) (E) (E) (E) (E) (A1) (E)
                 (E) (A1) (A1) (A1) (A1) (A1)
 The electronic state of the initial guess is 1-A1.
 Keep R1 ints in memory in symmetry-blocked form, NReq=6897696.
 Requested convergence on RMS density matrix=1.00D-08 within 128 cycles.
 Requested convergence on MAX density matrix=1.00D-06.
 Requested convergence on             energy=1.00D-06.
 No special actions if energy rises.
 Inv3:  Mode=1 IEnd=     1294947.
 Iteration    1 A*A^-1 deviation from unit magnitude is 4.00D-15 for    648.
 Iteration    1 A*A^-1 deviation from orthogonality  is 1.64D-15 for    169     22.
 Iteration    1 A^-1*A deviation from unit magnitude is 4.22D-15 for    648.
 Iteration    1 A^-1*A deviation from orthogonality  is 4.53D-15 for    652    192.
 Error on total polarization charges =  0.00947
 SCF Done:  E(RHF) =  -148.360922580     A.U. after   11 cycles
            NFock= 11  Conv=0.38D-08     -V/T= 2.0034
 SMD-CDS (non-electrostatic) energy       (kcal/mol) =      -0.20
 (included in total energy above)
 Range of M.O.s used for correlation:     1    72
 NBasis=    72 NAE=    11 NBE=    11 NFC=     0 NFV=     0
 NROrb=     72 NOA=    11 NOB=    11 NVA=    61 NVB=    61
 Fully in-core method, ICMem=    14931339.
 JobTyp=1 Pass  1 fully in-core, NPsUse=  8.
 Spin components of T(2) and E(2):
     alpha-alpha T2 =       0.2097622945D-01 E2=     -0.6334847482D-01
     alpha-beta  T2 =       0.1237200750D+00 E2=     -0.4130977547D+00
     beta-beta   T2 =       0.2097622945D-01 E2=     -0.6334847482D-01
 ANorm=    0.1079663158D+01
 E2 =    -0.5397947044D+00 EUMP2 =    -0.14890071728431D+03

 **********************************************************************

            Population analysis using the SCF density.

 **********************************************************************

 Orbital symmetries:
       Occupied  (A1) (A1) (A1) (A1) (A1) (A1) (A1) (E) (E) (E)
                 (E)
       Virtual   (E) (E) (A1) (E) (E) (A1) (A1) (E) (E) (A1) (A1)
                 (E) (E) (E) (E) (A1) (?A) (?A) (?A) (A1) (E) (E)
                 (A1) (A1) (A2) (E) (E) (E) (E) (A1) (E) (E) (E)
                 (E) (A1) (E) (E) (E) (E) (A1) (E) (E) (A1) (E)
                 (E) (A1) (E) (E) (A1) (E) (E) (A1) (E) (E) (E)
                 (E) (A1) (A1) (A1) (A1) (A1)
 The electronic state is 1-A1.
 Alpha  occ. eigenvalues --  -15.81743 -15.80217 -11.34298  -1.56099  -1.15301
 Alpha  occ. eigenvalues --   -0.83610  -0.74114  -0.73712  -0.73711  -0.60393
 Alpha  occ. eigenvalues --   -0.60392
 Alpha virt. eigenvalues --    0.06845   0.06846   0.15441   0.22389   0.22392
 Alpha virt. eigenvalues --    0.24883   0.41246   0.43551   0.43551   0.57098
 Alpha virt. eigenvalues --    0.66515   0.69633   0.69634   0.74002   0.74003
 Alpha virt. eigenvalues --    0.82905   0.86265   0.86447   0.86449   1.03748
 Alpha virt. eigenvalues --    1.29817   1.29819   1.33052   1.37654   1.64826
 Alpha virt. eigenvalues --    1.65735   1.65736   1.77674   1.77674   1.85990
 Alpha virt. eigenvalues --    1.87684   1.87684   2.12971   2.12971   2.17509
 Alpha virt. eigenvalues --    2.36443   2.36443   2.40052   2.40053   2.57621
 Alpha virt. eigenvalues --    2.69901   2.69902   2.82202   2.83283   2.83283
 Alpha virt. eigenvalues --    3.06869   3.23795   3.23795   3.40688   3.88558
 Alpha virt. eigenvalues --    3.88559   4.18571   4.20041   4.20042   4.28845
 Alpha virt. eigenvalues --    4.28846   4.66866   5.12408  24.95368  36.32081
 Alpha virt. eigenvalues --   37.48618
          Condensed to atoms (all electrons):
               1          2          3          4          5          6
     1  C    4.754482   0.399996   0.399996   0.399996   0.098496  -0.021546
     2  H    0.399996   0.402962  -0.010595  -0.010595  -0.015310  -0.000243
     3  H    0.399996  -0.010595   0.402962  -0.010595  -0.015310  -0.000243
     4  H    0.399996  -0.010595  -0.010595   0.402962  -0.015310  -0.000243
     5  N    0.098496  -0.015310  -0.015310  -0.015310   6.154163   0.637689
     6  N   -0.021546  -0.000243  -0.000243  -0.000243   0.637689   6.210095
 Mulliken charges:
               1
     1  C   -0.031421
     2  H    0.233784
     3  H    0.233784
     4  H    0.233784
     5  N    0.155581
     6  N    0.174489
 Sum of Mulliken charges =   1.00000
 Mulliken charges with hydrogens summed into heavy atoms:
               1
     1  C    0.669930
     5  N    0.155581
     6  N    0.174489
 Electronic spatial extent (au):  <R**2>=            144.6861
 Charge=              1.0000 electrons
 Dipole moment (field-independent basis, Debye):
    X=              0.0000    Y=              0.0000    Z=             -2.4438  Tot=              2.4438
 Quadrupole moment (field-independent basis, Debye-Ang):
   XX=            -14.4675   YY=            -14.4675   ZZ=             -9.8095
   XY=              0.0000   XZ=              0.0000   YZ=              0.0000
 Traceless Quadrupole moment (field-independent basis, Debye-Ang):
   XX=             -1.5527   YY=             -1.5527   ZZ=              3.1053
   XY=              0.0000   XZ=              0.0000   YZ=              0.0000
 Octapole moment (field-independent basis, Debye-Ang**2):
  XXX=              0.0000  YYY=              1.3262  ZZZ=             -7.4828  XYY=              0.0000
  XXY=             -1.3262  XXZ=             -1.6945  XZZ=              0.0000  YZZ=              0.0000
  YYZ=             -1.6945  XYZ=              0.0000
 Hexadecapole moment (field-independent basis, Debye-Ang**3):
 XXXX=            -17.0010 YYYY=            -17.0010 ZZZZ=           -126.1176 XXXY=              0.0000
 XXXZ=              0.0000 YYYX=              0.0000 YYYZ=             -2.1224 ZZZX=              0.0000
 ZZZY=              0.0000 XXYY=             -5.6670 XXZZ=            -22.1023 YYZZ=            -22.1023
 XXYZ=              2.1224 YYXZ=              0.0000 ZZXY=              0.0000
 N-N= 6.569002365060D+01 E-N=-4.709951308761D+02  KE= 1.478558583201D+02
 Symmetry A'   KE= 1.423567887088D+02
 Symmetry A"   KE= 5.499069611293D+00
 1\1\GINC-TC-NODE161\SP\RMP2-Full\6-311G(d,p)\C1H3N2(1+)\MAXB2\25-Oct-2
 016\0\\# mp2(full)/6-311g** scrf=(smd,solvent=water) geom=allcheck\\Ti
 tle Card Required\\1,1\C,0,0.0130118632,0.0225372208,0.0092007927\H,0,
 -0.020286015,-0.0351369171,1.0981152523\H,0,1.0285505784,-0.0351375747
 ,-0.3851651427\H,0,-0.5447051605,0.8731824737,-0.3851646856\N,0,-0.674
 8985965,-1.1689578454,-0.4772243512\N,0,-1.2022150489,-2.0822961187,-0
 .8500926187\\Version=ES64L-G09RevD.01\State=1-A1\HF=-148.3609226\MP2=-
 148.9007173\RMSD=3.843e-09\PG=C03V [C3(C1N1N1),3SGV(H1)]\\@


 ALL OUR THINKING ABOUT NATURE MUST NECESSARILY MOVE IN CIRCLES OR SPIRALS;
 FOR WE CAN ONLY UNDERSTAND NATURE IF WE THINK ABOUT HER, AND WE CAN ONLY
 THINK BECAUSE OUR BRAIN IS BUILT IN ACCORDANCE WITH NATURE'S LAWS.

                                             -- TIMOTHY FERRIS, "GALAXIES"
 Job cpu time:       0 days  0 hours  0 minutes 22.0 seconds.
 File lengths (MBytes):  RWF=     13 Int=      0 D2E=      0 Chk=      2 Scr=      1
 Normal termination of Gaussian 09 at Tue Oct 25 12:13:44 2016.
