 Entering Gaussian System, Link 0=g09
 Initial command:
 /cluster/software/gaussian/gaussian-09-D.01/g09/l1.exe "/local/scratch/maxb2/Gau-27538.inp" -scrdir="/local/scratch/maxb2/"
 Entering Link 1 = /cluster/software/gaussian/gaussian-09-D.01/g09/l1.exe PID=     27539.
  
 Copyright (c) 1988,1990,1992,1993,1995,1998,2003,2009,2013,
            Gaussian, Inc.  All Rights Reserved.
  
 This is part of the Gaussian(R) 09 program.  It is based on
 the Gaussian(R) 03 system (copyright 2003, Gaussian, Inc.),
 the Gaussian(R) 98 system (copyright 1998, Gaussian, Inc.),
 the Gaussian(R) 94 system (copyright 1995, Gaussian, Inc.),
 the Gaussian 92(TM) system (copyright 1992, Gaussian, Inc.),
 the Gaussian 90(TM) system (copyright 1990, Gaussian, Inc.),
 the Gaussian 88(TM) system (copyright 1988, Gaussian, Inc.),
 the Gaussian 86(TM) system (copyright 1986, Carnegie Mellon
 University), and the Gaussian 82(TM) system (copyright 1983,
 Carnegie Mellon University). Gaussian is a federally registered
 trademark of Gaussian, Inc.
  
 This software contains proprietary and confidential information,
 including trade secrets, belonging to Gaussian, Inc.
  
 This software is provided under written license and may be
 used, copied, transmitted, or stored only in accord with that
 written license.
  
 The following legend is applicable only to US Government
 contracts under FAR:
  
                    RESTRICTED RIGHTS LEGEND
  
 Use, reproduction and disclosure by the US Government is
 subject to restrictions as set forth in subparagraphs (a)
 and (c) of the Commercial Computer Software - Restricted
 Rights clause in FAR 52.227-19.
  
 Gaussian, Inc.
 340 Quinnipiac St., Bldg. 40, Wallingford CT 06492
  
  
 ---------------------------------------------------------------
 Warning -- This program may not be used in any manner that
 competes with the business of Gaussian, Inc. or will provide
 assistance to any competitor of Gaussian, Inc.  The licensee
 of this program is prohibited from giving any competitor of
 Gaussian, Inc. access to this program.  By using this program,
 the user acknowledges that Gaussian, Inc. is engaged in the
 business of creating and licensing software in the field of
 computational chemistry and represents and warrants to the
 licensee that it is not a competitor of Gaussian, Inc. and that
 it will not use this program in any manner prohibited above.
 ---------------------------------------------------------------
  

 Cite this work as:
 Gaussian 09, Revision D.01,
 M. J. Frisch, G. W. Trucks, H. B. Schlegel, G. E. Scuseria, 
 M. A. Robb, J. R. Cheeseman, G. Scalmani, V. Barone, B. Mennucci, 
 G. A. Petersson, H. Nakatsuji, M. Caricato, X. Li, H. P. Hratchian, 
 A. F. Izmaylov, J. Bloino, G. Zheng, J. L. Sonnenberg, M. Hada, 
 M. Ehara, K. Toyota, R. Fukuda, J. Hasegawa, M. Ishida, T. Nakajima, 
 Y. Honda, O. Kitao, H. Nakai, T. Vreven, J. A. Montgomery, Jr., 
 J. E. Peralta, F. Ogliaro, M. Bearpark, J. J. Heyd, E. Brothers, 
 K. N. Kudin, V. N. Staroverov, T. Keith, R. Kobayashi, J. Normand, 
 K. Raghavachari, A. Rendell, J. C. Burant, S. S. Iyengar, J. Tomasi, 
 M. Cossi, N. Rega, J. M. Millam, M. Klene, J. E. Knox, J. B. Cross, 
 V. Bakken, C. Adamo, J. Jaramillo, R. Gomperts, R. E. Stratmann, 
 O. Yazyev, A. J. Austin, R. Cammi, C. Pomelli, J. W. Ochterski, 
 R. L. Martin, K. Morokuma, V. G. Zakrzewski, G. A. Voth, 
 P. Salvador, J. J. Dannenberg, S. Dapprich, A. D. Daniels, 
 O. Farkas, J. B. Foresman, J. V. Ortiz, J. Cioslowski, 
 and D. J. Fox, Gaussian, Inc., Wallingford CT, 2013.
 
 ******************************************
 Gaussian 09:  ES64L-G09RevD.01 24-Apr-2013
                25-Oct-2016 
 ******************************************
 %nprocshared=8
 Will use up to    8 processors via shared memory.
 %mem=4gb
 %chk=H3CN2opt
 -----------------------------------------------
 # opt freq mp2(full)/6-311g** geom=connectivity
 -----------------------------------------------
 1/18=20,19=15,38=1,57=2/1,3;
 2/9=110,12=2,17=6,18=5,40=1/2;
 3/5=4,6=6,7=101,11=9,16=1,25=1,30=1,71=1/1,2,3;
 4//1;
 5/5=2,38=5/2;
 8/6=4,10=90/1;
 9/15=2,16=-3/6;
 10/5=1/2;
 6/7=2,8=2,9=2,10=2/1;
 7/12=2/1,2,3,16;
 1/18=20,19=15/3(2);
 2/9=110/2;
 99//99;
 2/9=110/2;
 3/5=4,6=6,7=101,11=9,16=1,25=1,30=1,71=1/1,2,3;
 4/5=5,16=3,69=1/1;
 5/5=2,38=5/2;
 8/6=4,10=90/1;
 9/15=2,16=-3/6;
 10/5=1/2;
 7/12=2/1,2,3,16;
 1/18=20,19=15/3(-8);
 2/9=110/2;
 6/7=2,8=2,9=2,10=2/1;
 99//99;
 -------------------
 Title Card Required
 -------------------
 Symbolic Z-matrix:
 Charge =  1 Multiplicity = 1
 C
 H                    1    B1
 H                    1    B2       2    A1
 H                    1    B3       3    A2       2    D1       0
 N                    1    B4       4    A3       3    D2       0
 N                    5    B5       1    A4       4    D3       0
       Variables:
  B1                    1.07                     
  B2                    1.07                     
  B3                    1.07                     
  B4                    1.47                     
  B5                    1.1023                   
  A1                  109.4712                   
  A2                  109.47122                  
  A3                  109.47122                  
  A4                  180.                       
  D1                  120.                       
  D2                 -120.00003                  
  D3                   81.47176                  
 
     3 tetrahedral angles replaced.

 GradGradGradGradGradGradGradGradGradGradGradGradGradGradGradGradGradGrad
 Berny optimization.
 Initialization pass.
                           ----------------------------
                           !    Initial Parameters    !
                           ! (Angstroms and Degrees)  !
 --------------------------                            --------------------------
 ! Name  Definition              Value          Derivative Info.                !
 --------------------------------------------------------------------------------
 ! R1    R(1,2)                  1.07           estimate D2E/DX2                !
 ! R2    R(1,3)                  1.07           estimate D2E/DX2                !
 ! R3    R(1,4)                  1.07           estimate D2E/DX2                !
 ! R4    R(1,5)                  1.47           estimate D2E/DX2                !
 ! R5    R(5,6)                  1.1023         estimate D2E/DX2                !
 ! A1    A(2,1,3)              109.4712         estimate D2E/DX2                !
 ! A2    A(2,1,4)              109.4712         estimate D2E/DX2                !
 ! A3    A(2,1,5)              109.4712         estimate D2E/DX2                !
 ! A4    A(3,1,4)              109.4712         estimate D2E/DX2                !
 ! A5    A(3,1,5)              109.4712         estimate D2E/DX2                !
 ! A6    A(4,1,5)              109.4712         estimate D2E/DX2                !
 ! A7    L(1,5,6,2,-1)         180.0            estimate D2E/DX2                !
 ! A8    L(1,5,6,2,-2)         180.0            estimate D2E/DX2                !
 ! D1    D(2,1,4,3)            120.0            estimate D2E/DX2                !
 ! D2    D(2,1,5,3)           -120.0            estimate D2E/DX2                !
 ! D3    D(2,1,5,4)            120.0            estimate D2E/DX2                !
 ! D4    D(3,1,5,4)           -120.0            estimate D2E/DX2                !
 --------------------------------------------------------------------------------
 Trust Radius=3.00D-01 FncErr=1.00D-07 GrdErr=1.00D-07
 Number of steps in this run=     27 maximum allowed number of steps=    100.
 GradGradGradGradGradGradGradGradGradGradGradGradGradGradGradGradGradGrad

                          Input orientation:                          
 ---------------------------------------------------------------------
 Center     Atomic      Atomic             Coordinates (Angstroms)
 Number     Number       Type             X           Y           Z
 ---------------------------------------------------------------------
      1          6           0        0.000000    0.000000    0.000000
      2          1           0        0.000000    0.000000    1.070000
      3          1           0        1.008806    0.000000   -0.356667
      4          1           0       -0.504403    0.873651   -0.356667
      5          7           0       -0.692965   -1.200250   -0.489999
      6          7           0       -1.212594   -2.100272   -0.857431
 ---------------------------------------------------------------------
                    Distance matrix (angstroms):
                    1          2          3          4          5
     1  C    0.000000
     2  H    1.070000   0.000000
     3  H    1.070000   1.747303   0.000000
     4  H    1.070000   1.747303   1.747303   0.000000
     5  N    1.470000   2.086720   2.086720   2.086720   0.000000
     6  N    2.572298   3.097825   3.097826   3.097825   1.102298
                    6
     6  N    0.000000
 Stoichiometry    CH3N2(1+)
 Framework group  C3V[C3(CNN),3SGV(H)]
 Deg. of freedom     4
 Full point group                 C3V     NOp   6
 Largest Abelian subgroup         CS      NOp   2
 Largest concise Abelian subgroup CS      NOp   2
                         Standard orientation:                         
 ---------------------------------------------------------------------
 Center     Atomic      Atomic             Coordinates (Angstroms)
 Number     Number       Type             X           Y           Z
 ---------------------------------------------------------------------
      1          6           0        0.000000    0.000000   -1.183743
      2          1           0        0.000000    1.008806   -1.540409
      3          1           0        0.873651   -0.504403   -1.540409
      4          1           0       -0.873651   -0.504403   -1.540409
      5          7           0        0.000000    0.000000    0.286257
      6          7           0        0.000000    0.000000    1.388555
 ---------------------------------------------------------------------
 Rotational constants (GHZ):    164.2463154      9.5023501      9.5023501
 Standard basis: 6-311G(d,p) (5D, 7F)
 There are    53 symmetry adapted cartesian basis functions of A'  symmetry.
 There are    22 symmetry adapted cartesian basis functions of A"  symmetry.
 There are    50 symmetry adapted basis functions of A'  symmetry.
 There are    22 symmetry adapted basis functions of A"  symmetry.
    72 basis functions,   120 primitive gaussians,    75 cartesian basis functions
    11 alpha electrons       11 beta electrons
       nuclear repulsion energy        66.0062816632 Hartrees.
 NAtoms=    6 NActive=    6 NUniq=    4 SFac= 2.25D+00 NAtFMM=   60 NAOKFM=F Big=F
 Integral buffers will be    131072 words long.
 Raffenetti 1 integral format.
 Two-electron integral symmetry is turned on.
 One-electron integrals computed using PRISM.
 NBasis=    72 RedAO= T EigKep=  2.63D-03  NBF=    50    22
 NBsUse=    72 1.00D-06 EigRej= -1.00D+00 NBFU=    50    22
 ExpMin= 1.03D-01 ExpMax= 6.29D+03 ExpMxC= 9.49D+02 IAcc=1 IRadAn=         1 AccDes= 0.00D+00
 Harris functional with IExCor=  205 and IRadAn=       1 diagonalized for initial guess.
 HarFok:  IExCor=  205 AccDes= 0.00D+00 IRadAn=         1 IDoV= 1 UseB2=F ITyADJ=14
 ICtDFT=  3500011 ScaDFX=  1.000000  1.000000  1.000000  1.000000
 FoFCou: FMM=F IPFlag=           0 FMFlag=      100000 FMFlg1=           0
         NFxFlg=           0 DoJE=T BraDBF=F KetDBF=T FulRan=T
         wScrn=  0.000000 ICntrl=     500 IOpCl=  0 I1Cent=   200000004 NGrid=           0
         NMat0=    1 NMatS0=      1 NMatT0=    0 NMatD0=    1 NMtDS0=    0 NMtDT0=    0
 Petite list used in FoFCou.
 Initial guess orbital symmetries:
       Occupied  (A1) (A1) (A1) (A1) (A1) (A1) (E) (E) (A1) (E)
                 (E)
       Virtual   (E) (E) (A1) (A1) (E) (E) (A1) (E) (E) (A1) (A1)
                 (E) (E) (E) (E) (A1) (A1) (E) (E) (A1) (E) (E)
                 (A1) (A1) (E) (E) (A2) (E) (E) (A1) (E) (E) (E)
                 (E) (A1) (E) (E) (E) (E) (A1) (E) (E) (E) (E)
                 (A1) (A1) (E) (E) (A1) (E) (E) (E) (E) (A1) (E)
                 (E) (A1) (A1) (A1) (A1) (A1)
 The electronic state of the initial guess is 1-A1.
 Keep R1 ints in memory in symmetry-blocked form, NReq=5271201.
 Requested convergence on RMS density matrix=1.00D-08 within 128 cycles.
 Requested convergence on MAX density matrix=1.00D-06.
 Requested convergence on             energy=1.00D-06.
 No special actions if energy rises.
 SCF Done:  E(RHF) =  -148.248792869     A.U. after   11 cycles
            NFock= 11  Conv=0.64D-08     -V/T= 2.0015
 Range of M.O.s used for correlation:     1    72
 NBasis=    72 NAE=    11 NBE=    11 NFC=     0 NFV=     0
 NROrb=     72 NOA=    11 NOB=    11 NVA=    61 NVB=    61
 Fully direct method using O(ONN) memory.
 JobTyp=1 Pass  1:  I=   1 to  11 NPSUse=  8 ParTrn=T ParDer=T DoDerP=T.
 Spin components of T(2) and E(2):
     alpha-alpha T2 =       0.2010602756D-01 E2=     -0.6219019676D-01
     alpha-beta  T2 =       0.1194972489D+00 E2=     -0.4082769929D+00
     beta-beta   T2 =       0.2010602756D-01 E2=     -0.6219019676D-01
 ANorm=    0.1076898001D+01
 E2 =    -0.5326573864D+00 EUMP2 =    -0.14878145025561D+03
          IDoAtm=111111
          Differentiating once with respect to electric field.
                with respect to dipole field.
          Differentiating once with respect to nuclear coordinates.
 Keep R1 ints in memory in symmetry-blocked form, NReq=5235541.
          There are     1 degrees of freedom in the 1st order CPHF.  IDoFFX=0 NUNeed=     1.
 LinEq1:  Iter=  0 NonCon=     1 RMS=6.64D-03 Max=5.37D-02 NDo=     1
 AX will form     1 AO Fock derivatives at one time.
 LinEq1:  Iter=  1 NonCon=     1 RMS=1.74D-03 Max=1.79D-02 NDo=     1
 LinEq1:  Iter=  2 NonCon=     1 RMS=8.07D-04 Max=8.06D-03 NDo=     1
 LinEq1:  Iter=  3 NonCon=     1 RMS=3.18D-04 Max=2.41D-03 NDo=     1
 LinEq1:  Iter=  4 NonCon=     1 RMS=6.06D-05 Max=5.23D-04 NDo=     1
 LinEq1:  Iter=  5 NonCon=     1 RMS=9.81D-06 Max=7.84D-05 NDo=     1
 LinEq1:  Iter=  6 NonCon=     1 RMS=2.57D-06 Max=1.77D-05 NDo=     1
 LinEq1:  Iter=  7 NonCon=     1 RMS=3.44D-07 Max=2.85D-06 NDo=     1
 LinEq1:  Iter=  8 NonCon=     1 RMS=5.83D-08 Max=3.72D-07 NDo=     1
 LinEq1:  Iter=  9 NonCon=     1 RMS=9.35D-09 Max=1.10D-07 NDo=     1
 LinEq1:  Iter= 10 NonCon=     1 RMS=1.07D-09 Max=6.94D-09 NDo=     1
 LinEq1:  Iter= 11 NonCon=     0 RMS=7.95D-11 Max=4.66D-10 NDo=     1
 Linear equations converged to 1.000D-10 1.000D-09 after    11 iterations.
 End of Minotr F.D. properties file   721 does not exist.
 End of Minotr F.D. properties file   722 does not exist.
 End of Minotr F.D. properties file   788 does not exist.

 **********************************************************************

            Population analysis using the SCF density.

 **********************************************************************

 Orbital symmetries:
       Occupied  (A1) (A1) (A1) (A1) (A1) (A1) (E) (E) (A1) (E)
                 (E)
       Virtual   (E) (E) (A1) (A1) (E) (E) (A1) (E) (E) (A1) (A1)
                 (E) (E) (E) (E) (A1) (A1) (E) (E) (A1) (E) (E)
                 (A1) (A1) (E) (E) (A2) (E) (E) (A1) (E) (E) (E)
                 (E) (A1) (E) (E) (E) (E) (A1) (E) (E) (A1) (E)
                 (E) (A1) (E) (E) (A1) (E) (E) (E) (E) (A1) (E)
                 (E) (A1) (A1) (A1) (A1) (A1)
 The electronic state is 1-A1.
 Alpha  occ. eigenvalues --  -16.02618 -16.01705 -11.56171  -1.78977  -1.37004
 Alpha  occ. eigenvalues --   -1.06797  -0.95959  -0.95959  -0.95749  -0.83161
 Alpha  occ. eigenvalues --   -0.83161
 Alpha virt. eigenvalues --   -0.13803  -0.13803  -0.04821   0.02719   0.02779
 Alpha virt. eigenvalues --    0.02779   0.19655   0.21820   0.21820   0.38381
 Alpha virt. eigenvalues --    0.46815   0.48406   0.48406   0.53306   0.53306
 Alpha virt. eigenvalues --    0.62085   0.64417   0.65904   0.65904   0.83549
 Alpha virt. eigenvalues --    1.06630   1.06630   1.12997   1.17096   1.44010
 Alpha virt. eigenvalues --    1.44010   1.45919   1.56106   1.56106   1.61215
 Alpha virt. eigenvalues --    1.64937   1.64937   1.90855   1.90855   2.03051
 Alpha virt. eigenvalues --    2.15070   2.15070   2.22930   2.22930   2.36778
 Alpha virt. eigenvalues --    2.46719   2.46719   2.61461   2.61644   2.61644
 Alpha virt. eigenvalues --    2.84507   3.07195   3.07195   3.21195   3.70321
 Alpha virt. eigenvalues --    3.70321   3.96867   3.96867   3.99172   4.07620
 Alpha virt. eigenvalues --    4.07620   4.47922   4.88732  24.78860  36.09706
 Alpha virt. eigenvalues --   37.37209
          Condensed to atoms (all electrons):
               1          2          3          4          5          6
     1  C    4.747201   0.403321   0.403321   0.403321   0.096732  -0.019552
     2  H    0.403321   0.400157  -0.009864  -0.009864  -0.012648  -0.000079
     3  H    0.403321  -0.009864   0.400157  -0.009864  -0.012648  -0.000079
     4  H    0.403321  -0.009864  -0.009864   0.400157  -0.012648  -0.000079
     5  N    0.096732  -0.012648  -0.012648  -0.012648   6.241443   0.582549
     6  N   -0.019552  -0.000079  -0.000079  -0.000079   0.582549   6.207049
 Mulliken charges:
               1
     1  C   -0.034343
     2  H    0.228976
     3  H    0.228976
     4  H    0.228976
     5  N    0.117222
     6  N    0.230192
 Sum of Mulliken charges =   1.00000
 Mulliken charges with hydrogens summed into heavy atoms:
               1
     1  C    0.652586
     5  N    0.117222
     6  N    0.230192
 Electronic spatial extent (au):  <R**2>=            144.6193
 Charge=              1.0000 electrons
 Dipole moment (field-independent basis, Debye):
    X=              0.0000    Y=              0.0000    Z=             -1.9811  Tot=              1.9811
 Quadrupole moment (field-independent basis, Debye-Ang):
   XX=            -14.5760   YY=            -14.5760   ZZ=             -8.5447
   XY=              0.0000   XZ=              0.0000   YZ=              0.0000
 Traceless Quadrupole moment (field-independent basis, Debye-Ang):
   XX=             -2.0104   YY=             -2.0104   ZZ=              4.0209
   XY=              0.0000   XZ=              0.0000   YZ=              0.0000
 Octapole moment (field-independent basis, Debye-Ang**2):
  XXX=              0.0000  YYY=              1.1314  ZZZ=             -7.0499  XYY=              0.0000
  XXY=             -1.1314  XXZ=             -1.3366  XZZ=              0.0000  YZZ=              0.0000
  YYZ=             -1.3366  XYZ=              0.0000
 Hexadecapole moment (field-independent basis, Debye-Ang**3):
 XXXX=            -16.7608 YYYY=            -16.7608 ZZZZ=           -119.9896 XXXY=              0.0000
 XXXZ=              0.0000 YYYX=              0.0000 YYYZ=             -1.9143 ZZZX=              0.0000
 ZZZY=              0.0000 XXYY=             -5.5869 XXZZ=            -21.7858 YYZZ=            -21.7858
 XXYZ=              1.9143 YYXZ=              0.0000 ZZXY=              0.0000
 N-N= 6.600628166319D+01 E-N=-4.717945722589D+02  KE= 1.480296564694D+02
 Symmetry A'   KE= 1.424804983760D+02
 Symmetry A"   KE= 5.549158093466D+00
 Calling FoFJK, ICntrl=  10002127 FMM=F ISym2X=1 I1Cent= 0 IOpClX= 0 NMat=1 NMatS=1 NMatT=0.
 ***** Axes restored to original set *****
 -------------------------------------------------------------------
 Center     Atomic                   Forces (Hartrees/Bohr)
 Number     Number              X              Y              Z
 -------------------------------------------------------------------
      1        6          -0.000596252   -0.001032738   -0.000421613
      2        1          -0.005007845   -0.008673846    0.015463340
      3        1           0.012909682   -0.008673857   -0.009875895
      4        1          -0.013966623    0.006843192   -0.009875887
      5        7           0.025493486    0.044155983    0.018026579
      6        7          -0.018832448   -0.032618734   -0.013316524
 -------------------------------------------------------------------
 Cartesian Forces:  Max     0.044155983 RMS     0.017544365

 GradGradGradGradGradGradGradGradGradGradGradGradGradGradGradGradGradGrad
 Berny optimization.
 FormGI is forming the generalized inverse of G from B-inverse, IUseBI=4.
 Internal  Forces:  Max     0.039949627 RMS     0.012920419
 Search for a local minimum.
 Step number   1 out of a maximum of   27
 All quantities printed in internal units (Hartrees-Bohrs-Radians)
 Mixed Optimization -- RFO/linear search
 Second derivative matrix not updated -- first step.
 The second derivative matrix:
                          R1        R2        R3        R4        R5
           R1           0.37230
           R2           0.00000   0.37230
           R3           0.00000   0.00000   0.37230
           R4           0.00000   0.00000   0.00000   0.35740
           R5           0.00000   0.00000   0.00000   0.00000   1.74423
           A1           0.00000   0.00000   0.00000   0.00000   0.00000
           A2           0.00000   0.00000   0.00000   0.00000   0.00000
           A3           0.00000   0.00000   0.00000   0.00000   0.00000
           A4           0.00000   0.00000   0.00000   0.00000   0.00000
           A5           0.00000   0.00000   0.00000   0.00000   0.00000
           A6           0.00000   0.00000   0.00000   0.00000   0.00000
           A7           0.00000   0.00000   0.00000   0.00000   0.00000
           A8           0.00000   0.00000   0.00000   0.00000   0.00000
           D1           0.00000   0.00000   0.00000   0.00000   0.00000
           D2           0.00000   0.00000   0.00000   0.00000   0.00000
           D3           0.00000   0.00000   0.00000   0.00000   0.00000
           D4           0.00000   0.00000   0.00000   0.00000   0.00000
                          A1        A2        A3        A4        A5
           A1           0.16000
           A2           0.00000   0.16000
           A3           0.00000   0.00000   0.16000
           A4           0.00000   0.00000   0.00000   0.16000
           A5           0.00000   0.00000   0.00000   0.00000   0.16000
           A6           0.00000   0.00000   0.00000   0.00000   0.00000
           A7           0.00000   0.00000   0.00000   0.00000   0.00000
           A8           0.00000   0.00000   0.00000   0.00000   0.00000
           D1           0.00000   0.00000   0.00000   0.00000   0.00000
           D2           0.00000   0.00000   0.00000   0.00000   0.00000
           D3           0.00000   0.00000   0.00000   0.00000   0.00000
           D4           0.00000   0.00000   0.00000   0.00000   0.00000
                          A6        A7        A8        D1        D2
           A6           0.16000
           A7           0.00000   0.05233
           A8           0.00000   0.00000   0.05233
           D1           0.00000   0.00000   0.00000   0.00499
           D2           0.00000   0.00000   0.00000   0.00000   0.00766
           D3           0.00000   0.00000   0.00000   0.00000   0.00000
           D4           0.00000   0.00000   0.00000   0.00000   0.00000
                          D3        D4
           D3           0.00766
           D4           0.00000   0.00766
 ITU=  0
     Eigenvalues ---    0.05233   0.05233   0.05402   0.06065   0.08802
     Eigenvalues ---    0.16000   0.16000   0.35740   0.37230   0.37230
     Eigenvalues ---    0.37230   1.74423
 RFO step:  Lambda=-6.80011344D-03 EMin= 5.23283454D-02
 Linear search not attempted -- first point.
 Iteration  1 RMS(Cart)=  0.04690824 RMS(Int)=  0.00259853
 Iteration  2 RMS(Cart)=  0.00131382 RMS(Int)=  0.00217610
 Iteration  3 RMS(Cart)=  0.00000332 RMS(Int)=  0.00217609
 Iteration  4 RMS(Cart)=  0.00000002 RMS(Int)=  0.00217609
 ClnCor:  largest displacement from symmetrization is 4.00D-03 for atom     4.
 Variable       Old X    -DE/DX   Delta X   Delta X   Delta X     New X
                                 (Linear)    (Quad)   (Total)
    R1        2.02201   0.01546   0.00000   0.04079   0.04003   2.06203
    R2        2.02201   0.01546   0.00000   0.04079   0.04003   2.06203
    R3        2.02201   0.01546   0.00000   0.04079   0.04003   2.06203
    R4        2.77790  -0.01413   0.00000  -0.03880  -0.03880   2.73910
    R5        2.08304   0.03995   0.00000   0.02281   0.02281   2.10586
    A1        1.91063   0.00306   0.00000   0.05325   0.05209   1.96272
    A2        1.91063   0.00649   0.00000   0.05851   0.05209   1.96272
    A3        1.91063  -0.00473   0.00000  -0.05665  -0.05551   1.85513
    A4        1.91063   0.00649   0.00000   0.05851   0.05209   1.96272
    A5        1.91063  -0.00473   0.00000  -0.05665  -0.05551   1.85513
    A6        1.91063  -0.00659   0.00000  -0.05698  -0.05551   1.85513
    A7        3.14159   0.00000   0.00000   0.00000   0.00000   3.14159
    A8        3.14159   0.00000   0.00000   0.00000   0.00000   3.14159
    D1        2.09440   0.01170   0.00000   0.13687   0.14265   2.23704
    D2       -2.09440   0.00204   0.00000   0.00416   0.00000  -2.09440
    D3        2.09440   0.00102   0.00000   0.00208   0.00000   2.09440
    D4       -2.09440  -0.00102   0.00000  -0.00208   0.00000  -2.09440
         Item               Value     Threshold  Converged?
 Maximum Force            0.039950     0.000450     NO 
 RMS     Force            0.012920     0.000300     NO 
 Maximum Displacement     0.075217     0.001800     NO 
 RMS     Displacement     0.046101     0.001200     NO 
 Predicted change in Energy=-3.653119D-03
 GradGradGradGradGradGradGradGradGradGradGradGradGradGradGradGradGradGrad

                          Input orientation:                          
 ---------------------------------------------------------------------
 Center     Atomic      Atomic             Coordinates (Angstroms)
 Number     Number       Type             X           Y           Z
 ---------------------------------------------------------------------
      1          6           0        0.009747    0.016883    0.006893
      2          1           0       -0.020521   -0.035543    1.096393
      3          1           0        1.026849   -0.035544   -0.384812
      4          1           0       -0.544206    0.871505   -0.384812
      5          7           0       -0.673539   -1.166603   -0.476263
      6          7           0       -1.198859   -2.076483   -0.847720
 ---------------------------------------------------------------------
                    Distance matrix (angstroms):
                    1          2          3          4          5
     1  C    0.000000
     2  H    1.091181   0.000000
     3  H    1.091181   1.814098   0.000000
     4  H    1.091181   1.814098   1.814098   0.000000
     5  N    1.449469   2.044255   2.044255   2.044255   0.000000
     6  N    2.563840   3.055076   3.055076   3.055076   1.114371
                    6
     6  N    0.000000
 Stoichiometry    CH3N2(1+)
 Framework group  C3V[C3(CNN),3SGV(H)]
 Deg. of freedom     4
 Full point group                 C3V     NOp   6
 Largest Abelian subgroup         CS      NOp   2
 Largest concise Abelian subgroup CS      NOp   2
                         Standard orientation:                         
 ---------------------------------------------------------------------
 Center     Atomic      Atomic             Coordinates (Angstroms)
 Number     Number       Type             X           Y           Z
 ---------------------------------------------------------------------
      1          6           0        0.000000    0.000000   -1.181517
      2          1           0        0.000000    1.047370   -1.487608
      3          1           0        0.907049   -0.523685   -1.487608
      4          1           0       -0.907049   -0.523685   -1.487608
      5          7           0        0.000000    0.000000    0.267952
      6          7           0        0.000000    0.000000    1.382323
 ---------------------------------------------------------------------
 Rotational constants (GHZ):    152.3738662      9.6433411      9.6433411
 Standard basis: 6-311G(d,p) (5D, 7F)
 There are    53 symmetry adapted cartesian basis functions of A'  symmetry.
 There are    22 symmetry adapted cartesian basis functions of A"  symmetry.
 There are    50 symmetry adapted basis functions of A'  symmetry.
 There are    22 symmetry adapted basis functions of A"  symmetry.
    72 basis functions,   120 primitive gaussians,    75 cartesian basis functions
    11 alpha electrons       11 beta electrons
       nuclear repulsion energy        65.9486578893 Hartrees.
 NAtoms=    6 NActive=    6 NUniq=    4 SFac= 2.25D+00 NAtFMM=   60 NAOKFM=F Big=F
 Integral buffers will be    131072 words long.
 Raffenetti 1 integral format.
 Two-electron integral symmetry is turned on.
 One-electron integrals computed using PRISM.
 NBasis=    72 RedAO= T EigKep=  2.75D-03  NBF=    50    22
 NBsUse=    72 1.00D-06 EigRej= -1.00D+00 NBFU=    50    22
 Initial guess from the checkpoint file:  "H3CN2opt.chk"
 B after Tr=     0.000000    0.000000    0.000000
         Rot=    1.000000    0.000000    0.000000    0.000000 Ang=   0.00 deg.
 Initial guess orbital symmetries:
       Occupied  (A1) (A1) (A1) (A1) (A1) (A1) (E) (E) (A1) (E)
                 (E)
       Virtual   (?A) (?A) (?A) (?A) (?A) (?A) (?A) (?A) (?A) (?A)
                 (?A) (?A) (?A) (?A) (?A) (?A) (?A) (?A) (?A) (?A)
                 (?A) (?A) (?A) (?A) (?A) (?A) (?A) (?A) (?A) (?A)
                 (?A) (?A) (?A) (?A) (?A) (?A) (?A) (?A) (?A) (?A)
                 (?A) (?A) (?A) (?A) (?A) (?A) (?A) (?A) (?A) (?A)
                 (?A) (?A) (?A) (?A) (?A) (?A) (?A) (?A) (?A) (?A)
                 (?A)
 ExpMin= 1.03D-01 ExpMax= 6.29D+03 ExpMxC= 9.49D+02 IAcc=1 IRadAn=         1 AccDes= 0.00D+00
 Harris functional with IExCor=  205 and IRadAn=       1 diagonalized for initial guess.
 HarFok:  IExCor=  205 AccDes= 0.00D+00 IRadAn=         1 IDoV= 1 UseB2=F ITyADJ=14
 ICtDFT=  3500011 ScaDFX=  1.000000  1.000000  1.000000  1.000000
 FoFCou: FMM=F IPFlag=           0 FMFlag=      100000 FMFlg1=           0
         NFxFlg=           0 DoJE=T BraDBF=F KetDBF=T FulRan=T
         wScrn=  0.000000 ICntrl=     500 IOpCl=  0 I1Cent=   200000004 NGrid=           0
         NMat0=    1 NMatS0=      1 NMatT0=    0 NMatD0=    1 NMtDS0=    0 NMtDT0=    0
 Petite list used in FoFCou.
 Keep R1 ints in memory in symmetry-blocked form, NReq=5271201.
 Requested convergence on RMS density matrix=1.00D-08 within 128 cycles.
 Requested convergence on MAX density matrix=1.00D-06.
 Requested convergence on             energy=1.00D-06.
 No special actions if energy rises.
 SCF Done:  E(RHF) =  -148.247251798     A.U. after   10 cycles
            NFock= 10  Conv=0.27D-08     -V/T= 2.0022
 Range of M.O.s used for correlation:     1    72
 NBasis=    72 NAE=    11 NBE=    11 NFC=     0 NFV=     0
 NROrb=     72 NOA=    11 NOB=    11 NVA=    61 NVB=    61
 Fully direct method using O(ONN) memory.
 JobTyp=1 Pass  1:  I=   1 to  11 NPSUse=  8 ParTrn=T ParDer=T DoDerP=T.
 Spin components of T(2) and E(2):
     alpha-alpha T2 =       0.2067657258D-01 E2=     -0.6299471984D-01
     alpha-beta  T2 =       0.1222942270D+00 E2=     -0.4116129792D+00
     beta-beta   T2 =       0.2067657258D-01 E2=     -0.6299471984D-01
 ANorm=    0.1078724883D+01
 E2 =    -0.5376024188D+00 EUMP2 =    -0.14878485421710D+03
          IDoAtm=111111
          Differentiating once with respect to electric field.
                with respect to dipole field.
          Differentiating once with respect to nuclear coordinates.
 Keep R1 ints in memory in symmetry-blocked form, NReq=5235541.
          There are     1 degrees of freedom in the 1st order CPHF.  IDoFFX=0 NUNeed=     1.
 LinEq1:  Iter=  0 NonCon=     1 RMS=6.81D-03 Max=5.33D-02 NDo=     1
 AX will form     1 AO Fock derivatives at one time.
 LinEq1:  Iter=  1 NonCon=     1 RMS=1.81D-03 Max=1.91D-02 NDo=     1
 LinEq1:  Iter=  2 NonCon=     1 RMS=8.61D-04 Max=8.98D-03 NDo=     1
 LinEq1:  Iter=  3 NonCon=     1 RMS=3.42D-04 Max=2.69D-03 NDo=     1
 LinEq1:  Iter=  4 NonCon=     1 RMS=6.59D-05 Max=6.09D-04 NDo=     1
 LinEq1:  Iter=  5 NonCon=     1 RMS=1.13D-05 Max=8.58D-05 NDo=     1
 LinEq1:  Iter=  6 NonCon=     1 RMS=3.02D-06 Max=2.05D-05 NDo=     1
 LinEq1:  Iter=  7 NonCon=     1 RMS=4.20D-07 Max=3.55D-06 NDo=     1
 LinEq1:  Iter=  8 NonCon=     1 RMS=7.00D-08 Max=4.42D-07 NDo=     1
 LinEq1:  Iter=  9 NonCon=     1 RMS=1.10D-08 Max=1.23D-07 NDo=     1
 LinEq1:  Iter= 10 NonCon=     1 RMS=1.25D-09 Max=8.20D-09 NDo=     1
 LinEq1:  Iter= 11 NonCon=     0 RMS=9.44D-11 Max=5.37D-10 NDo=     1
 Linear equations converged to 1.000D-10 1.000D-09 after    11 iterations.
 End of Minotr F.D. properties file   721 does not exist.
 End of Minotr F.D. properties file   722 does not exist.
 End of Minotr F.D. properties file   788 does not exist.
 Calling FoFJK, ICntrl=  10002127 FMM=F ISym2X=1 I1Cent= 0 IOpClX= 0 NMat=1 NMatS=1 NMatT=0.
 ***** Axes restored to original set *****
 -------------------------------------------------------------------
 Center     Atomic                   Forces (Hartrees/Bohr)
 Number     Number              X              Y              Z
 -------------------------------------------------------------------
      1        6           0.002242755    0.003884563    0.001585864
      2        1          -0.000155953   -0.000270119   -0.000036014
      3        1          -0.000085939   -0.000270119   -0.000135029
      4        1          -0.000190961   -0.000209484   -0.000135029
      5        7           0.002899242    0.005021631    0.002050069
      6        7          -0.004709144   -0.008156472   -0.003329861
 -------------------------------------------------------------------
 Cartesian Forces:  Max     0.008156472 RMS     0.002986523

 GradGradGradGradGradGradGradGradGradGradGradGradGradGradGradGradGradGrad
 Berny optimization.
 Using GEDIIS/GDIIS optimizer.
 FormGI is forming the generalized inverse of G from B-inverse, IUseBI=4.
 Internal  Forces:  Max     0.009989597 RMS     0.002599195
 Search for a local minimum.
 Step number   2 out of a maximum of   27
 All quantities printed in internal units (Hartrees-Bohrs-Radians)
 Mixed Optimization -- RFO/linear search
 Update second derivatives using D2CorX and points    1    2
 DE= -3.40D-03 DEPred=-3.65D-03 R= 9.32D-01
 TightC=F SS=  1.41D+00  RLast= 2.11D-01 DXNew= 5.0454D-01 6.3329D-01
 Trust test= 9.32D-01 RLast= 2.11D-01 DXMaxT set to 5.05D-01
 The second derivative matrix:
                          R1        R2        R3        R4        R5
           R1           0.37272
           R2           0.00042   0.37272
           R3           0.00042   0.00042   0.37272
           R4          -0.00884  -0.00884  -0.00884   0.37543
           R5          -0.02588  -0.02588  -0.02588   0.00773   1.62287
           A1          -0.01321  -0.01321  -0.01321   0.01066  -0.04049
           A2          -0.00532  -0.00532  -0.00532   0.00151  -0.02523
           A3           0.01077   0.01077   0.01077  -0.00753   0.03675
           A4          -0.00532  -0.00532  -0.00532   0.00151  -0.02523
           A5           0.01077   0.01077   0.01077  -0.00753   0.03675
           A6           0.00645   0.00645   0.00645  -0.00251   0.02840
           A7           0.00000   0.00000   0.00000   0.00000   0.00000
           A8           0.00000   0.00000   0.00000   0.00000   0.00000
           D1           0.02506   0.02506   0.02506  -0.02949   0.04722
           D2           0.00468   0.00468   0.00468  -0.00543   0.00905
           D3           0.00234   0.00234   0.00234  -0.00271   0.00453
           D4          -0.00234  -0.00234  -0.00234   0.00271  -0.00453
                          A1        A2        A3        A4        A5
           A1           0.15002
           A2          -0.00846   0.15476
           A3           0.01000   0.00767   0.15032
           A4          -0.00846  -0.00524   0.00767   0.15476
           A5           0.01000   0.00767  -0.00968   0.00767   0.15032
           A6           0.00917   0.00591  -0.00840   0.00591  -0.00840
           A7           0.00000   0.00000   0.00000   0.00000   0.00000
           A8           0.00000   0.00000   0.00000   0.00000   0.00000
           D1           0.00420   0.00996  -0.00689   0.00996  -0.00689
           D2           0.00090   0.00191  -0.00138   0.00191  -0.00138
           D3           0.00045   0.00095  -0.00069   0.00095  -0.00069
           D4          -0.00045  -0.00095   0.00069  -0.00095   0.00069
                          A6        A7        A8        D1        D2
           A6           0.15338
           A7           0.00000   0.05233
           A8           0.00000   0.00000   0.05233
           D1          -0.01004   0.00000   0.00000   0.02447
           D2          -0.00193   0.00000   0.00000   0.00341   0.00825
           D3          -0.00097   0.00000   0.00000   0.00171   0.00030
           D4           0.00097   0.00000   0.00000  -0.00171  -0.00030
                          D3        D4
           D3           0.00781
           D4          -0.00015   0.00781
 ITU=  1  0
 Use linear search instead of GDIIS.
     Eigenvalues ---    0.05233   0.05233   0.05748   0.06630   0.08836
     Eigenvalues ---    0.16000   0.16122   0.35857   0.37230   0.37230
     Eigenvalues ---    0.38987   1.62470
 RFO step:  Lambda=-1.02673197D-04 EMin= 5.23283454D-02
 Quartic linear search produced a step of  0.02926.
 Iteration  1 RMS(Cart)=  0.00321742 RMS(Int)=  0.00006700
 Iteration  2 RMS(Cart)=  0.00000350 RMS(Int)=  0.00006691
 Iteration  3 RMS(Cart)=  0.00000000 RMS(Int)=  0.00006691
 ClnCor:  largest displacement from symmetrization is 1.23D-04 for atom     4.
 Variable       Old X    -DE/DX   Delta X   Delta X   Delta X     New X
                                 (Linear)    (Quad)   (Total)
    R1        2.06203  -0.00002   0.00117  -0.00064   0.00054   2.06258
    R2        2.06203  -0.00002   0.00117  -0.00064   0.00054   2.06258
    R3        2.06203  -0.00002   0.00117  -0.00064   0.00054   2.06258
    R4        2.73910   0.00384  -0.00114   0.01161   0.01047   2.74957
    R5        2.10586   0.00999   0.00067   0.00557   0.00624   2.11210
    A1        1.96272   0.00007   0.00152   0.00120   0.00247   1.96519
    A2        1.96272   0.00018   0.00152   0.00100   0.00247   1.96519
    A3        1.85513  -0.00015  -0.00162  -0.00124  -0.00284   1.85229
    A4        1.96272   0.00018   0.00152   0.00100   0.00247   1.96519
    A5        1.85513  -0.00015  -0.00162  -0.00124  -0.00284   1.85229
    A6        1.85513  -0.00019  -0.00162  -0.00117  -0.00284   1.85229
    A7        3.14159   0.00000   0.00000   0.00000   0.00000   3.14159
    A8        3.14159   0.00000   0.00000   0.00000   0.00000   3.14159
    D1        2.23704   0.00040   0.00417   0.00334   0.00766   2.24470
    D2       -2.09440   0.00006   0.00000  -0.00013   0.00000  -2.09440
    D3        2.09440   0.00003   0.00000  -0.00007   0.00000   2.09440
    D4       -2.09440  -0.00003   0.00000   0.00007   0.00000  -2.09440
         Item               Value     Threshold  Converged?
 Maximum Force            0.009990     0.000450     NO 
 RMS     Force            0.002599     0.000300     NO 
 Maximum Displacement     0.007724     0.001800     NO 
 RMS     Displacement     0.003216     0.001200     NO 
 Predicted change in Energy=-5.386052D-05
 GradGradGradGradGradGradGradGradGradGradGradGradGradGradGradGradGradGrad

                          Input orientation:                          
 ---------------------------------------------------------------------
 Center     Atomic      Atomic             Coordinates (Angstroms)
 Number     Number       Type             X           Y           Z
 ---------------------------------------------------------------------
      1          6           0        0.011556    0.020016    0.008172
      2          1           0       -0.020268   -0.035105    1.097782
      3          1           0        1.028243   -0.035106   -0.385037
      4          1           0       -0.544524    0.872932   -0.385037
      5          7           0       -0.674342   -1.167995   -0.476831
      6          7           0       -1.201219   -2.080571   -0.849388
 ---------------------------------------------------------------------
                    Distance matrix (angstroms):
                    1          2          3          4          5
     1  C    0.000000
     2  H    1.091468   0.000000
     3  H    1.091468   1.816075   0.000000
     4  H    1.091468   1.816075   1.816075   0.000000
     5  N    1.455010   2.047110   2.047110   2.047110   0.000000
     6  N    2.572683   3.061054   3.061054   3.061054   1.117673
                    6
     6  N    0.000000
 Stoichiometry    CH3N2(1+)
 Framework group  C3V[C3(CNN),3SGV(H)]
 Deg. of freedom     4
 Full point group                 C3V     NOp   6
 Largest Abelian subgroup         CS      NOp   2
 Largest concise Abelian subgroup CS      NOp   2
                         Standard orientation:                         
 ---------------------------------------------------------------------
 Center     Atomic      Atomic             Coordinates (Angstroms)
 Number     Number       Type             X           Y           Z
 ---------------------------------------------------------------------
      1          6           0        0.000000    0.000000   -1.186272
      2          1           0        0.000000    1.048511   -1.489467
      3          1           0        0.908037   -0.524256   -1.489467
      4          1           0       -0.908037   -0.524256   -1.489467
      5          7           0        0.000000    0.000000    0.268737
      6          7           0        0.000000    0.000000    1.386411
 ---------------------------------------------------------------------
 Rotational constants (GHZ):    152.0423560      9.5850519      9.5850519
 Standard basis: 6-311G(d,p) (5D, 7F)
 There are    53 symmetry adapted cartesian basis functions of A'  symmetry.
 There are    22 symmetry adapted cartesian basis functions of A"  symmetry.
 There are    50 symmetry adapted basis functions of A'  symmetry.
 There are    22 symmetry adapted basis functions of A"  symmetry.
    72 basis functions,   120 primitive gaussians,    75 cartesian basis functions
    11 alpha electrons       11 beta electrons
       nuclear repulsion energy        65.7737872428 Hartrees.
 NAtoms=    6 NActive=    6 NUniq=    4 SFac= 2.25D+00 NAtFMM=   60 NAOKFM=F Big=F
 Integral buffers will be    131072 words long.
 Raffenetti 1 integral format.
 Two-electron integral symmetry is turned on.
 One-electron integrals computed using PRISM.
 NBasis=    72 RedAO= T EigKep=  2.80D-03  NBF=    50    22
 NBsUse=    72 1.00D-06 EigRej= -1.00D+00 NBFU=    50    22
 Initial guess from the checkpoint file:  "H3CN2opt.chk"
 B after Tr=     0.000000    0.000000    0.000000
         Rot=    1.000000    0.000000    0.000000    0.000000 Ang=   0.00 deg.
 Initial guess orbital symmetries:
       Occupied  (A1) (A1) (A1) (A1) (A1) (A1) (E) (E) (A1) (E)
                 (E)
       Virtual   (?A) (?A) (?A) (?A) (?A) (?A) (?A) (?A) (?A) (?A)
                 (?A) (?A) (?A) (?A) (?A) (?A) (?A) (?A) (?A) (?A)
                 (?A) (?A) (?A) (?A) (?A) (?A) (?A) (?A) (?A) (?A)
                 (?A) (?A) (?A) (?A) (?A) (?A) (?A) (?A) (?A) (?A)
                 (?A) (?A) (?A) (?A) (?A) (?A) (?A) (?A) (?A) (?A)
                 (?A) (?A) (?A) (?A) (?A) (?A) (?A) (?A) (?A) (?A)
                 (?A)
 Keep R1 ints in memory in symmetry-blocked form, NReq=5271201.
 Requested convergence on RMS density matrix=1.00D-08 within 128 cycles.
 Requested convergence on MAX density matrix=1.00D-06.
 Requested convergence on             energy=1.00D-06.
 No special actions if energy rises.
 SCF Done:  E(RHF) =  -148.246422109     A.U. after    9 cycles
            NFock=  9  Conv=0.38D-08     -V/T= 2.0024
 Range of M.O.s used for correlation:     1    72
 NBasis=    72 NAE=    11 NBE=    11 NFC=     0 NFV=     0
 NROrb=     72 NOA=    11 NOB=    11 NVA=    61 NVB=    61
 Fully direct method using O(ONN) memory.
 JobTyp=1 Pass  1:  I=   1 to  11 NPSUse=  8 ParTrn=T ParDer=T DoDerP=T.
 Spin components of T(2) and E(2):
     alpha-alpha T2 =       0.2079576268D-01 E2=     -0.6310091997D-01
     alpha-beta  T2 =       0.1229549141D+00 E2=     -0.4122999134D+00
     beta-beta   T2 =       0.2079576268D-01 E2=     -0.6310091997D-01
 ANorm=    0.1079141529D+01
 E2 =    -0.5385017533D+00 EUMP2 =    -0.14878492386187D+03
          IDoAtm=111111
          Differentiating once with respect to electric field.
                with respect to dipole field.
          Differentiating once with respect to nuclear coordinates.
 Keep R1 ints in memory in symmetry-blocked form, NReq=5235541.
          There are     1 degrees of freedom in the 1st order CPHF.  IDoFFX=0 NUNeed=     1.
 LinEq1:  Iter=  0 NonCon=     1 RMS=6.87D-03 Max=5.37D-02 NDo=     1
 AX will form     1 AO Fock derivatives at one time.
 LinEq1:  Iter=  1 NonCon=     1 RMS=1.83D-03 Max=1.95D-02 NDo=     1
 LinEq1:  Iter=  2 NonCon=     1 RMS=8.83D-04 Max=9.22D-03 NDo=     1
 LinEq1:  Iter=  3 NonCon=     1 RMS=3.48D-04 Max=2.72D-03 NDo=     1
 LinEq1:  Iter=  4 NonCon=     1 RMS=6.72D-05 Max=6.20D-04 NDo=     1
 LinEq1:  Iter=  5 NonCon=     1 RMS=1.16D-05 Max=8.82D-05 NDo=     1
 LinEq1:  Iter=  6 NonCon=     1 RMS=3.10D-06 Max=2.08D-05 NDo=     1
 LinEq1:  Iter=  7 NonCon=     1 RMS=4.37D-07 Max=3.73D-06 NDo=     1
 LinEq1:  Iter=  8 NonCon=     1 RMS=7.27D-08 Max=4.55D-07 NDo=     1
 LinEq1:  Iter=  9 NonCon=     1 RMS=1.14D-08 Max=1.27D-07 NDo=     1
 LinEq1:  Iter= 10 NonCon=     1 RMS=1.28D-09 Max=8.28D-09 NDo=     1
 LinEq1:  Iter= 11 NonCon=     0 RMS=9.57D-11 Max=5.48D-10 NDo=     1
 Linear equations converged to 1.000D-10 1.000D-09 after    11 iterations.
 End of Minotr F.D. properties file   721 does not exist.
 End of Minotr F.D. properties file   722 does not exist.
 End of Minotr F.D. properties file   788 does not exist.
 Calling FoFJK, ICntrl=  10002127 FMM=F ISym2X=1 I1Cent= 0 IOpClX= 0 NMat=1 NMatS=1 NMatT=0.
 ***** Axes restored to original set *****
 -------------------------------------------------------------------
 Center     Atomic                   Forces (Hartrees/Bohr)
 Number     Number              X              Y              Z
 -------------------------------------------------------------------
      1        6           0.001114578    0.001930505    0.000788124
      2        1          -0.000086871   -0.000150465   -0.000293386
      3        1          -0.000305564   -0.000150465    0.000015893
      4        1           0.000022475   -0.000339859    0.000015892
      5        7           0.000180904    0.000313335    0.000127918
      6        7          -0.000925522   -0.001603051   -0.000654442
 -------------------------------------------------------------------
 Cartesian Forces:  Max     0.001930505 RMS     0.000743153

 GradGradGradGradGradGradGradGradGradGradGradGradGradGradGradGradGradGrad
 Berny optimization.
 Using GEDIIS/GDIIS optimizer.
 FormGI is forming the generalized inverse of G from B-inverse, IUseBI=4.
 Internal  Forces:  Max     0.001963328 RMS     0.000628055
 Search for a local minimum.
 Step number   3 out of a maximum of   27
 All quantities printed in internal units (Hartrees-Bohrs-Radians)
 Mixed Optimization -- En-DIIS/RFO-DIIS
 Update second derivatives using D2CorX and points    1    2    3
 DE= -6.96D-05 DEPred=-5.39D-05 R= 1.29D+00
 TightC=F SS=  1.41D+00  RLast= 1.58D-02 DXNew= 8.4853D-01 4.7499D-02
 Trust test= 1.29D+00 RLast= 1.58D-02 DXMaxT set to 5.05D-01
 The second derivative matrix:
                          R1        R2        R3        R4        R5
           R1           0.37505
           R2           0.00275   0.37505
           R3           0.00275   0.00275   0.37505
           R4          -0.00340  -0.00340  -0.00340   0.31117
           R5           0.00454   0.00454   0.00454  -0.11266   1.54472
           A1          -0.01308  -0.01308  -0.01308   0.00739  -0.04776
           A2          -0.00496  -0.00496  -0.00496  -0.00421  -0.03694
           A3           0.01054   0.01054   0.01054  -0.00218   0.04848
           A4          -0.00496  -0.00496  -0.00496  -0.00421  -0.03694
           A5           0.01054   0.01054   0.01054  -0.00218   0.04848
           A6           0.00611   0.00611   0.00611   0.00425   0.04288
           A7           0.00000   0.00000   0.00000   0.00000   0.00000
           A8           0.00000   0.00000   0.00000   0.00000   0.00000
           D1           0.02597   0.02597   0.02597  -0.03754   0.03357
           D2           0.00482   0.00482   0.00482  -0.00686   0.00650
           D3           0.00241   0.00241   0.00241  -0.00343   0.00325
           D4          -0.00241  -0.00241  -0.00241   0.00343  -0.00325
                          A1        A2        A3        A4        A5
           A1           0.14987
           A2          -0.00872   0.15429
           A3           0.01024   0.00810   0.14992
           A4          -0.00872  -0.00571   0.00810   0.15429
           A5           0.01024   0.00810  -0.01008   0.00810   0.14992
           A6           0.00947   0.00646  -0.00891   0.00646  -0.00891
           A7           0.00000   0.00000   0.00000   0.00000   0.00000
           A8           0.00000   0.00000   0.00000   0.00000   0.00000
           D1           0.00381   0.00929  -0.00625   0.00929  -0.00625
           D2           0.00083   0.00179  -0.00127   0.00179  -0.00127
           D3           0.00042   0.00089  -0.00064   0.00089  -0.00064
           D4          -0.00042  -0.00089   0.00064  -0.00089   0.00064
                          A6        A7        A8        D1        D2
           A6           0.15274
           A7           0.00000   0.05233
           A8           0.00000   0.00000   0.05233
           D1          -0.00924   0.00000   0.00000   0.02357
           D2          -0.00179   0.00000   0.00000   0.00325   0.00823
           D3          -0.00090   0.00000   0.00000   0.00163   0.00028
           D4           0.00090   0.00000   0.00000  -0.00163  -0.00028
                          D3        D4
           D3           0.00780
           D4          -0.00014   0.00780
 ITU=  1  1  0
 Use linear search instead of GDIIS.
     Eigenvalues ---    0.05233   0.05233   0.05598   0.06658   0.08166
     Eigenvalues ---    0.16000   0.16033   0.30568   0.37230   0.37230
     Eigenvalues ---    0.38168   1.55614
 RFO step:  Lambda=-4.77160652D-06 EMin= 5.23283454D-02
 Quartic linear search produced a step of  0.42460.
 Iteration  1 RMS(Cart)=  0.00157657 RMS(Int)=  0.00000711
 Iteration  2 RMS(Cart)=  0.00000303 RMS(Int)=  0.00000644
 Iteration  3 RMS(Cart)=  0.00000000 RMS(Int)=  0.00000644
 ClnCor:  largest displacement from symmetrization is 3.30D-05 for atom     4.
 Variable       Old X    -DE/DX   Delta X   Delta X   Delta X     New X
                                 (Linear)    (Quad)   (Total)
    R1        2.06258  -0.00028   0.00023  -0.00108  -0.00085   2.06173
    R2        2.06258  -0.00028   0.00023  -0.00108  -0.00085   2.06173
    R3        2.06258  -0.00028   0.00023  -0.00108  -0.00085   2.06173
    R4        2.74957   0.00158   0.00445   0.00222   0.00667   2.75624
    R5        2.11210   0.00196   0.00265  -0.00063   0.00202   2.11411
    A1        1.96519   0.00004   0.00105   0.00102   0.00207   1.96727
    A2        1.96519   0.00011   0.00105   0.00105   0.00207   1.96727
    A3        1.85229  -0.00009  -0.00121  -0.00119  -0.00240   1.84989
    A4        1.96519   0.00011   0.00105   0.00105   0.00207   1.96727
    A5        1.85229  -0.00009  -0.00121  -0.00119  -0.00240   1.84989
    A6        1.85229  -0.00012  -0.00121  -0.00121  -0.00240   1.84989
    A7        3.14159   0.00000   0.00000   0.00000   0.00000   3.14159
    A8        3.14159   0.00000   0.00000   0.00000   0.00000   3.14159
    D1        2.24470   0.00024   0.00325   0.00323   0.00649   2.25119
    D2       -2.09440   0.00004   0.00000   0.00002   0.00000  -2.09440
    D3        2.09440   0.00002   0.00000   0.00001   0.00000   2.09440
    D4       -2.09440  -0.00002   0.00000  -0.00001   0.00000  -2.09440
         Item               Value     Threshold  Converged?
 Maximum Force            0.001963     0.000450     NO 
 RMS     Force            0.000628     0.000300     NO 
 Maximum Displacement     0.004130     0.001800     NO 
 RMS     Displacement     0.001577     0.001200     NO 
 Predicted change in Energy=-8.787339D-06
 GradGradGradGradGradGradGradGradGradGradGradGradGradGradGradGradGradGrad

                          Input orientation:                          
 ---------------------------------------------------------------------
 Center     Atomic      Atomic             Coordinates (Angstroms)
 Number     Number       Type             X           Y           Z
 ---------------------------------------------------------------------
      1          6           0        0.012818    0.022201    0.009064
      2          1           0       -0.020299   -0.035159    1.098070
      3          1           0        1.028503   -0.035160   -0.385162
      4          1           0       -0.544701    0.873130   -0.385162
      5          7           0       -0.674744   -1.168690   -0.477115
      6          7           0       -1.202124   -2.082138   -0.850028
 ---------------------------------------------------------------------
                    Distance matrix (angstroms):
                    1          2          3          4          5
     1  C    0.000000
     2  H    1.091018   0.000000
     3  H    1.091018   1.816580   0.000000
     4  H    1.091018   1.816580   1.816580   0.000000
     5  N    1.458538   2.048023   2.048023   2.048023   0.000000
     6  N    2.577279   3.062991   3.062991   3.062991   1.118741
                    6
     6  N    0.000000
 Stoichiometry    CH3N2(1+)
 Framework group  C3V[C3(CNN),3SGV(H)]
 Deg. of freedom     4
 Full point group                 C3V     NOp   6
 Largest Abelian subgroup         CS      NOp   2
 Largest concise Abelian subgroup CS      NOp   2
                         Standard orientation:                         
 ---------------------------------------------------------------------
 Center     Atomic      Atomic             Coordinates (Angstroms)
 Number     Number       Type             X           Y           Z
 ---------------------------------------------------------------------
      1          6           0        0.000000    0.000000   -1.189089
      2          1           0        0.000000    1.048803   -1.489644
      3          1           0        0.908290   -0.524402   -1.489644
      4          1           0       -0.908290   -0.524402   -1.489644
      5          7           0        0.000000    0.000000    0.269449
      6          7           0        0.000000    0.000000    1.388190
 ---------------------------------------------------------------------
 Rotational constants (GHZ):    151.9577594      9.5565616      9.5565616
 Standard basis: 6-311G(d,p) (5D, 7F)
 There are    53 symmetry adapted cartesian basis functions of A'  symmetry.
 There are    22 symmetry adapted cartesian basis functions of A"  symmetry.
 There are    50 symmetry adapted basis functions of A'  symmetry.
 There are    22 symmetry adapted basis functions of A"  symmetry.
    72 basis functions,   120 primitive gaussians,    75 cartesian basis functions
    11 alpha electrons       11 beta electrons
       nuclear repulsion energy        65.6979272696 Hartrees.
 NAtoms=    6 NActive=    6 NUniq=    4 SFac= 2.25D+00 NAtFMM=   60 NAOKFM=F Big=F
 Integral buffers will be    131072 words long.
 Raffenetti 1 integral format.
 Two-electron integral symmetry is turned on.
 One-electron integrals computed using PRISM.
 NBasis=    72 RedAO= T EigKep=  2.82D-03  NBF=    50    22
 NBsUse=    72 1.00D-06 EigRej= -1.00D+00 NBFU=    50    22
 Initial guess from the checkpoint file:  "H3CN2opt.chk"
 B after Tr=     0.000000    0.000000    0.000000
         Rot=    1.000000    0.000000    0.000000    0.000000 Ang=   0.00 deg.
 Initial guess orbital symmetries:
       Occupied  (A1) (A1) (A1) (A1) (A1) (A1) (E) (E) (A1) (E)
                 (E)
       Virtual   (?A) (?A) (?A) (?A) (?A) (?A) (?A) (?A) (?A) (?A)
                 (?A) (?A) (?A) (?A) (?A) (?A) (?A) (?A) (?A) (?A)
                 (?A) (?A) (?A) (?A) (?A) (?A) (?A) (?A) (?A) (?A)
                 (?A) (?A) (?A) (?A) (?A) (?A) (?A) (?A) (?A) (?A)
                 (?A) (?A) (?A) (?A) (?A) (?A) (?A) (?A) (?A) (?A)
                 (?A) (?A) (?A) (?A) (?A) (?A) (?A) (?A) (?A) (?A)
                 (?A)
 Keep R1 ints in memory in symmetry-blocked form, NReq=5271201.
 Requested convergence on RMS density matrix=1.00D-08 within 128 cycles.
 Requested convergence on MAX density matrix=1.00D-06.
 Requested convergence on             energy=1.00D-06.
 No special actions if energy rises.
 SCF Done:  E(RHF) =  -148.246215796     A.U. after    8 cycles
            NFock=  8  Conv=0.88D-08     -V/T= 2.0025
 Range of M.O.s used for correlation:     1    72
 NBasis=    72 NAE=    11 NBE=    11 NFC=     0 NFV=     0
 NROrb=     72 NOA=    11 NOB=    11 NVA=    61 NVB=    61
 Fully direct method using O(ONN) memory.
 JobTyp=1 Pass  1:  I=   1 to  11 NPSUse=  8 ParTrn=T ParDer=T DoDerP=T.
 Spin components of T(2) and E(2):
     alpha-alpha T2 =       0.2082846990D-01 E2=     -0.6311636056D-01
     alpha-beta  T2 =       0.1231537428D+00 E2=     -0.4124850963D+00
     beta-beta   T2 =       0.2082846990D-01 E2=     -0.6311636056D-01
 ANorm=    0.1079263954D+01
 E2 =    -0.5387178174D+00 EUMP2 =    -0.14878493361357D+03
          IDoAtm=111111
          Differentiating once with respect to electric field.
                with respect to dipole field.
          Differentiating once with respect to nuclear coordinates.
 Keep R1 ints in memory in symmetry-blocked form, NReq=5235541.
          There are     1 degrees of freedom in the 1st order CPHF.  IDoFFX=0 NUNeed=     1.
 LinEq1:  Iter=  0 NonCon=     1 RMS=6.89D-03 Max=5.38D-02 NDo=     1
 AX will form     1 AO Fock derivatives at one time.
 LinEq1:  Iter=  1 NonCon=     1 RMS=1.84D-03 Max=1.96D-02 NDo=     1
 LinEq1:  Iter=  2 NonCon=     1 RMS=8.90D-04 Max=9.32D-03 NDo=     1
 LinEq1:  Iter=  3 NonCon=     1 RMS=3.50D-04 Max=2.73D-03 NDo=     1
 LinEq1:  Iter=  4 NonCon=     1 RMS=6.76D-05 Max=6.22D-04 NDo=     1
 LinEq1:  Iter=  5 NonCon=     1 RMS=1.17D-05 Max=8.89D-05 NDo=     1
 LinEq1:  Iter=  6 NonCon=     1 RMS=3.13D-06 Max=2.08D-05 NDo=     1
 LinEq1:  Iter=  7 NonCon=     1 RMS=4.41D-07 Max=3.78D-06 NDo=     1
 LinEq1:  Iter=  8 NonCon=     1 RMS=7.35D-08 Max=4.58D-07 NDo=     1
 LinEq1:  Iter=  9 NonCon=     1 RMS=1.15D-08 Max=1.29D-07 NDo=     1
 LinEq1:  Iter= 10 NonCon=     1 RMS=1.29D-09 Max=8.27D-09 NDo=     1
 LinEq1:  Iter= 11 NonCon=     0 RMS=9.59D-11 Max=5.50D-10 NDo=     1
 Linear equations converged to 1.000D-10 1.000D-09 after    11 iterations.
 End of Minotr F.D. properties file   721 does not exist.
 End of Minotr F.D. properties file   722 does not exist.
 End of Minotr F.D. properties file   788 does not exist.
 Calling FoFJK, ICntrl=  10002127 FMM=F ISym2X=1 I1Cent= 0 IOpClX= 0 NMat=1 NMatS=1 NMatT=0.
 ***** Axes restored to original set *****
 -------------------------------------------------------------------
 Center     Atomic                   Forces (Hartrees/Bohr)
 Number     Number              X              Y              Z
 -------------------------------------------------------------------
      1        6           0.000211223    0.000365849    0.000149357
      2        1          -0.000013051   -0.000022605   -0.000032444
      3        1          -0.000034939   -0.000022605   -0.000001490
      4        1          -0.000002107   -0.000041561   -0.000001490
      5        7          -0.000456496   -0.000790674   -0.000322791
      6        7           0.000295370    0.000511595    0.000208858
 -------------------------------------------------------------------
 Cartesian Forces:  Max     0.000790674 RMS     0.000292148

 GradGradGradGradGradGradGradGradGradGradGradGradGradGradGradGradGradGrad
 Berny optimization.
 Using GEDIIS/GDIIS optimizer.
 FormGI is forming the generalized inverse of G from B-inverse, IUseBI=4.
 Internal  Forces:  Max     0.000626574 RMS     0.000174013
 Search for a local minimum.
 Step number   4 out of a maximum of   27
 All quantities printed in internal units (Hartrees-Bohrs-Radians)
 Mixed Optimization -- En-DIIS/RFO-DIIS
 Swapping is turned off.
 Update second derivatives using D2CorX and points    1    2    3    4
 DE= -9.75D-06 DEPred=-8.79D-06 R= 1.11D+00
 TightC=F SS=  1.41D+00  RLast= 1.11D-02 DXNew= 8.4853D-01 3.3273D-02
 Trust test= 1.11D+00 RLast= 1.11D-02 DXMaxT set to 5.05D-01
 The second derivative matrix:
                          R1        R2        R3        R4        R5
           R1           0.37126
           R2          -0.00104   0.37126
           R3          -0.00104  -0.00104   0.37126
           R4           0.00454   0.00454   0.00454   0.26250
           R5          -0.01066  -0.01066  -0.01066  -0.08842   1.76666
           A1          -0.01178  -0.01178  -0.01178  -0.00675  -0.07318
           A2          -0.00434  -0.00434  -0.00434  -0.01423  -0.05241
           A3           0.00930   0.00930   0.00930   0.01185   0.07145
           A4          -0.00434  -0.00434  -0.00434  -0.01423  -0.05241
           A5           0.00930   0.00930   0.00930   0.01185   0.07145
           A6           0.00519   0.00519   0.00519   0.01627   0.06104
           A7           0.00000   0.00000   0.00000   0.00000   0.00000
           A8           0.00000   0.00000   0.00000   0.00000   0.00000
           D1           0.02350   0.02350   0.02350  -0.02365   0.06862
           D2           0.00440   0.00440   0.00440  -0.00436   0.01258
           D3           0.00220   0.00220   0.00220  -0.00218   0.00629
           D4          -0.00220  -0.00220  -0.00220   0.00218  -0.00629
                          A1        A2        A3        A4        A5
           A1           0.14811
           A2          -0.01048   0.15288
           A3           0.01226   0.00991   0.14772
           A4          -0.01048  -0.00712   0.00991   0.15288
           A5           0.01226   0.00991  -0.01228   0.00991   0.14772
           A6           0.01147   0.00807  -0.01099   0.00807  -0.01099
           A7           0.00000   0.00000   0.00000   0.00000   0.00000
           A8           0.00000   0.00000   0.00000   0.00000   0.00000
           D1           0.00358   0.01026  -0.00668   0.01026  -0.00668
           D2           0.00084   0.00199  -0.00139   0.00199  -0.00139
           D3           0.00042   0.00100  -0.00069   0.00100  -0.00069
           D4          -0.00042  -0.00100   0.00069  -0.00100   0.00069
                          A6        A7        A8        D1        D2
           A6           0.15087
           A7           0.00000   0.05233
           A8           0.00000   0.00000   0.05233
           D1          -0.01028   0.00000   0.00000   0.02789
           D2          -0.00201   0.00000   0.00000   0.00398   0.00835
           D3          -0.00101   0.00000   0.00000   0.00199   0.00034
           D4           0.00101   0.00000   0.00000  -0.00199  -0.00034
                          D3        D4
           D3           0.00783
           D4          -0.00017   0.00783
 ITU=  1  1  1  0
     Eigenvalues ---    0.05233   0.05233   0.05435   0.06682   0.07837
     Eigenvalues ---    0.15989   0.16000   0.26717   0.36968   0.37230
     Eigenvalues ---    0.37230   1.77337
 En-DIIS/RFO-DIIS IScMMF=        0 using points:     4    3
 RFO step:  Lambda=-5.20771864D-07.
 DidBck=F Rises=F RFO-DIIS coefs:    1.09132   -0.09132
 Iteration  1 RMS(Cart)=  0.00026028 RMS(Int)=  0.00000045
 Iteration  2 RMS(Cart)=  0.00000006 RMS(Int)=  0.00000045
 ClnCor:  largest displacement from symmetrization is 2.13D-05 for atom     4.
 Variable       Old X    -DE/DX   Delta X   Delta X   Delta X     New X
                                 (Linear)    (Quad)   (Total)
    R1        2.06173  -0.00003  -0.00008  -0.00005  -0.00013   2.06159
    R2        2.06173  -0.00003  -0.00008  -0.00005  -0.00013   2.06159
    R3        2.06173  -0.00003  -0.00008  -0.00005  -0.00013   2.06159
    R4        2.75624   0.00034   0.00061   0.00079   0.00140   2.75763
    R5        2.11411  -0.00063   0.00018  -0.00044  -0.00025   2.11386
    A1        1.96727   0.00001   0.00019   0.00008   0.00029   1.96756
    A2        1.96727   0.00002   0.00019   0.00011   0.00029   1.96756
    A3        1.84989  -0.00001  -0.00022  -0.00012  -0.00034   1.84955
    A4        1.96727   0.00002   0.00019   0.00011   0.00029   1.96756
    A5        1.84989  -0.00001  -0.00022  -0.00012  -0.00034   1.84955
    A6        1.84989  -0.00002  -0.00022  -0.00013  -0.00034   1.84955
    A7        3.14159   0.00000   0.00000   0.00000   0.00000   3.14159
    A8        3.14159   0.00000   0.00000   0.00000   0.00000   3.14159
    D1        2.25119   0.00004   0.00059   0.00032   0.00091   2.25211
    D2       -2.09440   0.00001   0.00000   0.00002   0.00000  -2.09440
    D3        2.09440   0.00000   0.00000   0.00001   0.00000   2.09440
    D4       -2.09440   0.00000   0.00000  -0.00001   0.00000  -2.09440
         Item               Value     Threshold  Converged?
 Maximum Force            0.000627     0.000450     NO 
 RMS     Force            0.000174     0.000300     YES
 Maximum Displacement     0.000635     0.001800     YES
 RMS     Displacement     0.000260     0.001200     YES
 Predicted change in Energy=-3.537601D-07
 GradGradGradGradGradGradGradGradGradGradGradGradGradGradGradGradGradGrad

                          Input orientation:                          
 ---------------------------------------------------------------------
 Center     Atomic      Atomic             Coordinates (Angstroms)
 Number     Number       Type             X           Y           Z
 ---------------------------------------------------------------------
      1          6           0        0.013012    0.022537    0.009201
      2          1           0       -0.020286   -0.035137    1.098115
      3          1           0        1.028551   -0.035138   -0.385165
      4          1           0       -0.544705    0.873182   -0.385165
      5          7           0       -0.674899   -1.168958   -0.477224
      6          7           0       -1.202215   -2.082296   -0.850093
 ---------------------------------------------------------------------
                    Distance matrix (angstroms):
                    1          2          3          4          5
     1  C    0.000000
     2  H    1.090949   0.000000
     3  H    1.090949   1.816639   0.000000
     4  H    1.090949   1.816639   1.816639   0.000000
     5  N    1.459277   2.048356   2.048356   2.048356   0.000000
     6  N    2.577884   3.063222   3.063222   3.063222   1.118606
                    6
     6  N    0.000000
 Stoichiometry    CH3N2(1+)
 Framework group  C3V[C3(CNN),3SGV(H)]
 Deg. of freedom     4
 Full point group                 C3V     NOp   6
 Largest Abelian subgroup         CS      NOp   2
 Largest concise Abelian subgroup CS      NOp   2
                         Standard orientation:                         
 ---------------------------------------------------------------------
 Center     Atomic      Atomic             Coordinates (Angstroms)
 Number     Number       Type             X           Y           Z
 ---------------------------------------------------------------------
      1          6           0        0.000000    0.000000   -1.189547
      2          1           0        0.000000    1.048837   -1.489730
      3          1           0        0.908320   -0.524419   -1.489730
      4          1           0       -0.908320   -0.524419   -1.489730
      5          7           0        0.000000    0.000000    0.269731
      6          7           0        0.000000    0.000000    1.388337
 ---------------------------------------------------------------------
 Rotational constants (GHZ):    151.9478522      9.5526338      9.5526338
 Standard basis: 6-311G(d,p) (5D, 7F)
 There are    53 symmetry adapted cartesian basis functions of A'  symmetry.
 There are    22 symmetry adapted cartesian basis functions of A"  symmetry.
 There are    50 symmetry adapted basis functions of A'  symmetry.
 There are    22 symmetry adapted basis functions of A"  symmetry.
    72 basis functions,   120 primitive gaussians,    75 cartesian basis functions
    11 alpha electrons       11 beta electrons
       nuclear repulsion energy        65.6903409458 Hartrees.
 NAtoms=    6 NActive=    6 NUniq=    4 SFac= 2.25D+00 NAtFMM=   60 NAOKFM=F Big=F
 Integral buffers will be    131072 words long.
 Raffenetti 1 integral format.
 Two-electron integral symmetry is turned on.
 One-electron integrals computed using PRISM.
 NBasis=    72 RedAO= T EigKep=  2.82D-03  NBF=    50    22
 NBsUse=    72 1.00D-06 EigRej= -1.00D+00 NBFU=    50    22
 Initial guess from the checkpoint file:  "H3CN2opt.chk"
 B after Tr=     0.000000    0.000000    0.000000
         Rot=    1.000000    0.000000    0.000000    0.000000 Ang=   0.00 deg.
 Initial guess orbital symmetries:
       Occupied  (A1) (A1) (A1) (A1) (A1) (A1) (E) (E) (A1) (E)
                 (E)
       Virtual   (?A) (?A) (?A) (?A) (?A) (?A) (?A) (?A) (?A) (?A)
                 (?A) (?A) (?A) (?A) (?A) (?A) (?A) (?A) (?A) (?A)
                 (?A) (?A) (?A) (?A) (?A) (?A) (?A) (?A) (?A) (?A)
                 (?A) (?A) (?A) (?A) (?A) (?A) (?A) (?A) (?A) (?A)
                 (?A) (?A) (?A) (?A) (?A) (?A) (?A) (?A) (?A) (?A)
                 (?A) (?A) (?A) (?A) (?A) (?A) (?A) (?A) (?A) (?A)
                 (?A)
 Keep R1 ints in memory in symmetry-blocked form, NReq=5271201.
 Requested convergence on RMS density matrix=1.00D-08 within 128 cycles.
 Requested convergence on MAX density matrix=1.00D-06.
 Requested convergence on             energy=1.00D-06.
 No special actions if energy rises.
 SCF Done:  E(RHF) =  -148.246284447     A.U. after    7 cycles
            NFock=  7  Conv=0.41D-08     -V/T= 2.0025
 Range of M.O.s used for correlation:     1    72
 NBasis=    72 NAE=    11 NBE=    11 NFC=     0 NFV=     0
 NROrb=     72 NOA=    11 NOB=    11 NVA=    61 NVB=    61
 Fully direct method using O(ONN) memory.
 JobTyp=1 Pass  1:  I=   1 to  11 NPSUse=  8 ParTrn=T ParDer=T DoDerP=T.
 Spin components of T(2) and E(2):
     alpha-alpha T2 =       0.2082128516D-01 E2=     -0.6310211149D-01
     alpha-beta  T2 =       0.1231283963D+00 E2=     -0.4124454020D+00
     beta-beta   T2 =       0.2082128516D-01 E2=     -0.6310211149D-01
 ANorm=    0.1079245554D+01
 E2 =    -0.5386496250D+00 EUMP2 =    -0.14878493407189D+03
          IDoAtm=111111
          Differentiating once with respect to electric field.
                with respect to dipole field.
          Differentiating once with respect to nuclear coordinates.
 Keep R1 ints in memory in symmetry-blocked form, NReq=5235541.
          There are     1 degrees of freedom in the 1st order CPHF.  IDoFFX=0 NUNeed=     1.
 LinEq1:  Iter=  0 NonCon=     1 RMS=6.89D-03 Max=5.38D-02 NDo=     1
 AX will form     1 AO Fock derivatives at one time.
 LinEq1:  Iter=  1 NonCon=     1 RMS=1.84D-03 Max=1.96D-02 NDo=     1
 LinEq1:  Iter=  2 NonCon=     1 RMS=8.90D-04 Max=9.31D-03 NDo=     1
 LinEq1:  Iter=  3 NonCon=     1 RMS=3.50D-04 Max=2.73D-03 NDo=     1
 LinEq1:  Iter=  4 NonCon=     1 RMS=6.75D-05 Max=6.20D-04 NDo=     1
 LinEq1:  Iter=  5 NonCon=     1 RMS=1.17D-05 Max=8.87D-05 NDo=     1
 LinEq1:  Iter=  6 NonCon=     1 RMS=3.12D-06 Max=2.08D-05 NDo=     1
 LinEq1:  Iter=  7 NonCon=     1 RMS=4.40D-07 Max=3.76D-06 NDo=     1
 LinEq1:  Iter=  8 NonCon=     1 RMS=7.34D-08 Max=4.57D-07 NDo=     1
 LinEq1:  Iter=  9 NonCon=     1 RMS=1.15D-08 Max=1.29D-07 NDo=     1
 LinEq1:  Iter= 10 NonCon=     1 RMS=1.28D-09 Max=8.25D-09 NDo=     1
 LinEq1:  Iter= 11 NonCon=     0 RMS=9.57D-11 Max=5.49D-10 NDo=     1
 Linear equations converged to 1.000D-10 1.000D-09 after    11 iterations.
 End of Minotr F.D. properties file   721 does not exist.
 End of Minotr F.D. properties file   722 does not exist.
 End of Minotr F.D. properties file   788 does not exist.
 Calling FoFJK, ICntrl=  10002127 FMM=F ISym2X=1 I1Cent= 0 IOpClX= 0 NMat=1 NMatS=1 NMatT=0.
 ***** Axes restored to original set *****
 -------------------------------------------------------------------
 Center     Atomic                   Forces (Hartrees/Bohr)
 Number     Number              X              Y              Z
 -------------------------------------------------------------------
      1        6           0.000053355    0.000092413    0.000037727
      2        1          -0.000009099   -0.000015760    0.000001892
      3        1          -0.000001249   -0.000015760   -0.000009209
      4        1          -0.000013024   -0.000008962   -0.000009209
      5        7          -0.000182787   -0.000316596   -0.000129250
      6        7           0.000152804    0.000264665    0.000108049
 -------------------------------------------------------------------
 Cartesian Forces:  Max     0.000316596 RMS     0.000122301

 GradGradGradGradGradGradGradGradGradGradGradGradGradGradGradGradGradGrad
 Berny optimization.
 Using GEDIIS/GDIIS optimizer.
 FormGI is forming the generalized inverse of G from B-inverse, IUseBI=4.
 Internal  Forces:  Max     0.000324147 RMS     0.000080506
 Search for a local minimum.
 Step number   5 out of a maximum of   27
 All quantities printed in internal units (Hartrees-Bohrs-Radians)
 Mixed Optimization -- En-DIIS/RFO-DIIS
 Swapping is turned off.
 Update second derivatives using D2CorX and points    1    2    3    4    5
 DE= -4.58D-07 DEPred=-3.54D-07 R= 1.30D+00
 Trust test= 1.30D+00 RLast= 1.87D-03 DXMaxT set to 5.05D-01
 The second derivative matrix:
                          R1        R2        R3        R4        R5
           R1           0.37409
           R2           0.00179   0.37409
           R3           0.00179   0.00179   0.37409
           R4          -0.00116  -0.00116  -0.00116   0.25399
           R5          -0.02821  -0.02821  -0.02821   0.05488   1.42691
           A1          -0.00724  -0.00724  -0.00724  -0.02645  -0.03856
           A2          -0.00125  -0.00125  -0.00125  -0.02861  -0.02765
           A3           0.00499   0.00499   0.00499   0.03138   0.03700
           A4          -0.00125  -0.00125  -0.00125  -0.02861  -0.02765
           A5           0.00499   0.00499   0.00499   0.03138   0.03700
           A6           0.00159   0.00159   0.00159   0.03291   0.03191
           A7           0.00000   0.00000   0.00000   0.00000   0.00000
           A8           0.00000   0.00000   0.00000   0.00000   0.00000
           D1           0.01856   0.01856   0.01856  -0.00747   0.03861
           D2           0.00352   0.00352   0.00352  -0.00118   0.00671
           D3           0.00176   0.00176   0.00176  -0.00059   0.00335
           D4          -0.00176  -0.00176  -0.00176   0.00059  -0.00335
                          A1        A2        A3        A4        A5
           A1           0.14607
           A2          -0.01179   0.15199
           A3           0.01429   0.01126   0.14568
           A4          -0.01179  -0.00801   0.01126   0.15199
           A5           0.01429   0.01126  -0.01432   0.01126   0.14568
           A6           0.01309   0.00916  -0.01263   0.00916  -0.01263
           A7           0.00000   0.00000   0.00000   0.00000   0.00000
           A8           0.00000   0.00000   0.00000   0.00000   0.00000
           D1           0.00567   0.01136  -0.00862   0.01136  -0.00862
           D2           0.00126   0.00224  -0.00179   0.00224  -0.00179
           D3           0.00063   0.00112  -0.00090   0.00112  -0.00090
           D4          -0.00063  -0.00112   0.00090  -0.00112   0.00090
                          A6        A7        A8        D1        D2
           A6           0.14955
           A7           0.00000   0.05233
           A8           0.00000   0.00000   0.05233
           D1          -0.01171   0.00000   0.00000   0.02462
           D2          -0.00232   0.00000   0.00000   0.00339   0.00824
           D3          -0.00116   0.00000   0.00000   0.00169   0.00029
           D4           0.00116   0.00000   0.00000  -0.00169  -0.00029
                          D3        D4
           D3           0.00780
           D4          -0.00014   0.00780
 ITU=  0  1  1  1  0
     Eigenvalues ---    0.05138   0.05233   0.05233   0.06686   0.07477
     Eigenvalues ---    0.15960   0.16000   0.26702   0.37230   0.37230
     Eigenvalues ---    0.37623   1.43226
 En-DIIS/RFO-DIIS IScMMF=        0 using points:     5    4    3
 RFO step:  Lambda=-1.04209437D-07.
 DidBck=F Rises=F RFO-DIIS coefs:    1.54947   -0.59383    0.04436
 Iteration  1 RMS(Cart)=  0.00010144 RMS(Int)=  0.00000016
 Iteration  2 RMS(Cart)=  0.00000002 RMS(Int)=  0.00000016
 ClnCor:  largest displacement from symmetrization is 5.89D-06 for atom     4.
 Variable       Old X    -DE/DX   Delta X   Delta X   Delta X     New X
                                 (Linear)    (Quad)   (Total)
    R1        2.06159   0.00000  -0.00003   0.00002  -0.00002   2.06158
    R2        2.06159   0.00000  -0.00003   0.00002  -0.00002   2.06158
    R3        2.06159   0.00000  -0.00003   0.00002  -0.00002   2.06158
    R4        2.75763   0.00006   0.00047  -0.00004   0.00043   2.75806
    R5        2.11386  -0.00032  -0.00023  -0.00002  -0.00025   2.11361
    A1        1.96756   0.00000   0.00007   0.00011   0.00017   1.96773
    A2        1.96756   0.00001   0.00007   0.00010   0.00017   1.96773
    A3        1.84955  -0.00001  -0.00008  -0.00012  -0.00020   1.84935
    A4        1.96756   0.00001   0.00007   0.00010   0.00017   1.96773
    A5        1.84955  -0.00001  -0.00008  -0.00012  -0.00020   1.84935
    A6        1.84955  -0.00001  -0.00008  -0.00012  -0.00020   1.84935
    A7        3.14159   0.00000   0.00000   0.00000   0.00000   3.14159
    A8        3.14159   0.00000   0.00000   0.00000   0.00000   3.14159
    D1        2.25211   0.00002   0.00021   0.00032   0.00054   2.25264
    D2       -2.09440   0.00000   0.00000   0.00000   0.00000  -2.09440
    D3        2.09440   0.00000   0.00000   0.00000   0.00000   2.09440
    D4       -2.09440   0.00000   0.00000   0.00000   0.00000  -2.09440
         Item               Value     Threshold  Converged?
 Maximum Force            0.000324     0.000450     YES
 RMS     Force            0.000081     0.000300     YES
 Maximum Displacement     0.000244     0.001800     YES
 RMS     Displacement     0.000102     0.001200     YES
 Predicted change in Energy=-6.220028D-08
 Optimization completed.
    -- Stationary point found.
                           ----------------------------
                           !   Optimized Parameters   !
                           ! (Angstroms and Degrees)  !
 --------------------------                            --------------------------
 ! Name  Definition              Value          Derivative Info.                !
 --------------------------------------------------------------------------------
 ! R1    R(1,2)                  1.0909         -DE/DX =    0.0                 !
 ! R2    R(1,3)                  1.0909         -DE/DX =    0.0                 !
 ! R3    R(1,4)                  1.0909         -DE/DX =    0.0                 !
 ! R4    R(1,5)                  1.4593         -DE/DX =    0.0001              !
 ! R5    R(5,6)                  1.1186         -DE/DX =   -0.0003              !
[...]
 Approx polarizability:  13.335   0.000  13.335   0.000   0.000  28.162
 Calling FoFJK, ICntrl=  10100127 FMM=F ISym2X=1 I1Cent= 0 IOpClX= 0 NMat=1 NMatS=1 NMatT=0.
 Full mass-weighted force constant matrix:
 Low frequencies ---  -10.1852   -0.0012   -0.0012   -0.0010    8.4560    8.4568
 Low frequencies ---  345.4149  345.4150  777.5822
 Diagonal vibrational polarizability:
        0.5511773       0.5511773       0.4844679
 Harmonic frequencies (cm**-1), IR intensities (KM/Mole), Raman scattering
 activities (A**4/AMU), depolarization ratios for plane and unpolarized
 incident light, reduced masses (AMU), force constants (mDyne/A),
 and normal coordinates:
                      1                      2                      3
                      E                      E                     A1
 Frequencies --    345.4142               345.4143               777.5822
 Red. masses --      4.6977                 4.6977                 7.4142
 Frc consts  --      0.3302                 0.3302                 2.6412
 IR Inten    --      0.2779                 0.2779                 7.1499
  Atom  AN      X      Y      Z        X      Y      Z        X      Y      Z
     1   6     0.11   0.03   0.00    -0.03   0.11   0.00     0.00   0.00   0.60
     2   1     0.27   0.07   0.13    -0.07   0.27   0.55     0.00  -0.05   0.38
     3   1     0.27   0.07   0.41    -0.07   0.27  -0.39    -0.05   0.03   0.38
     4   1     0.27   0.07  -0.54    -0.07   0.27  -0.16     0.05   0.03   0.38
     5   7    -0.43  -0.10   0.00     0.10  -0.43   0.00     0.00   0.00  -0.26
     6   7     0.27   0.07   0.00    -0.07   0.27   0.00     0.00   0.00  -0.34
                      4                      5                      6
                      E                      E                     A1
 Frequencies --   1155.4075              1155.4075              1437.2805
 Red. masses --      1.3390                 1.3390                 1.1318
 Frc consts  --      1.0532                 1.0532                 1.3775
 IR Inten    --      0.6815                 0.6815                 3.3696
  Atom  AN      X      Y      Z        X      Y      Z        X      Y      Z
     1   6     0.14   0.02   0.00    -0.02   0.14   0.00     0.00   0.00  -0.10
     2   1    -0.40  -0.01  -0.10     0.05  -0.06  -0.69     0.00   0.18   0.54
     3   1    -0.16  -0.19  -0.55    -0.13  -0.29   0.43     0.16  -0.09   0.54
     4   1    -0.12   0.10   0.64     0.17  -0.33   0.26    -0.16  -0.09   0.54
     5   7    -0.09  -0.01   0.00     0.01  -0.09   0.00     0.00   0.00   0.00
     6   7     0.01   0.00   0.00     0.00   0.01   0.00     0.00   0.00  -0.03
                      7                      8                      9
                      E                      E                     A1
 Frequencies --   1470.1375              1470.1375              2220.1787
 Red. masses --      1.0358                 1.0358                13.0457
 Frc consts  --      1.3190                 1.3190                37.8874
 IR Inten    --     30.6862                30.6862                 5.7332
  Atom  AN      X      Y      Z        X      Y      Z        X      Y      Z
     1   6     0.01  -0.04   0.00    -0.04  -0.01   0.00     0.00   0.00  -0.05
     2   1    -0.14  -0.14  -0.41     0.67  -0.03  -0.08     0.00  -0.08  -0.13
     3   1     0.34   0.40   0.28     0.13   0.45  -0.31    -0.07   0.04  -0.13
     4   1    -0.36   0.54   0.13    -0.01  -0.26   0.40     0.07   0.04  -0.13
     5   7     0.01  -0.03   0.00    -0.03  -0.01   0.00     0.00   0.00   0.71
     6   7     0.00   0.00   0.00     0.00   0.00   0.00     0.00   0.00  -0.64
                     10                     11                     12
                     A1                      E                      E
 Frequencies --   3105.4873              3237.3838              3237.3838
 Red. masses --      1.0245                 1.1113                 1.1113
 Frc consts  --      5.8212                 6.8620                 6.8620
 IR Inten    --     32.6266                36.0886                36.0886
  Atom  AN      X      Y      Z        X      Y      Z        X      Y      Z
     1   6     0.00   0.00   0.04     0.04  -0.09   0.00    -0.09  -0.04   0.00
     2   1     0.00   0.55  -0.16     0.01   0.72  -0.20    -0.01   0.30  -0.08
     3   1     0.48  -0.28  -0.16    -0.54   0.30   0.18     0.41  -0.25  -0.13
     4   1    -0.48  -0.28  -0.16     0.10   0.04   0.03     0.67   0.39   0.22
     5   7     0.00   0.00   0.01     0.00   0.00   0.00     0.00   0.00   0.00
     6   7     0.00   0.00   0.00     0.00   0.00   0.00     0.00   0.00   0.00

 -------------------
 - Thermochemistry -
 -------------------
 Temperature   298.150 Kelvin.  Pressure   1.00000 Atm.
 Atom     1 has atomic number  6 and mass  12.00000
 Atom     2 has atomic number  1 and mass   1.00783
 Atom     3 has atomic number  1 and mass   1.00783
 Atom     4 has atomic number  1 and mass   1.00783
 Atom     5 has atomic number  7 and mass  14.00307
 Atom     6 has atomic number  7 and mass  14.00307
 Molecular mass:    43.02962 amu.
 Principal axes and moments of inertia in atomic units:
                           1         2         3
     Eigenvalues --    11.87737 188.92603 188.92603
           X            0.00000   0.83141   0.55565
           Y            0.00000  -0.55565   0.83141
           Z            1.00000   0.00000   0.00000
 This molecule is a prolate symmetric top.
 Rotational symmetry number  3.
 Rotational temperatures (Kelvin)      7.29234     0.45845     0.45845
 Rotational constants (GHZ):         151.94785     9.55263     9.55263
 Zero-point vibrational energy     119370.7 (Joules/Mol)
                                   28.53027 (Kcal/Mol)
 Warning -- explicit consideration of   2 degrees of freedom as
           vibrations may cause significant error
 Vibrational temperatures:    496.97   496.97  1118.77  1662.37  1662.37
          (Kelvin)           2067.92  2115.20  2115.20  3194.34  4468.10
                             4657.87  4657.87
 
 Zero-point correction=                           0.045466 (Hartree/Particle)
 Thermal correction to Energy=                    0.049174
 Thermal correction to Enthalpy=                  0.050118
 Thermal correction to Gibbs Free Energy=         0.022351
 Sum of electronic and zero-point Energies=           -148.739468
 Sum of electronic and thermal Energies=              -148.735760
 Sum of electronic and thermal Enthalpies=            -148.734816
 Sum of electronic and thermal Free Energies=         -148.762583
 
                     E (Thermal)             CV                S
                      KCal/Mol        Cal/Mol-Kelvin    Cal/Mol-Kelvin
 Total                   30.857             10.556             58.441
 Electronic               0.000              0.000              0.000
 Translational            0.889              2.981             37.204
 Rotational               0.889              2.981             18.494
 Vibrational             29.080              4.594              2.742
 Vibration     1          0.724              1.585              1.187
 Vibration     2          0.724              1.585              1.187
                       Q            Log10(Q)             Ln(Q)
 Total Bot       0.523870D-10        -10.280777        -23.672363
 Total V=0       0.428580D+11         10.632032         24.481159
 Vib (Bot)       0.192194D-20        -20.716260        -47.700952
 Vib (Bot)    1  0.535723D+00         -0.271060         -0.624139
 Vib (Bot)    2  0.535722D+00         -0.271060         -0.624139
 Vib (V=0)       0.157235D+01          0.196548          0.452569
 Vib (V=0)    1  0.123280D+01          0.090893          0.209290
 Vib (V=0)    2  0.123280D+01          0.090893          0.209289
 Electronic      0.100000D+01          0.000000          0.000000
 Translational   0.110945D+08          7.045107         16.221957
 Rotational      0.245684D+04          3.390377          7.806632
 ***** Axes restored to original set *****
 -------------------------------------------------------------------
 Center     Atomic                   Forces (Hartrees/Bohr)
 Number     Number              X              Y              Z
 -------------------------------------------------------------------
      1        6           0.000053352    0.000092409    0.000037726
      2        1          -0.000009099   -0.000015759    0.000001883
      3        1          -0.000001257   -0.000015759   -0.000009206
      4        1          -0.000013019   -0.000008968   -0.000009206
      5        7          -0.000182802   -0.000316622   -0.000129260
      6        7           0.000152824    0.000264700    0.000108063
 -------------------------------------------------------------------
 Cartesian Forces:  Max     0.000316622 RMS     0.000122312
 FormGI is forming the generalized inverse of G from B-inverse, IUseBI=4.

 GradGradGradGradGradGradGradGradGradGradGradGradGradGradGradGradGradGrad
 Berny optimization.
 Internal  Forces:  Max     0.000324189 RMS     0.000080516
 Search for a local minimum.
 Step number   1 out of a maximum of    2
 All quantities printed in internal units (Hartrees-Bohrs-Radians)
 Second derivative matrix not updated -- analytic derivatives used.
 The second derivative matrix:
                          R1        R2        R3        R4        R5
           R1           0.36066
           R2           0.00055   0.36066
           R3           0.00055   0.00055   0.36066
           R4           0.00772   0.00772   0.00772   0.24429
           R5          -0.00450  -0.00450  -0.00450   0.00945   1.24548
           A1           0.00154   0.00154  -0.00250  -0.00643  -0.00012
           A2           0.00188  -0.00275   0.00223  -0.01549  -0.00028
           A3           0.00472  -0.00267  -0.00320   0.01311   0.00024
           A4          -0.00275   0.00188   0.00223  -0.01549  -0.00028
           A5          -0.00267   0.00472  -0.00320   0.01311   0.00024
           A6          -0.00283  -0.00283   0.00413   0.01726   0.00031
           A7           0.00126  -0.00063  -0.00063   0.00000   0.00000
           A8           0.00000  -0.00056   0.00056   0.00000   0.00000
           D1           0.00139   0.00139   0.00043  -0.03621  -0.00066
           D2          -0.00279  -0.00279   0.00606  -0.00559  -0.00010
           D3           0.00311  -0.00589   0.00303  -0.00279  -0.00005
           D4           0.00589  -0.00311  -0.00303   0.00279   0.00005
                          A1        A2        A3        A4        A5
           A1           0.02032
           A2          -0.00957   0.03428
           A3          -0.01558  -0.02426   0.11055
           A4          -0.00957  -0.00327   0.02923   0.03428
           A5          -0.01558   0.02923  -0.05320  -0.02426   0.11055
           A6           0.02979  -0.02988  -0.04503  -0.02988  -0.04503
           A7           0.00232   0.00246  -0.01582  -0.00551   0.00837
           A8          -0.00206   0.00253  -0.00027   0.00018   0.00688
           D1           0.01153   0.01390  -0.01737   0.01390  -0.01737
           D2          -0.00797   0.00857  -0.01048   0.00857  -0.01048
           D3          -0.00399   0.01266   0.00453  -0.00409  -0.01502
           D4           0.00399   0.00409   0.01502  -0.01266  -0.00453
                          A6        A7        A8        D1        D2
           A6           0.12489
           A7           0.00831   0.07291
           A8          -0.00737   0.00000   0.01912
           D1          -0.01096   0.00055  -0.00049   0.04053
           D2           0.01031   0.00102  -0.00091   0.00394   0.01958
           D3           0.00516  -0.00090  -0.00087   0.00197   0.00979
           D4          -0.00516  -0.00192   0.00004  -0.00197  -0.00979
                          D3        D4
           D3           0.01939
           D4           0.00960   0.01939
 ITU=  0
     Eigenvalues ---    0.01842   0.03982   0.04548   0.06523   0.06924
     Eigenvalues ---    0.18405   0.18780   0.25721   0.36070   0.36071
     Eigenvalues ---    0.36324   1.24564
 Angle between quadratic step and forces=  62.21 degrees.
 Linear search not attempted -- first point.
 Iteration  1 RMS(Cart)=  0.00010565 RMS(Int)=  0.00000003
 Iteration  2 RMS(Cart)=  0.00000002 RMS(Int)=  0.00000003
 ClnCor:  largest displacement from symmetrization is 2.37D-08 for atom     4.
 Variable       Old X    -DE/DX   Delta X   Delta X   Delta X     New X
                                 (Linear)    (Quad)   (Total)
    R1        2.06159   0.00000   0.00000  -0.00001  -0.00001   2.06159
    R2        2.06159   0.00000   0.00000  -0.00001  -0.00001   2.06159
    R3        2.06159   0.00000   0.00000  -0.00001  -0.00001   2.06159
    R4        2.75763   0.00006   0.00000   0.00041   0.00041   2.75805
    R5        2.11386  -0.00032   0.00000  -0.00026  -0.00026   2.11360
    A1        1.96756   0.00000   0.00000   0.00017   0.00017   1.96773
    A2        1.96756   0.00001   0.00000   0.00017   0.00017   1.96773
    A3        1.84955  -0.00001   0.00000  -0.00020  -0.00020   1.84935
    A4        1.96756   0.00001   0.00000   0.00017   0.00017   1.96773
    A5        1.84955  -0.00001   0.00000  -0.00020  -0.00020   1.84935
    A6        1.84955  -0.00001   0.00000  -0.00020  -0.00020   1.84935
    A7        3.14159   0.00000   0.00000   0.00000   0.00000   3.14159
    A8        3.14159   0.00000   0.00000   0.00000   0.00000   3.14159
    D1        2.25211   0.00002   0.00000   0.00055   0.00055   2.25265
    D2       -2.09440   0.00000   0.00000   0.00000   0.00000  -2.09440
    D3        2.09440   0.00000   0.00000   0.00000   0.00000   2.09440
    D4       -2.09440   0.00000   0.00000   0.00000   0.00000  -2.09440
         Item               Value     Threshold  Converged?
 Maximum Force            0.000324     0.000450     YES
 RMS     Force            0.000081     0.000300     YES
 Maximum Displacement     0.000240     0.001800     YES
 RMS     Displacement     0.000106     0.001200     YES
 Predicted change in Energy=-6.698634D-08
 Optimization completed.
    -- Stationary point found.
                           ----------------------------
                           !   Optimized Parameters   !
                           ! (Angstroms and Degrees)  !
 --------------------------                            --------------------------
 ! Name  Definition              Value          Derivative Info.                !
 --------------------------------------------------------------------------------
 ! R1    R(1,2)                  1.0909         -DE/DX =    0.0                 !
 ! R2    R(1,3)                  1.0909         -DE/DX =    0.0                 !
 ! R3    R(1,4)                  1.0909         -DE/DX =    0.0                 !
 ! R4    R(1,5)                  1.4593         -DE/DX =    0.0001              !
 ! R5    R(5,6)                  1.1186         -DE/DX =   -0.0003              !
 ! A1    A(2,1,3)              112.7327         -DE/DX =    0.0                 !
 ! A2    A(2,1,4)              112.7327         -DE/DX =    0.0                 !
 ! A3    A(2,1,5)              105.9714         -DE/DX =    0.0                 !
 ! A4    A(3,1,4)              112.7327         -DE/DX =    0.0                 !
 ! A5    A(3,1,5)              105.9714         -DE/DX =    0.0                 !
 ! A6    A(4,1,5)              105.9714         -DE/DX =    0.0                 !
 ! A7    L(1,5,6,2,-1)         180.0            -DE/DX =    0.0                 !
 ! A8    L(1,5,6,2,-2)         180.0            -DE/DX =    0.0                 !
 ! D1    D(2,1,4,3)            129.0362         -DE/DX =    0.0                 !
 ! D2    D(2,1,5,3)           -120.0            -DE/DX =    0.0                 !
 ! D3    D(2,1,5,4)            120.0            -DE/DX =    0.0                 !
 ! D4    D(3,1,5,4)           -120.0            -DE/DX =    0.0                 !
 --------------------------------------------------------------------------------
 GradGradGradGradGradGradGradGradGradGradGradGradGradGradGradGradGradGrad

 1\1\GINC-TC-NODE161\Freq\RMP2-Full\6-311G(d,p)\C1H3N2(1+)\MAXB2\25-Oct
 -2016\0\\#N Geom=AllCheck Guess=TCheck SCRF=Check GenChk RMP2-Full/6-3
 11G(d,p) Freq\\Title Card Required\\1,1\C,0.0130118632,0.0225372208,0.
 0092007927\H,-0.020286015,-0.0351369171,1.0981152523\H,1.0285505784,-0
 .0351375747,-0.3851651427\H,-0.5447051605,0.8731824737,-0.3851646856\N
 ,-0.6748985965,-1.1689578454,-0.4772243512\N,-1.2022150489,-2.08229611
 87,-0.8500926187\\Version=ES64L-G09RevD.01\State=1-A1\HF=-148.2462844\
 MP2=-148.7849341\RMSD=8.978e-10\RMSF=1.223e-04\ZeroPoint=0.0454659\The
 rmal=0.0491741\Dipole=0.3856452,0.6679566,0.2726918\DipoleDeriv=0.1667
 104,0.099826,0.0407538,0.099826,0.2819794,0.0705875,0.0407538,0.070587
 5,0.137893,0.1392697,-0.0513418,0.0217523,-0.0513418,0.0799853,0.03767
 61,0.0257118,0.0445341,0.2090264,0.2161922,0.0248731,-0.0014845,0.0184
 073,0.0799852,-0.0609642,-0.005444,-0.0632502,0.132104,0.0952959,-0.05
 13921,-0.0520543,-0.0449263,0.2008814,-0.0317677,-0.0520543,-0.0363397
 ,0.132104,0.1654432,-0.0907548,-0.0370504,-0.0907548,0.0606487,-0.0641
 732,-0.0370504,-0.0641732,0.1916419,0.2170887,0.0687896,0.0280832,0.06
 87896,0.29652,0.0486415,0.0280832,0.0486415,0.1972308\Polar=17.8387566
 ,5.164066,23.8016985,2.1082182,3.6515386,16.348012\PG=C03V [C3(C1N1N1)
 ,3SGV(H1)]\NImag=0\\0.55748848,-0.10491376,0.43634467,-0.04283081,-0.0
 7418508,0.58777462,-0.04725866,-0.00070028,0.01710592,0.04767307,-0.00
 070028,-0.04806728,0.02962845,0.00642967,0.05509742,0.01143201,0.01980
 097,-0.33974424,-0.00877610,-0.01520081,0.35964064,-0.29827702,0.01843
 526,0.10018066,0.00420389,0.00154433,-0.00155983,0.31946125,0.02770070
 ,-0.04806731,-0.01053647,-0.00041955,0.00021571,0.00178635,-0.01218839
 ,0.05509744,0.10585456,-0.00726064,-0.08872584,0.02901143,-0.00099102,
 -0.00550175,-0.10486801,0.01112896,0.08785244,-0.13059715,0.12451071,-
 0.05921510,0.00072570,-0.00242766,0.00232693,-0.00890693,0.02241134,-0
 .01195830,0.13174381,0.11524527,-0.21574727,0.08149071,-0.00046379,0.0
 0369388,-0.00045768,-0.00058610,0.00369387,-0.00028470,-0.12056709,0.2
 4281498,-0.05921509,0.08804236,-0.08872575,-0.01536396,0.02462913,-0.0
 0550173,0.00573260,-0.01049856,0.00413092,0.06207189,-0.08525381,0.087
 85234,-0.09260550,-0.02598309,-0.01060754,-0.00565206,-0.00342216,-0.0
 0557966,-0.01882162,-0.04008966,-0.01919510,0.00989061,0.00632474,0.00
 959322,0.40781538,-0.02598309,-0.12260815,-0.01837278,-0.00342215,-0.0
 0960360,-0.00966425,-0.01025225,-0.00960357,-0.00000499,-0.02351268,-0
 .03831579,-0.01662594,0.52607657,1.01527547,-0.01060754,-0.01837279,-0
 .08510479,-0.02385127,-0.04131159,-0.01006237,-0.00092350,0.01054414,0
 .00310717,0.00959323,0.00447228,0.00310716,0.21476955,0.37199154,0.255
 94944,0.01124985,-0.01134885,-0.00463314,0.00030806,-0.00142391,0.0021
 5665,0.00234045,0.00258557,0.00115542,-0.00285603,0.00004696,-0.002818
 65,-0.30062680,-0.46290640,-0.18898047,0.28958447,-0.01134884,-0.00185
 465,-0.00802483,-0.00142391,-0.00133613,0.00373542,0.00304715,-0.00133
 614,-0.00258762,-0.00041462,0.00386034,-0.00029318,-0.46290640,-0.8351
 4436,-0.32732357,0.47304662,0.83581094,-0.00463314,-0.00802482,0.01452
 599,0.00187399,0.00324584,0.00116945,0.00143808,-0.00242442,-0.0008629
 4,-0.00281865,0.00003321,-0.00086293,-0.18898047,-0.32732357,-0.166996
 60,0.19312019,0.33449377,0.15302704\\-0.00005335,-0.00009241,-0.000037
 73,0.00000910,0.00001576,-0.00000188,0.00000126,0.00001576,0.00000921,
 0.00001302,0.00000897,0.00000921,0.00018280,0.00031662,0.00012926,-0.0
 0015282,-0.00026470,-0.00010806\\\@


 IT MATTERS NOT HOW DEEP YOU PLOW,
 BUT HOW LONG YOU STAY IN THE FURROW.
 Job cpu time:       0 days  0 hours  1 minutes 34.5 seconds.
 File lengths (MBytes):  RWF=    188 Int=      0 D2E=      0 Chk=      3 Scr=      1
 Normal termination of Gaussian 09 at Tue Oct 25 12:01:11 2016.
