 Entering Gaussian System, Link 0=g09
 Initial command:
 /cluster/software/gaussian/gaussian-09-D.01/g09/l1.exe "/local/scratch/maxb2/Gau-5116.inp" -scrdir="/local/scratch/maxb2/"
 Entering Link 1 = /cluster/software/gaussian/gaussian-09-D.01/g09/l1.exe PID=      5117.
  
 Copyright (c) 1988,1990,1992,1993,1995,1998,2003,2009,2013,
            Gaussian, Inc.  All Rights Reserved.
  
 This is part of the Gaussian(R) 09 program.  It is based on
 the Gaussian(R) 03 system (copyright 2003, Gaussian, Inc.),
 the Gaussian(R) 98 system (copyright 1998, Gaussian, Inc.),
 the Gaussian(R) 94 system (copyright 1995, Gaussian, Inc.),
 the Gaussian 92(TM) system (copyright 1992, Gaussian, Inc.),
 the Gaussian 90(TM) system (copyright 1990, Gaussian, Inc.),
 the Gaussian 88(TM) system (copyright 1988, Gaussian, Inc.),
 the Gaussian 86(TM) system (copyright 1986, Carnegie Mellon
 University), and the Gaussian 82(TM) system (copyright 1983,
 Carnegie Mellon University). Gaussian is a federally registered
 trademark of Gaussian, Inc.
  
 This software contains proprietary and confidential information,
 including trade secrets, belonging to Gaussian, Inc.
  
 This software is provided under written license and may be
 used, copied, transmitted, or stored only in accord with that
 written license.
  
 The following legend is applicable only to US Government
 contracts under FAR:
  
                    RESTRICTED RIGHTS LEGEND
  
 Use, reproduction and disclosure by the US Government is
 subject to restrictions as set forth in subparagraphs (a)
 and (c) of the Commercial Computer Software - Restricted
 Rights clause in FAR 52.227-19.
  
 Gaussian, Inc.
 340 Quinnipiac St., Bldg. 40, Wallingford CT 06492
  
  
 ---------------------------------------------------------------
 Warning -- This program may not be used in any manner that
 competes with the business of Gaussian, Inc. or will provide
 assistance to any competitor of Gaussian, Inc.  The licensee
 of this program is prohibited from giving any competitor of
 Gaussian, Inc. access to this program.  By using this program,
 the user acknowledges that Gaussian, Inc. is engaged in the
 business of creating and licensing software in the field of
 computational chemistry and represents and warrants to the
 licensee that it is not a competitor of Gaussian, Inc. and that
 it will not use this program in any manner prohibited above.
 ---------------------------------------------------------------
  

 Cite this work as:
 Gaussian 09, Revision D.01,
 M. J. Frisch, G. W. Trucks, H. B. Schlegel, G. E. Scuseria, 
 M. A. Robb, J. R. Cheeseman, G. Scalmani, V. Barone, B. Mennucci, 
 G. A. Petersson, H. Nakatsuji, M. Caricato, X. Li, H. P. Hratchian, 
 A. F. Izmaylov, J. Bloino, G. Zheng, J. L. Sonnenberg, M. Hada, 
 M. Ehara, K. Toyota, R. Fukuda, J. Hasegawa, M. Ishida, T. Nakajima, 
 Y. Honda, O. Kitao, H. Nakai, T. Vreven, J. A. Montgomery, Jr., 
 J. E. Peralta, F. Ogliaro, M. Bearpark, J. J. Heyd, E. Brothers, 
 K. N. Kudin, V. N. Staroverov, T. Keith, R. Kobayashi, J. Normand, 
 K. Raghavachari, A. Rendell, J. C. Burant, S. S. Iyengar, J. Tomasi, 
 M. Cossi, N. Rega, J. M. Millam, M. Klene, J. E. Knox, J. B. Cross, 
 V. Bakken, C. Adamo, J. Jaramillo, R. Gomperts, R. E. Stratmann, 
 O. Yazyev, A. J. Austin, R. Cammi, C. Pomelli, J. W. Ochterski, 
 R. L. Martin, K. Morokuma, V. G. Zakrzewski, G. A. Voth, 
 P. Salvador, J. J. Dannenberg, S. Dapprich, A. D. Daniels, 
 O. Farkas, J. B. Foresman, J. V. Ortiz, J. Cioslowski, 
 and D. J. Fox, Gaussian, Inc., Wallingford CT, 2013.
 
 ******************************************
 Gaussian 09:  ES64L-G09RevD.01 24-Apr-2013
                21-Oct-2016 
 ******************************************
 %nprocshared=8
 Will use up to    8 processors via shared memory.
 %mem=4gb
 %chk=H3CN2smd
 %oldchk=H3CN2optmp2.chk
 Copying data from "H3CN2optmp2.chk" to current chk file "H3CN2smd.chk".
 --------------------------------------------------------------------
 # opt freq mp2(full)/6-311g** scrf=(smd,solvent=water) geom=allcheck
 --------------------------------------------------------------------
 1/14=-1,18=20,19=15,29=7,38=1/1,3;
 2/9=110,12=2,40=1/2;
 3/5=4,6=6,7=101,11=9,14=-4,16=1,25=1,30=1,70=32201,71=1,72=1/1,2,3;
 4//1;
 5/5=2,38=5,53=1/2;
 8/6=4,10=90/1;
 9/15=2,16=-3/6;
 10/5=1/2;
 6/7=2,8=2,9=2,10=2/1;
 7/12=2/1,2,3,16;
 1/14=-1,18=20,19=15/3(2);
 2/9=110/2;
 99//99;
 2/9=110/2;
 3/5=4,6=6,7=101,11=9,14=-2,16=1,25=1,30=1,70=32205,71=1,72=1/1,2,3;
 4/5=5,16=3,69=1/1;
 5/5=2,38=5,53=1/2;
 8/6=4,10=90/1;
 9/15=2,16=-3/6;
 10/5=1/2;
 7/12=2/1,2,3,16;
 1/14=-1,18=20,19=15/3(-8);
 2/9=110/2;
 6/7=2,8=2,9=2,10=2/1;
 99//99;
 Structure from the checkpoint file:  "H3CN2smd.chk"
 ----
 ired
 ----
 Charge =  1 Multiplicity = 3
 Redundant internal coordinates found in file.
 C,0,-0.130739728,-0.0010895328,0.0373113207
 H,0,0.1152051405,-0.0231052247,1.1046036889
 H,0,0.8257384815,-0.2855289229,-0.5363538708
 H,0,-0.476116947,0.956336208,-0.3679128552
 N,0,-0.9650970679,-1.0434788257,-0.3210183208
 N,0,-0.6681481615,-1.9983840762,-1.0752405971
 Recover connectivity data from disk.

 GradGradGradGradGradGradGradGradGradGradGradGradGradGradGradGradGradGrad
 Berny optimization.
 Initialization pass.
                           ----------------------------
                           !    Initial Parameters    !
                           ! (Angstroms and Degrees)  !
 --------------------------                            --------------------------
 ! Name  Definition              Value          Derivative Info.                !
 --------------------------------------------------------------------------------
 ! R1    R(1,2)                  1.0955         estimate D2E/DX2                !
 ! R2    R(1,3)                  1.151          estimate D2E/DX2                !
 ! R3    R(1,4)                  1.0955         estimate D2E/DX2                !
 ! R4    R(1,5)                  1.3824         estimate D2E/DX2                !
 ! R5    R(5,6)                  1.2525         estimate D2E/DX2                !
 ! A1    A(2,1,3)              107.1001         estimate D2E/DX2                !
 ! A2    A(2,1,4)              116.6614         estimate D2E/DX2                !
 ! A3    A(2,1,5)              111.8932         estimate D2E/DX2                !
 ! A4    A(3,1,4)              107.0733         estimate D2E/DX2                !
 ! A5    A(3,1,5)              100.7202         estimate D2E/DX2                !
 ! A6    A(4,1,5)              111.89           estimate D2E/DX2                !
 ! A7    L(1,5,6,3,-1)         126.0038         estimate D2E/DX2                !
 ! A8    L(1,5,6,3,-2)         179.9804         estimate D2E/DX2                !
 ! D1    D(2,1,4,3)            119.8946         estimate D2E/DX2                !
 ! D2    D(2,1,5,3)           -113.491          estimate D2E/DX2                !
 ! D3    D(2,1,5,4)            133.0499         estimate D2E/DX2                !
 ! D4    D(3,1,5,4)           -113.4592         estimate D2E/DX2                !
 --------------------------------------------------------------------------------
 Trust Radius=3.00D-01 FncErr=1.00D-07 GrdErr=1.00D-07
 Number of steps in this run=     27 maximum allowed number of steps=    100.
 GradGradGradGradGradGradGradGradGradGradGradGradGradGradGradGradGradGrad

                          Input orientation:                          
 ---------------------------------------------------------------------
 Center     Atomic      Atomic             Coordinates (Angstroms)
 Number     Number       Type             X           Y           Z
 ---------------------------------------------------------------------
      1          6           0       -0.130740   -0.001090    0.037311
      2          1           0        0.115205   -0.023105    1.104604
      3          1           0        0.825738   -0.285529   -0.536354
      4          1           0       -0.476117    0.956336   -0.367913
      5          7           0       -0.965097   -1.043479   -0.321018
      6          7           0       -0.668148   -1.998384   -1.075241
 ---------------------------------------------------------------------
                    Distance matrix (angstroms):
                    1          2          3          4          5
     1  C    0.000000
     2  H    1.095485   0.000000
     3  H    1.151020   1.807337   0.000000
     4  H    1.095516   1.864745   1.807050   0.000000
     5  N    1.382435   2.059275   1.956515   2.059262   0.000000
     6  N    2.348567   3.044190   2.335802   3.044267   1.252547
                    6
     6  N    0.000000
 Stoichiometry    CH3N2(1+,3)
 Framework group  C1[X(CH3N2)]
 Deg. of freedom    12
 Full point group                 C1      NOp   1
 Largest Abelian subgroup         C1      NOp   1
 Largest concise Abelian subgroup C1      NOp   1
                         Standard orientation:                         
 ---------------------------------------------------------------------
 Center     Atomic      Atomic             Coordinates (Angstroms)
 Number     Number       Type             X           Y           Z
 ---------------------------------------------------------------------
      1          6           0       -1.065949   -0.097900   -0.000056
      2          1           0       -1.599258    0.117409   -0.932424
      3          1           0       -0.825590   -1.223544    0.000180
      4          1           0       -1.599358    0.117286    0.932321
      5          7           0        0.208715    0.437227    0.000081
      6          7           0        1.279842   -0.212049   -0.000044
 ---------------------------------------------------------------------
 Rotational constants (GHZ):     75.7216907     11.3774949     10.6196907
 Standard basis: 6-311G(d,p) (5D, 7F)
 There are    75 symmetry adapted cartesian basis functions of A   symmetry.
 There are    72 symmetry adapted basis functions of A   symmetry.
    72 basis functions,   120 primitive gaussians,    75 cartesian basis functions
    12 alpha electrons       10 beta electrons
       nuclear repulsion energy        65.1768196371 Hartrees.
 NAtoms=    6 NActive=    6 NUniq=    6 SFac= 1.00D+00 NAtFMM=   60 NAOKFM=F Big=F
 Integral buffers will be    131072 words long.
 Raffenetti 2 integral format.
 Two-electron integral symmetry is turned on.
 ------------------------------------------------------------------------------
 Polarizable Continuum Model (PCM)
 =================================
 Model                : PCM (using non-symmetric T matrix).
 Atomic radii         : SMD-Coulomb.
 Polarization charges : Total charges.
 Charge compensation  : None.
 Solution method      : On-the-fly selection.
 Cavity type          : VdW (van der Waals Surface) (Alpha=1.000).
 Cavity algorithm     : GePol (No added spheres)
                        Default sphere list used, NSphG=    6.
                        Lebedev-Laikov grids with approx.  5.0 points / Ang**2.
                        Smoothing algorithm: Karplus/York (Gamma=1.0000).
                        Polarization charges: spherical gaussians, with
                                              point-specific exponents (IZeta= 3).
                        Self-potential: point-specific (ISelfS= 7).
                        Self-field    : sphere-specific E.n sum rule (ISelfD= 2).
 1st derivatives      : Analytical E(r).r(x)/FMM algorithm (CHGder, D1EAlg=3).
                        Cavity 1st derivative terms included.
 Solvent              : Water, Eps=  78.355300 Eps(inf)=   1.777849
 ------------------------------------------------------------------------------
 Spheres list:
 ISph  on   Nord     Re0    Alpha      Xe            Ye            Ze
    1   C      1    1.8500  1.000     -1.065949     -0.097900     -0.000056
    2   H      2    1.2000  1.000     -1.599258      0.117409     -0.932424
    3   H      3    1.2000  1.000     -0.825590     -1.223544      0.000180
    4   H      4    1.2000  1.000     -1.599358      0.117286      0.932321
    5   N      5    1.8900  1.000      0.208715      0.437227      0.000081
    6   N      6    1.8900  1.000      1.279842     -0.212049     -0.000044
 ------------------------------------------------------------------------------
 ------------------------------------------------------------------------------
 Atomic radii for non-electrostatic terms: SMD-CDS.
 ------------------------------------------------------------------------------
 Nuclear repulsion after PCM non-electrostatic terms =       65.1757225155 Hartrees.
 One-electron integrals computed using PRISM.
 NBasis=    72 RedAO= T EigKep=  5.46D-03  NBF=    72
 NBsUse=    72 1.00D-06 EigRej= -1.00D+00 NBFU=    72
 ExpMin= 1.03D-01 ExpMax= 6.29D+03 ExpMxC= 9.49D+02 IAcc=1 IRadAn=         1 AccDes= 0.00D+00
 Harris functional with IExCor=  205 and IRadAn=       1 diagonalized for initial guess.
 HarFok:  IExCor=  205 AccDes= 0.00D+00 IRadAn=         1 IDoV= 1 UseB2=F ITyADJ=14
 ICtDFT=  3500011 ScaDFX=  1.000000  1.000000  1.000000  1.000000
 FoFCou: FMM=F IPFlag=           0 FMFlag=      100000 FMFlg1=           0
         NFxFlg=           0 DoJE=T BraDBF=F KetDBF=T FulRan=T
         wScrn=  0.000000 ICntrl=     500 IOpCl=  0 I1Cent=   200000004 NGrid=           0
         NMat0=    1 NMatS0=      1 NMatT0=    0 NMatD0=    1 NMtDS0=    0 NMtDT0=    0
 Petite list used in FoFCou.
 Initial guess <Sx>= 0.0000 <Sy>= 0.0000 <Sz>= 1.0000 <S**2>= 2.0000 S= 1.0000
 Keep R1 and R2 ints in memory in canonical form, NReq=10321087.
 Requested convergence on RMS density matrix=1.00D-08 within 128 cycles.
 Requested convergence on MAX density matrix=1.00D-06.
 Requested convergence on             energy=1.00D-06.
 No special actions if energy rises.
 Inv3:  Mode=1 IEnd=     1228800.
 Iteration    1 A*A^-1 deviation from unit magnitude is 3.55D-15 for    634.
 Iteration    1 A*A^-1 deviation from orthogonality  is 1.86D-15 for    603    418.
 Iteration    1 A^-1*A deviation from unit magnitude is 4.11D-15 for    634.
 Iteration    1 A^-1*A deviation from orthogonality  is 1.93D-15 for    431    325.
 Rare condition: small coef for last iteration:  0.000D+00
 Error on total polarization charges =  0.00980
 SCF Done:  E(UHF) =  -148.191836292     A.U. after   25 cycles
            NFock= 25  Conv=0.55D-08     -V/T= 2.0019
 <Sx>= 0.0000 <Sy>= 0.0000 <Sz>= 1.0000 <S**2>= 2.0147 S= 1.0049
 <L.S>= 0.000000000000E+00
 SMD-CDS (non-electrostatic) energy       (kcal/mol) =      -0.69
 (included in total energy above)
 Annihilation of the first spin contaminant:
 S**2 before annihilation     2.0147,   after     2.0001
 Range of M.O.s used for correlation:     1    72
 NBasis=    72 NAE=    12 NBE=    10 NFC=     0 NFV=     0
 NROrb=     72 NOA=    12 NOB=    10 NVA=    60 NVB=    62
 Fully direct method using O(ONN) memory.
 JobTyp=2 Pass  1:  I=   1 to  12 NPSUse=  8 ParTrn=T ParDer=T DoDerP=T.
 JobTyp=3 Pass  1:  I=   1 to  10 NPSUse=  8 ParTrn=T ParDer=T DoDerP=T.
 Spin components of T(2) and E(2):
     alpha-alpha T2 =       0.1903020965D-01 E2=     -0.6510831765D-01
     alpha-beta  T2 =       0.1091528393D+00 E2=     -0.3735027519D+00
     beta-beta   T2 =       0.1604845587D-01 E2=     -0.4644541242D-01
 (S**2,0)=  0.20147D+01           (S**2,1)=  0.20016D+01
 E(PUHF)=      -0.14819621034D+03        E(PMP2)=      -0.14867933150D+03
 ANorm=    0.1069687573D+01
 E2 =    -0.4850564820D+00 EUMP2 =    -0.14867689277363D+03
          IDoAtm=111111
 NEqPCM:  Using equilibrium solvation (IEInf=0, Eps=  78.3553, EpsInf=   1.7778)
          Differentiating once with respect to electric field.
                with respect to dipole field.
          Differentiating once with respect to nuclear coordinates.
 Keep R1 and R2 ints in memory in canonical form, NReq=9327601.
          There are     1 degrees of freedom in the 1st order CPHF.  IDoFFX=0 NUNeed=     1.
 LinEq1:  Iter=  0 NonCon=     1 RMS=4.99D-03 Max=1.19D-01 NDo=     1
 AX will form     1 AO Fock derivatives at one time.
 LinEq1:  Iter=  1 NonCon=     1 RMS=1.34D-03 Max=1.82D-02 NDo=     1
 LinEq1:  Iter=  2 NonCon=     1 RMS=5.36D-04 Max=8.77D-03 NDo=     1
 LinEq1:  Iter=  3 NonCon=     1 RMS=1.20D-04 Max=1.53D-03 NDo=     1
 LinEq1:  Iter=  4 NonCon=     1 RMS=6.05D-05 Max=1.16D-03 NDo=     1
 LinEq1:  Iter=  5 NonCon=     1 RMS=3.12D-05 Max=7.16D-04 NDo=     1
 LinEq1:  Iter=  6 NonCon=     1 RMS=1.30D-05 Max=1.43D-04 NDo=     1
 LinEq1:  Iter=  7 NonCon=     1 RMS=7.32D-06 Max=9.83D-05 NDo=     1
 LinEq1:  Iter=  8 NonCon=     1 RMS=2.35D-06 Max=2.61D-05 NDo=     1
 LinEq1:  Iter=  9 NonCon=     1 RMS=4.99D-07 Max=6.98D-06 NDo=     1
 LinEq1:  Iter= 10 NonCon=     1 RMS=1.39D-07 Max=2.77D-06 NDo=     1
 LinEq1:  Iter= 11 NonCon=     1 RMS=3.19D-08 Max=3.34D-07 NDo=     1
 LinEq1:  Iter= 12 NonCon=     1 RMS=7.38D-09 Max=9.73D-08 NDo=     1
 LinEq1:  Iter= 13 NonCon=     1 RMS=1.60D-09 Max=1.40D-08 NDo=     1
 LinEq1:  Iter= 14 NonCon=     1 RMS=2.79D-10 Max=2.21D-09 NDo=     1
 LinEq1:  Iter= 15 NonCon=     0 RMS=5.07D-11 Max=7.22D-10 NDo=     1
 Linear equations converged to 1.000D-10 1.000D-09 after    15 iterations.
 End of Minotr F.D. properties file   721 does not exist.
 End of Minotr F.D. properties file   722 does not exist.
 End of Minotr F.D. properties file   788 does not exist.

 **********************************************************************

            Population analysis using the SCF density.

 **********************************************************************

 Orbital symmetries:
 Alpha Orbitals:
       Occupied  (A) (A) (A) (A) (A) (A) (A) (A) (A) (A) (A) (A)
       Virtual   (A) (A) (A) (A) (A) (A) (A) (A) (A) (A) (A) (A)
                 (A) (A) (A) (A) (A) (A) (A) (A) (A) (A) (A) (A)
                 (A) (A) (A) (A) (A) (A) (A) (A) (A) (A) (A) (A)
                 (A) (A) (A) (A) (A) (A) (A) (A) (A) (A) (A) (A)
                 (A) (A) (A) (A) (A) (A) (A) (A) (A) (A) (A) (A)
 Beta  Orbitals:
       Occupied  (A) (A) (A) (A) (A) (A) (A) (A) (A) (A)
       Virtual   (A) (A) (A) (A) (A) (A) (A) (A) (A) (A) (A) (A)
                 (A) (A) (A) (A) (A) (A) (A) (A) (A) (A) (A) (A)
                 (A) (A) (A) (A) (A) (A) (A) (A) (A) (A) (A) (A)
                 (A) (A) (A) (A) (A) (A) (A) (A) (A) (A) (A) (A)
                 (A) (A) (A) (A) (A) (A) (A) (A) (A) (A) (A) (A)
                 (A) (A)
 The electronic state is 3-A.
 Alpha  occ. eigenvalues --  -15.83187 -15.80649 -11.33621  -1.54024  -1.17409
 Alpha  occ. eigenvalues --   -0.93353  -0.82325  -0.74778  -0.72621  -0.61416
 Alpha  occ. eigenvalues --   -0.57961  -0.55561
 Alpha virt. eigenvalues --    0.00123   0.16356   0.20731   0.21965   0.27970
 Alpha virt. eigenvalues --    0.37331   0.44818   0.46103   0.59068   0.64225
 Alpha virt. eigenvalues --    0.67884   0.69809   0.71916   0.72202   0.74482
 Alpha virt. eigenvalues --    0.77144   0.80416   0.82230   0.88418   1.12544
 Alpha virt. eigenvalues --    1.22347   1.22516   1.36297   1.61541   1.65854
 Alpha virt. eigenvalues --    1.67316   1.76740   1.77404   1.80468   1.87547
 Alpha virt. eigenvalues --    1.98047   2.07566   2.08263   2.16544   2.24980
 Alpha virt. eigenvalues --    2.29303   2.48934   2.51298   2.54875   2.66979
 Alpha virt. eigenvalues --    2.70996   2.73560   2.81741   2.89223   3.01529
 Alpha virt. eigenvalues --    3.03928   3.09929   3.25514   3.73614   3.89521
 Alpha virt. eigenvalues --    3.93580   4.00699   4.13289   4.23547   4.28051
 Alpha virt. eigenvalues --    4.64660   5.36268  24.95188  36.45804  36.85057
  Beta  occ. eigenvalues --  -15.80125 -15.77001 -11.33310  -1.42560  -1.10965
  Beta  occ. eigenvalues --   -0.80859  -0.70734  -0.69025  -0.60778  -0.55770
  Beta virt. eigenvalues --   -0.11752   0.04003   0.08578   0.18090   0.22137
  Beta virt. eigenvalues --    0.22948   0.29423   0.39709   0.45516   0.49900
  Beta virt. eigenvalues --    0.63736   0.68689   0.71790   0.73149   0.73545
  Beta virt. eigenvalues --    0.75358   0.78862   0.83644   0.83978   0.86517
  Beta virt. eigenvalues --    0.90053   1.14990   1.23578   1.25662   1.40155
  Beta virt. eigenvalues --    1.62085   1.67437   1.68495   1.77650   1.81230
  Beta virt. eigenvalues --    1.86482   1.90775   2.05478   2.12224   2.15674
  Beta virt. eigenvalues --    2.22792   2.27645   2.32626   2.51743   2.54524
  Beta virt. eigenvalues --    2.59354   2.68529   2.71316   2.77409   2.83447
  Beta virt. eigenvalues --    2.91138   3.03203   3.05495   3.16095   3.28773
  Beta virt. eigenvalues --    3.77174   3.91100   3.97166   4.11523   4.14247
  Beta virt. eigenvalues --    4.24903   4.32597   4.69477   5.38253  24.95405
  Beta virt. eigenvalues --   36.48039  36.87174
          Condensed to atoms (all electrons):
               1          2          3          4          5          6
     1  C    4.811688   0.397527   0.361899   0.397515   0.188340  -0.045857
     2  H    0.397527   0.401719  -0.011802  -0.008961  -0.019816   0.000221
     3  H    0.361899  -0.011802   0.423781  -0.011818  -0.017124   0.002837
     4  H    0.397515  -0.008961  -0.011818   0.401734  -0.019810   0.000222
     5  N    0.188340  -0.019816  -0.017124  -0.019810   6.436711   0.271245
     6  N   -0.045857   0.000221   0.002837   0.000222   0.271245   6.555131
          Atomic-Atomic Spin Densities.
               1          2          3          4          5          6
     1  C    0.053236   0.001854   0.053540   0.001869  -0.040672  -0.014708
     2  H    0.001854   0.003344  -0.003450   0.001273   0.001362   0.000777
     3  H    0.053540  -0.003450   0.142616  -0.003458  -0.027252   0.000140
     4  H    0.001869   0.001273  -0.003458   0.003388   0.001358   0.000777
     5  N   -0.040672   0.001362  -0.027252   0.001358   0.941768  -0.137063
     6  N   -0.014708   0.000777   0.000140   0.000777  -0.137063   1.182952
 Mulliken charges and spin densities:
               1          2
     1  C   -0.111112   0.055119
     2  H    0.241112   0.005160
     3  H    0.252227   0.162136
     4  H    0.241118   0.005208
     5  N    0.160453   0.739501
     6  N    0.216202   1.032875
 Sum of Mulliken charges =   1.00000   2.00000
 Mulliken charges and spin densities with hydrogens summed into heavy atoms:
               1          2
     1  C    0.623345   0.227624
     5  N    0.160453   0.739501
     6  N    0.216202   1.032875
 Electronic spatial extent (au):  <R**2>=            134.5246
 Charge=              1.0000 electrons
 Dipole moment (field-independent basis, Debye):
    X=             -2.1756    Y=             -0.0625    Z=              0.0003  Tot=              2.1765
 Quadrupole moment (field-independent basis, Debye-Ang):
   XX=            -10.8836   YY=            -14.3966   ZZ=            -14.6416
   XY=              1.3934   XZ=              0.0000   YZ=             -0.0006
 Traceless Quadrupole moment (field-independent basis, Debye-Ang):
   XX=              2.4236   YY=             -1.0893   ZZ=             -1.3343
   XY=              1.3934   XZ=              0.0000   YZ=             -0.0006
 Octapole moment (field-independent basis, Debye-Ang**2):
  XXX=             -6.2299  YYY=             -1.4132  ZZZ=              0.0000  XYY=             -0.9929
  XXY=              0.8306  XXZ=              0.0005  XZZ=             -2.5308  YZZ=              0.6072
  YYZ=              0.0007  XYZ=              0.0006
 Hexadecapole moment (field-independent basis, Debye-Ang**3):
 XXXX=           -107.8932 YYYY=            -22.4567 ZZZZ=            -17.5811 XXXY=              2.2782
 XXXZ=             -0.0002 YYYX=              3.1603 YYYZ=             -0.0011 ZZZX=              0.0003
 ZZZY=             -0.0005 XXYY=            -23.6628 XXZZ=            -17.4085 YYZZ=             -7.8427
 XXYZ=             -0.0009 YYXZ=             -0.0002 ZZXY=             -0.6395
 N-N= 6.517572251551D+01 E-N=-4.700556374859D+02  KE= 1.479098006491D+02
                          Isotropic Fermi Contact Couplings
        Atom                 a.u.       MegaHertz       Gauss      10(-4) cm-1
     1  C(13)              0.03137      17.63151       6.29136       5.88124
     2  H(1)               0.01038      23.20601       8.28048       7.74069
     3  H(1)               0.12074     269.84600      96.28776      90.01094
     4  H(1)               0.01043      23.30833       8.31699       7.77482
     5  N(14)              0.29712      48.00007      17.12762      16.01110
     6  N(14)              0.04974       8.03517       2.86715       2.68024
 --------------------------------------------------------
       Center         ----  Spin Dipole Couplings  ----
                      3XX-RR        3YY-RR        3ZZ-RR
 --------------------------------------------------------
     1   Atom       -0.021564      0.231483     -0.209919
     2   Atom        0.007629     -0.022749      0.015119
     3   Atom       -0.008509      0.056437     -0.047928
     4   Atom        0.007640     -0.022762      0.015122
     5   Atom       -0.852215      1.587610     -0.735395
     6   Atom        0.155566      1.329509     -1.485075
 --------------------------------------------------------
                        XY            XZ            YZ
 --------------------------------------------------------
     1   Atom       -0.023558      0.000008      0.000162
     2   Atom        0.001244      0.033333      0.003156
     3   Atom       -0.010800      0.000013     -0.000044
     4   Atom        0.001258     -0.033345     -0.003178
     5   Atom        0.222010      0.000057      0.000512
     6   Atom        1.559409      0.000451      0.000670
 --------------------------------------------------------


 ---------------------------------------------------------------------------------
              Anisotropic Spin Dipole Couplings in Principal Axis System
 ---------------------------------------------------------------------------------

       Atom             a.u.   MegaHertz   Gauss  10(-4) cm-1        Axes

              Baa    -0.2099   -28.169   -10.051    -9.396 -0.0001 -0.0004  1.0000
     1 C(13)  Bbb    -0.0237    -3.185    -1.137    -1.063  0.9958  0.0919  0.0001
              Bcc     0.2337    31.355    11.188    10.459 -0.0919  0.9958  0.0004
 
              Baa    -0.0238   -12.679    -4.524    -4.229  0.4174  0.8042 -0.4231
     2 H(1)   Bbb    -0.0213   -11.366    -4.056    -3.791  0.6192 -0.5925 -0.5153
              Bcc     0.0451    24.045     8.580     8.021  0.6651  0.0469  0.7453
 
              Baa    -0.0479   -25.572    -9.125    -8.530 -0.0002  0.0004  1.0000
     3 H(1)   Bbb    -0.0103    -5.473    -1.953    -1.826  0.9871  0.1599  0.0002
              Bcc     0.0582    31.045    11.078    10.356 -0.1599  0.9871 -0.0004
 
              Baa    -0.0238   -12.687    -4.527    -4.232  0.4161  0.8052  0.4224
     4 H(1)   Bbb    -0.0213   -11.369    -4.057    -3.792  0.6200 -0.5911  0.5160
              Bcc     0.0451    24.056     8.584     8.024 -0.6652 -0.0472  0.7452
 
              Baa    -0.8723   -33.641   -12.004   -11.221  0.9960 -0.0899 -0.0001
     5 N(14)  Bbb    -0.7354   -28.363   -10.120    -9.461  0.0001 -0.0002  1.0000
              Bcc     1.6076    62.003    22.124    20.682  0.0899  0.9960  0.0002
 
              Baa    -1.4851   -57.276   -20.438   -19.105 -0.0001 -0.0002  1.0000
     6 N(14)  Bbb    -0.9237   -35.624   -12.712   -11.883  0.8223 -0.5691  0.0000
              Bcc     2.4088    92.900    33.149    30.988  0.5691  0.8223  0.0002
 

 ---------------------------------------------------------------------------------

 D1PCM: PCM CHGder 1st derivatives, ID1Alg=3 FixD1E=F DoIter=F DoCFld=F I1PDM=2.
 Calling FoFJK, ICntrl=  10002127 FMM=F ISym2X=0 I1Cent= 0 IOpClX= 1 NMat=1 NMatS=1 NMatT=0.
 ***** Axes restored to original set *****
 -------------------------------------------------------------------
 Center     Atomic                   Forces (Hartrees/Bohr)
 Number     Number              X              Y              Z
 -------------------------------------------------------------------
      1        6          -0.019158329   -0.005897339    0.003756532
      2        1           0.001917804   -0.001813037   -0.002112272
      3        1           0.005306606   -0.002153358   -0.003558470
      4        1           0.001984986   -0.001929337   -0.001936199
      5        7           0.011317428    0.003239539   -0.002385557
      6        7          -0.001368494    0.008553531    0.006235966
 -------------------------------------------------------------------
 Cartesian Forces:  Max     0.019158329 RMS     0.006422280

 GradGradGradGradGradGradGradGradGradGradGradGradGradGradGradGradGradGrad
 Berny optimization.
 FormGI is forming the generalized inverse of G from B-inverse, IUseBI=4.
 Internal  Forces:  Max     0.015932472 RMS     0.005098581
 Search for a local minimum.
 Step number   1 out of a maximum of   27
 All quantities printed in internal units (Hartrees-Bohrs-Radians)
 Mixed Optimization -- RFO/linear search
 Second derivative matrix not updated -- first step.
 The second derivative matrix:
                          R1        R2        R3        R4        R5
           R1           0.34186
           R2           0.00000   0.28616
           R3           0.00000   0.00000   0.34183
           R4           0.00000   0.00000   0.00000   0.48660
           R5           0.00000   0.00000   0.00000   0.00000   0.82303
           A1           0.00000   0.00000   0.00000   0.00000   0.00000
           A2           0.00000   0.00000   0.00000   0.00000   0.00000
           A3           0.00000   0.00000   0.00000   0.00000   0.00000
           A4           0.00000   0.00000   0.00000   0.00000   0.00000
           A5           0.00000   0.00000   0.00000   0.00000   0.00000
           A6           0.00000   0.00000   0.00000   0.00000   0.00000
           A7           0.00000   0.00000   0.00000   0.00000   0.00000
           A8           0.00000   0.00000   0.00000   0.00000   0.00000
           D1           0.00000   0.00000   0.00000   0.00000   0.00000
           D2           0.00000   0.00000   0.00000   0.00000   0.00000
           D3           0.00000   0.00000   0.00000   0.00000   0.00000
           D4           0.00000   0.00000   0.00000   0.00000   0.00000
                          A1        A2        A3        A4        A5
           A1           0.16000
           A2           0.00000   0.16000
           A3           0.00000   0.00000   0.16000
           A4           0.00000   0.00000   0.00000   0.16000
           A5           0.00000   0.00000   0.00000   0.00000   0.16000
           A6           0.00000   0.00000   0.00000   0.00000   0.00000
           A7           0.00000   0.00000   0.00000   0.00000   0.00000
           A8           0.00000   0.00000   0.00000   0.00000   0.00000
           D1           0.00000   0.00000   0.00000   0.00000   0.00000
           D2           0.00000   0.00000   0.00000   0.00000   0.00000
           D3           0.00000   0.00000   0.00000   0.00000   0.00000
           D4           0.00000   0.00000   0.00000   0.00000   0.00000
                          A6        A7        A8        D1        D2
           A6           0.16000
           A7           0.00000   0.03245
           A8           0.00000   0.00000   0.03245
           D1           0.00000   0.00000   0.00000   0.00230
           D2           0.00000   0.00000   0.00000   0.00000   0.01924
           D3           0.00000   0.00000   0.00000   0.00000   0.00000
           D4           0.00000   0.00000   0.00000   0.00000   0.00000
                          D3        D4
           D3           0.01924
           D4           0.00000   0.01924
 ITU=  0
     Eigenvalues ---    0.03245   0.03245   0.05119   0.07156   0.09420
     Eigenvalues ---    0.16000   0.16000   0.28616   0.34183   0.34186
     Eigenvalues ---    0.48660   0.82303
 RFO step:  Lambda=-1.38952328D-03 EMin= 3.24532568D-02
 Linear search not attempted -- first point.
 Iteration  1 RMS(Cart)=  0.05149495 RMS(Int)=  0.00192107
 Iteration  2 RMS(Cart)=  0.00167792 RMS(Int)=  0.00014443
 Iteration  3 RMS(Cart)=  0.00000028 RMS(Int)=  0.00014443
 Variable       Old X    -DE/DX   Delta X   Delta X   Delta X     New X
                                 (Linear)    (Quad)   (Total)
    R1        2.07017  -0.00159   0.00000  -0.00462  -0.00462   2.06554
    R2        2.17511   0.00669   0.00000   0.02325   0.02325   2.19836
    R3        2.07023  -0.00159   0.00000  -0.00464  -0.00464   2.06559
    R4        2.61242  -0.01593   0.00000  -0.03265  -0.03265   2.57978
    R5        2.36697  -0.01054   0.00000  -0.01278  -0.01278   2.35419
    A1        1.86925  -0.00051   0.00000  -0.01263  -0.01251   1.85674
    A2        2.03613   0.00152   0.00000   0.02170   0.02144   2.05757
    A3        1.95290   0.00030   0.00000   0.00684   0.00652   1.95942
    A4        1.86878  -0.00052   0.00000  -0.01269  -0.01263   1.85615
    A5        1.75790  -0.00170   0.00000  -0.01901  -0.01913   1.73877
    A6        1.95285   0.00031   0.00000   0.00686   0.00656   1.95941
    A7        2.19918  -0.00321   0.00000  -0.09480  -0.09480   2.10438
    A8        3.14125   0.00000   0.00000   0.00004   0.00004   3.14129
    D1        2.09256  -0.00007   0.00000  -0.01193  -0.01215   2.08041
    D2       -1.98079   0.00135   0.00000   0.02172   0.02174  -1.95905
    D3        2.32216   0.00271   0.00000   0.04350   0.04360   2.36576
    D4       -1.98024   0.00136   0.00000   0.02178   0.02186  -1.95838
         Item               Value     Threshold  Converged?
 Maximum Force            0.015932     0.000450     NO 
 RMS     Force            0.005099     0.000300     NO 
 Maximum Displacement     0.118248     0.001800     NO 
 RMS     Displacement     0.052102     0.001200     NO 
 Predicted change in Energy=-7.065712D-04
 GradGradGradGradGradGradGradGradGradGradGradGradGradGradGradGradGradGrad

                          Input orientation:                          
 ---------------------------------------------------------------------
 Center     Atomic      Atomic             Coordinates (Angstroms)
 Number     Number       Type             X           Y           Z
 ---------------------------------------------------------------------
      1          6           0       -0.151746   -0.009032    0.040481
      2          1           0        0.123361   -0.035767    1.097994
      3          1           0        0.796086   -0.328913   -0.553332
      4          1           0       -0.470451    0.947864   -0.380903
      5          7           0       -0.990834   -1.030060   -0.301704
      6          7           0       -0.605574   -1.939342   -1.061147
 ---------------------------------------------------------------------
                    Distance matrix (angstroms):
                    1          2          3          4          5
     1  C    0.000000
     2  H    1.093039   0.000000
     3  H    1.163325   1.807034   0.000000
     4  H    1.093063   1.872773   1.806657   0.000000
     5  N    1.365158   2.046755   1.935977   2.046767   0.000000
     6  N    2.268400   2.969316   2.194541   2.969335   1.245782
                    6
     6  N    0.000000
 Stoichiometry    CH3N2(1+,3)
 Framework group  C1[X(CH3N2)]
 Deg. of freedom    12
 Full point group                 C1      NOp   1
 Largest Abelian subgroup         C1      NOp   1
 Largest concise Abelian subgroup C1      NOp   1
                         Standard orientation:                         
 ---------------------------------------------------------------------
 Center     Atomic      Atomic             Coordinates (Angstroms)
 Number     Number       Type             X           Y           Z
 ---------------------------------------------------------------------
      1          6           0       -1.032563   -0.102936   -0.000061
      2          1           0       -1.569605    0.069063   -0.936403
      3          1           0       -0.724165   -1.224638    0.000050
      4          1           0       -1.569645    0.068605    0.936370
      5          7           0        0.204719    0.473945    0.000108
      6          7           0        1.232251   -0.230433   -0.000059
 ---------------------------------------------------------------------
 Rotational constants (GHZ):     69.6065755     12.1542210     11.1547135
 Standard basis: 6-311G(d,p) (5D, 7F)
 There are    75 symmetry adapted cartesian basis functions of A   symmetry.
 There are    72 symmetry adapted basis functions of A   symmetry.
    72 basis functions,   120 primitive gaussians,    75 cartesian basis functions
    12 alpha electrons       10 beta electrons
       nuclear repulsion energy        66.0154023461 Hartrees.
 NAtoms=    6 NActive=    6 NUniq=    6 SFac= 1.00D+00 NAtFMM=   60 NAOKFM=F Big=F
 Integral buffers will be    131072 words long.
 Raffenetti 2 integral format.
 Two-electron integral symmetry is turned on.
 ------------------------------------------------------------------------------
 Polarizable Continuum Model (PCM)
 =================================
 Model                : PCM (using non-symmetric T matrix).
 Atomic radii         : SMD-Coulomb.
 Polarization charges : Total charges.
 Charge compensation  : None.
 Solution method      : On-the-fly selection.
 Cavity type          : VdW (van der Waals Surface) (Alpha=1.000).
 Cavity algorithm     : GePol (No added spheres)
                        Default sphere list used, NSphG=    6.
                        Lebedev-Laikov grids with approx.  5.0 points / Ang**2.
                        Smoothing algorithm: Karplus/York (Gamma=1.0000).
                        Polarization charges: spherical gaussians, with
                                              point-specific exponents (IZeta= 3).
                        Self-potential: point-specific (ISelfS= 7).
                        Self-field    : sphere-specific E.n sum rule (ISelfD= 2).
 1st derivatives      : Analytical E(r).r(x)/FMM algorithm (CHGder, D1EAlg=3).
                        Cavity 1st derivative terms included.
 Solvent              : Water, Eps=  78.355300 Eps(inf)=   1.777849
 ------------------------------------------------------------------------------
 Spheres list:
 ISph  on   Nord     Re0    Alpha      Xe            Ye            Ze
    1   C      1    1.8500  1.000     -1.032563     -0.102936     -0.000061
    2   H      2    1.2000  1.000     -1.569605      0.069063     -0.936403
    3   H      3    1.2000  1.000     -0.724165     -1.224638      0.000050
    4   H      4    1.2000  1.000     -1.569645      0.068605      0.936370
    5   N      5    1.8900  1.000      0.204719      0.473945      0.000108
    6   N      6    1.8900  1.000      1.232251     -0.230433     -0.000059
 ------------------------------------------------------------------------------
 ------------------------------------------------------------------------------
 Atomic radii for non-electrostatic terms: SMD-CDS.
 ------------------------------------------------------------------------------
 Nuclear repulsion after PCM non-electrostatic terms =       66.0141393396 Hartrees.
 One-electron integrals computed using PRISM.
 NBasis=    72 RedAO= T EigKep=  5.16D-03  NBF=    72
 NBsUse=    72 1.00D-06 EigRej= -1.00D+00 NBFU=    72
 Initial guess from the checkpoint file:  "H3CN2smd.chk"
 B after Tr=     0.000000    0.000000    0.000000
         Rot=    0.999996   -0.000054   -0.000003   -0.002888 Ang=  -0.33 deg.
 Initial guess <Sx>= 0.0000 <Sy>= 0.0000 <Sz>= 1.0000 <S**2>= 2.0145 S= 1.0048
 ExpMin= 1.03D-01 ExpMax= 6.29D+03 ExpMxC= 9.49D+02 IAcc=1 IRadAn=         1 AccDes= 0.00D+00
 Harris functional with IExCor=  205 and IRadAn=       1 diagonalized for initial guess.
 HarFok:  IExCor=  205 AccDes= 0.00D+00 IRadAn=         1 IDoV= 1 UseB2=F ITyADJ=14
 ICtDFT=  3500011 ScaDFX=  1.000000  1.000000  1.000000  1.000000
 FoFCou: FMM=F IPFlag=           0 FMFlag=      100000 FMFlg1=           0
         NFxFlg=           0 DoJE=T BraDBF=F KetDBF=T FulRan=T
         wScrn=  0.000000 ICntrl=     500 IOpCl=  0 I1Cent=   200000004 NGrid=           0
         NMat0=    1 NMatS0=      1 NMatT0=    0 NMatD0=    1 NMtDS0=    0 NMtDT0=    0
 Petite list used in FoFCou.
 Keep R1 and R2 ints in memory in canonical form, NReq=10311175.
 Requested convergence on RMS density matrix=1.00D-08 within 128 cycles.
 Requested convergence on MAX density matrix=1.00D-06.
 Requested convergence on             energy=1.00D-06.
 No special actions if energy rises.
 Inv3:  Mode=1 IEnd=     1202067.
 Iteration    1 A*A^-1 deviation from unit magnitude is 2.55D-15 for    160.
 Iteration    1 A*A^-1 deviation from orthogonality  is 3.33D-15 for    167     27.
 Iteration    1 A^-1*A deviation from unit magnitude is 2.78D-15 for     76.
 Iteration    1 A^-1*A deviation from orthogonality  is 1.63D-14 for    258    161.
 Error on total polarization charges =  0.00945
 SCF Done:  E(UHF) =  -148.188196228     A.U. after   19 cycles
            NFock= 19  Conv=0.97D-08     -V/T= 2.0015
 <Sx>= 0.0000 <Sy>= 0.0000 <Sz>= 1.0000 <S**2>= 2.0161 S= 1.0054
 <L.S>= 0.000000000000E+00
 SMD-CDS (non-electrostatic) energy       (kcal/mol) =      -0.79
 (included in total energy above)
 Annihilation of the first spin contaminant:
 S**2 before annihilation     2.0161,   after     2.0001
 Range of M.O.s used for correlation:     1    72
 NBasis=    72 NAE=    12 NBE=    10 NFC=     0 NFV=     0
 NROrb=     72 NOA=    12 NOB=    10 NVA=    60 NVB=    62
 Fully direct method using O(ONN) memory.
 JobTyp=2 Pass  1:  I=   1 to  12 NPSUse=  8 ParTrn=T ParDer=T DoDerP=T.
 JobTyp=3 Pass  1:  I=   1 to  10 NPSUse=  8 ParTrn=T ParDer=T DoDerP=T.
 Spin components of T(2) and E(2):
     alpha-alpha T2 =       0.1891335634D-01 E2=     -0.6509768010D-01
     alpha-beta  T2 =       0.1098452584D+00 E2=     -0.3757120672D+00
     beta-beta   T2 =       0.1696023330D-01 E2=     -0.4840241564D-01
 (S**2,0)=  0.20161D+01           (S**2,1)=  0.20016D+01
 E(PUHF)=      -0.14819291136D+03        E(PMP2)=      -0.14868001567D+03
 ANorm=    0.1070382571D+01
 E2 =    -0.4892121630D+00 EUMP2 =    -0.14867740839118D+03
          IDoAtm=111111
 NEqPCM:  Using equilibrium solvation (IEInf=0, Eps=  78.3553, EpsInf=   1.7778)
          Differentiating once with respect to electric field.
                with respect to dipole field.
          Differentiating once with respect to nuclear coordinates.
 Keep R1 and R2 ints in memory in canonical form, NReq=9308358.
          There are     1 degrees of freedom in the 1st order CPHF.  IDoFFX=0 NUNeed=     1.
 LinEq1:  Iter=  0 NonCon=     1 RMS=4.98D-03 Max=1.15D-01 NDo=     1
 AX will form     1 AO Fock derivatives at one time.
 LinEq1:  Iter=  1 NonCon=     1 RMS=1.42D-03 Max=1.98D-02 NDo=     1
 LinEq1:  Iter=  2 NonCon=     1 RMS=6.13D-04 Max=1.10D-02 NDo=     1
 LinEq1:  Iter=  3 NonCon=     1 RMS=1.53D-04 Max=2.38D-03 NDo=     1
 LinEq1:  Iter=  4 NonCon=     1 RMS=8.02D-05 Max=1.36D-03 NDo=     1
 LinEq1:  Iter=  5 NonCon=     1 RMS=3.81D-05 Max=8.38D-04 NDo=     1
 LinEq1:  Iter=  6 NonCon=     1 RMS=1.43D-05 Max=1.66D-04 NDo=     1
 LinEq1:  Iter=  7 NonCon=     1 RMS=8.56D-06 Max=1.27D-04 NDo=     1
 LinEq1:  Iter=  8 NonCon=     1 RMS=3.13D-06 Max=4.83D-05 NDo=     1
 LinEq1:  Iter=  9 NonCon=     1 RMS=8.05D-07 Max=1.16D-05 NDo=     1
 LinEq1:  Iter= 10 NonCon=     1 RMS=2.27D-07 Max=2.41D-06 NDo=     1
 LinEq1:  Iter= 11 NonCon=     1 RMS=4.43D-08 Max=4.97D-07 NDo=     1
 LinEq1:  Iter= 12 NonCon=     1 RMS=9.61D-09 Max=1.27D-07 NDo=     1
 LinEq1:  Iter= 13 NonCon=     1 RMS=2.01D-09 Max=1.56D-08 NDo=     1
 LinEq1:  Iter= 14 NonCon=     1 RMS=3.41D-10 Max=2.56D-09 NDo=     1
 LinEq1:  Iter= 15 NonCon=     0 RMS=5.73D-11 Max=5.56D-10 NDo=     1
 Linear equations converged to 1.000D-10 1.000D-09 after    15 iterations.
 End of Minotr F.D. properties file   721 does not exist.
 End of Minotr F.D. properties file   722 does not exist.
 End of Minotr F.D. properties file   788 does not exist.
 D1PCM: PCM CHGder 1st derivatives, ID1Alg=3 FixD1E=F DoIter=F DoCFld=F I1PDM=2.
 Calling FoFJK, ICntrl=  10002127 FMM=F ISym2X=0 I1Cent= 0 IOpClX= 1 NMat=1 NMatS=1 NMatT=0.
 ***** Axes restored to original set *****
 -------------------------------------------------------------------
 Center     Atomic                   Forces (Hartrees/Bohr)
 Number     Number              X              Y              Z
 -------------------------------------------------------------------
      1        6          -0.029454037    0.004097707    0.014561744
      2        1           0.005617414   -0.000889135   -0.000627471
      3        1           0.011673294   -0.002599767   -0.006419567
      4        1           0.004499312    0.000954566   -0.003394679
      5        7           0.016468627   -0.006941337   -0.011233327
      6        7          -0.008804609    0.005377966    0.007113301
 -------------------------------------------------------------------
 Cartesian Forces:  Max     0.029454037 RMS     0.010404748

 GradGradGradGradGradGradGradGradGradGradGradGradGradGradGradGradGradGrad
 Berny optimization.
 Using GEDIIS/GDIIS optimizer.
 FormGI is forming the generalized inverse of G from B-inverse, IUseBI=4.
 Internal  Forces:  Max     0.014063496 RMS     0.005762471
 Search for a local minimum.
 Step number   2 out of a maximum of   27
 All quantities printed in internal units (Hartrees-Bohrs-Radians)
 Mixed Optimization -- RFO/linear search
 Update second derivatives using D2CorX and points    1    2
 DE= -5.16D-04 DEPred=-7.07D-04 R= 7.30D-01
 TightC=F SS=  1.41D+00  RLast= 1.23D-01 DXNew= 5.0454D-01 3.6775D-01
 Trust test= 7.30D-01 RLast= 1.23D-01 DXMaxT set to 3.68D-01
 The second derivative matrix:
                          R1        R2        R3        R4        R5
           R1           0.34334
           R2           0.01699   0.27989
           R3           0.00148   0.01704   0.34331
           R4          -0.00007   0.12891  -0.00006   0.40332
           R5          -0.01273   0.04969  -0.01277  -0.12549   0.74206
           A1          -0.00348   0.00646  -0.00350  -0.02977  -0.01522
           A2           0.00200  -0.02225   0.00201   0.02900   0.02676
           A3           0.00343   0.00118   0.00344   0.02446   0.00766
           A4          -0.00462   0.00343  -0.00463  -0.03616  -0.01518
           A5          -0.00346   0.01513  -0.00347  -0.03516  -0.02359
           A6           0.00382   0.00223   0.00384   0.02668   0.00765
           A7           0.02003   0.08138   0.02011   0.09505  -0.02769
           A8           0.00000  -0.00001   0.00000   0.00000   0.00001
           D1          -0.00458  -0.01267  -0.00460  -0.02556   0.00055
           D2           0.00098  -0.00064   0.00098   0.00761   0.00314
           D3           0.00309   0.00188   0.00310   0.02151   0.00610
           D4           0.00211   0.00252   0.00212   0.01390   0.00297
                          A1        A2        A3        A4        A5
           A1           0.15748
           A2           0.00572   0.15255
           A3           0.00074  -0.00394   0.16070
           A4          -0.00215   0.00644   0.00001   0.15859
           A5          -0.00451   0.00764   0.00239  -0.00458   0.15314
           A6           0.00061  -0.00419   0.00096  -0.00025   0.00241
           A7          -0.01286  -0.00633   0.01824  -0.02085  -0.00633
           A8           0.00000   0.00000   0.00000   0.00000   0.00000
           D1           0.00157   0.00278  -0.00304   0.00310  -0.00017
           D2           0.00044  -0.00135   0.00001   0.00028   0.00095
           D3           0.00048  -0.00337   0.00079  -0.00022   0.00193
           D4           0.00004  -0.00202   0.00077  -0.00050   0.00098
                          A6        A7        A8        D1        D2
           A6           0.16126
           A7           0.02102   0.19415
           A8           0.00000  -0.00001   0.03245
           D1          -0.00358  -0.03259   0.00000   0.00857
           D2           0.00007   0.00448   0.00000  -0.00067   0.01919
           D3           0.00103   0.01704   0.00000  -0.00290   0.00006
           D4           0.00096   0.01255   0.00000  -0.00223   0.00011
                          D3        D4
           D3           0.02009
           D4           0.00078   0.01991
 ITU=  1  0
 Use linear search instead of GDIIS.
     Eigenvalues ---    0.02176   0.03245   0.06775   0.08935   0.14539
     Eigenvalues ---    0.15987   0.16873   0.19425   0.34185   0.34780
     Eigenvalues ---    0.51970   0.79044
 RFO step:  Lambda=-4.32535598D-03 EMin= 2.17558978D-02
 Quartic linear search produced a step of -0.20858.
 Iteration  1 RMS(Cart)=  0.05082754 RMS(Int)=  0.00395499
 Iteration  2 RMS(Cart)=  0.00314993 RMS(Int)=  0.00280782
 Iteration  3 RMS(Cart)=  0.00000572 RMS(Int)=  0.00280782
 Iteration  4 RMS(Cart)=  0.00000002 RMS(Int)=  0.00280782
 Variable       Old X    -DE/DX   Delta X   Delta X   Delta X     New X
                                 (Linear)    (Quad)   (Total)
    R1        2.06554   0.00083   0.00096  -0.01341  -0.01245   2.05310
    R2        2.19836   0.01349  -0.00485   0.10997   0.10512   2.30348
    R3        2.06559   0.00083   0.00097  -0.01345  -0.01248   2.05311
    R4        2.57978  -0.00253   0.00681  -0.11122  -0.10441   2.47537
    R5        2.35419  -0.01095   0.00267  -0.05187  -0.04921   2.30498
    A1        1.85674  -0.00136   0.00261  -0.06380  -0.05891   1.79783
    A2        2.05757   0.00008  -0.00447   0.07681   0.06642   2.12398
    A3        1.95942   0.00193  -0.00136   0.03956   0.03197   1.99139
    A4        1.85615  -0.00219   0.00263  -0.06536  -0.06109   1.79506
    A5        1.73877  -0.00164   0.00399  -0.07206  -0.06891   1.66987
    A6        1.95941   0.00222  -0.00137   0.03975   0.03233   1.99174
    A7        2.10438   0.01406   0.01977  -0.00139   0.01838   2.12276
    A8        3.14129   0.00000  -0.00001   0.00012   0.00011   3.14140
    D1        2.08041  -0.00340   0.00253  -0.08449  -0.08476   1.99565
    D2       -1.95905   0.00171  -0.00453   0.09549   0.09167  -1.86738
    D3        2.36576   0.00426  -0.00909   0.19266   0.18570   2.55146
    D4       -1.95838   0.00255  -0.00456   0.09718   0.09403  -1.86435
         Item               Value     Threshold  Converged?
 Maximum Force            0.014063     0.000450     NO 
 RMS     Force            0.005762     0.000300     NO 
 Maximum Displacement     0.103169     0.001800     NO 
 RMS     Displacement     0.052496     0.001200     NO 
 Predicted change in Energy=-2.473468D-03
 GradGradGradGradGradGradGradGradGradGradGradGradGradGradGradGradGradGrad

                          Input orientation:                          
 ---------------------------------------------------------------------
 Center     Atomic      Atomic             Coordinates (Angstroms)
 Number     Number       Type             X           Y           Z
 ---------------------------------------------------------------------
      1          6           0       -0.206341   -0.008205    0.063246
      2          1           0        0.137200   -0.059260    1.092689
      3          1           0        0.770726   -0.368561   -0.570253
      4          1           0       -0.463660    0.937086   -0.406441
      5          7           0       -0.970279   -1.009820   -0.295954
      6          7           0       -0.566804   -1.886490   -1.041897
 ---------------------------------------------------------------------
                    Distance matrix (angstroms):
                    1          2          3          4          5
     1  C    0.000000
     2  H    1.086453   0.000000
     3  H    1.218950   1.806211   0.000000
     4  H    1.086459   1.897664   1.804233   0.000000
     5  N    1.309908   2.014548   1.875514   2.014774   0.000000
     6  N    2.208897   2.896696   2.077389   2.896035   1.219743
                    6
     6  N    0.000000
 Stoichiometry    CH3N2(1+,3)
 Framework group  C1[X(CH3N2)]
 Deg. of freedom    12
 Full point group                 C1      NOp   1
 Largest Abelian subgroup         C1      NOp   1
 Largest concise Abelian subgroup C1      NOp   1
                         Standard orientation:                         
 ---------------------------------------------------------------------
 Center     Atomic      Atomic             Coordinates (Angstroms)
 Number     Number       Type             X           Y           Z
 ---------------------------------------------------------------------
      1          6           0       -1.005471   -0.078779   -0.000189
      2          1           0       -1.529096    0.003218   -0.948595
      3          1           0       -0.614017   -1.233161   -0.001812
      4          1           0       -1.528417   -0.002320    0.949061
      5          7           0        0.187363    0.462521    0.000728
      6          7           0        1.198974   -0.218959   -0.000374
 ---------------------------------------------------------------------
 Rotational constants (GHZ):     71.8752070     12.8359902     11.8150775
 Standard basis: 6-311G(d,p) (5D, 7F)
 There are    75 symmetry adapted cartesian basis functions of A   symmetry.
 There are    72 symmetry adapted basis functions of A   symmetry.
    72 basis functions,   120 primitive gaussians,    75 cartesian basis functions
    12 alpha electrons       10 beta electrons
       nuclear repulsion energy        67.5952849196 Hartrees.
 NAtoms=    6 NActive=    6 NUniq=    6 SFac= 1.00D+00 NAtFMM=   60 NAOKFM=F Big=F
 Integral buffers will be    131072 words long.
 Raffenetti 2 integral format.
 Two-electron integral symmetry is turned on.
 ------------------------------------------------------------------------------
 Polarizable Continuum Model (PCM)
 =================================
 Model                : PCM (using non-symmetric T matrix).
 Atomic radii         : SMD-Coulomb.
 Polarization charges : Total charges.
 Charge compensation  : None.
 Solution method      : On-the-fly selection.
 Cavity type          : VdW (van der Waals Surface) (Alpha=1.000).
 Cavity algorithm     : GePol (No added spheres)
                        Default sphere list used, NSphG=    6.
                        Lebedev-Laikov grids with approx.  5.0 points / Ang**2.
                        Smoothing algorithm: Karplus/York (Gamma=1.0000).
                        Polarization charges: spherical gaussians, with
                                              point-specific exponents (IZeta= 3).
                        Self-potential: point-specific (ISelfS= 7).
                        Self-field    : sphere-specific E.n sum rule (ISelfD= 2).
 1st derivatives      : Analytical E(r).r(x)/FMM algorithm (CHGder, D1EAlg=3).
                        Cavity 1st derivative terms included.
 Solvent              : Water, Eps=  78.355300 Eps(inf)=   1.777849
 ------------------------------------------------------------------------------
 Spheres list:
 ISph  on   Nord     Re0    Alpha      Xe            Ye            Ze
    1   C      1    1.8500  1.000     -1.005471     -0.078779     -0.000189
    2   H      2    1.2000  1.000     -1.529096      0.003218     -0.948595
    3   H      3    1.2000  1.000     -0.614017     -1.233161     -0.001812
    4   H      4    1.2000  1.000     -1.528417     -0.002320      0.949061
    5   N      5    1.8900  1.000      0.187363      0.462521      0.000728
    6   N      6    1.8900  1.000      1.198974     -0.218959     -0.000374
 ------------------------------------------------------------------------------
 ------------------------------------------------------------------------------
 Atomic radii for non-electrostatic terms: SMD-CDS.
 ------------------------------------------------------------------------------
 Nuclear repulsion after PCM non-electrostatic terms =       67.5941487765 Hartrees.
 One-electron integrals computed using PRISM.
 NBasis=    72 RedAO= T EigKep=  4.45D-03  NBF=    72
 NBsUse=    72 1.00D-06 EigRej= -1.00D+00 NBFU=    72
 Initial guess from the checkpoint file:  "H3CN2smd.chk"
 B after Tr=     0.000000    0.000000    0.000000
         Rot=    0.999982   -0.000931   -0.000024   -0.005947 Ang=  -0.69 deg.
 Initial guess <Sx>= 0.0000 <Sy>= 0.0000 <Sz>= 1.0000 <S**2>= 2.0159 S= 1.0053
 ExpMin= 1.03D-01 ExpMax= 6.29D+03 ExpMxC= 9.49D+02 IAcc=1 IRadAn=         1 AccDes= 0.00D+00
 Harris functional with IExCor=  205 and IRadAn=       1 diagonalized for initial guess.
 HarFok:  IExCor=  205 AccDes= 0.00D+00 IRadAn=         1 IDoV= 1 UseB2=F ITyADJ=14
 ICtDFT=  3500011 ScaDFX=  1.000000  1.000000  1.000000  1.000000
 FoFCou: FMM=F IPFlag=           0 FMFlag=      100000 FMFlg1=           0
         NFxFlg=           0 DoJE=T BraDBF=F KetDBF=T FulRan=T
         wScrn=  0.000000 ICntrl=     500 IOpCl=  0 I1Cent=   200000004 NGrid=           0
         NMat0=    1 NMatS0=      1 NMatT0=    0 NMatD0=    1 NMtDS0=    0 NMtDT0=    0
 Petite list used in FoFCou.
 Keep R1 and R2 ints in memory in canonical form, NReq=10309983.
 Requested convergence on RMS density matrix=1.00D-08 within 128 cycles.
 Requested convergence on MAX density matrix=1.00D-06.
 Requested convergence on             energy=1.00D-06.
 No special actions if energy rises.
 Inv3:  Mode=1 IEnd=     1198272.
 Iteration    1 A*A^-1 deviation from unit magnitude is 3.00D-15 for    627.
 Iteration    1 A*A^-1 deviation from orthogonality  is 3.64D-15 for    167     28.
 Iteration    1 A^-1*A deviation from unit magnitude is 3.11D-15 for    627.
 Iteration    1 A^-1*A deviation from orthogonality  is 1.55D-12 for    174    166.
 Rare condition: small coef for last iteration:  0.000D+00
 Rare condition: small coef for last iteration:  0.000D+00
 Rare condition: small coef for last iteration:  0.000D+00
 Rare condition: small coef for last iteration:  0.000D+00
 Error on total polarization charges =  0.00891
 SCF Done:  E(UHF) =  -148.182792855     A.U. after   28 cycles
            NFock= 28  Conv=0.19D-08     -V/T= 2.0003
 <Sx>= 0.0000 <Sy>= 0.0000 <Sz>= 1.0000 <S**2>= 2.0366 S= 1.0121
 <L.S>= 0.000000000000E+00
 SMD-CDS (non-electrostatic) energy       (kcal/mol) =      -0.71
 (included in total energy above)
 Annihilation of the first spin contaminant:
 S**2 before annihilation     2.0366,   after     2.0007
 Range of M.O.s used for correlation:     1    72
 NBasis=    72 NAE=    12 NBE=    10 NFC=     0 NFV=     0
 NROrb=     72 NOA=    12 NOB=    10 NVA=    60 NVB=    62
 Fully direct method using O(ONN) memory.
 JobTyp=2 Pass  1:  I=   1 to  12 NPSUse=  8 ParTrn=T ParDer=T DoDerP=T.
 JobTyp=3 Pass  1:  I=   1 to  10 NPSUse=  8 ParTrn=T ParDer=T DoDerP=T.
 Spin components of T(2) and E(2):
     alpha-alpha T2 =       0.1833338994D-01 E2=     -0.6444723911D-01
     alpha-beta  T2 =       0.1086588822D+00 E2=     -0.3771438272D+00
     beta-beta   T2 =       0.1855895745D-01 E2=     -0.5254824926D-01
 (S**2,0)=  0.20366D+01           (S**2,1)=  0.20155D+01
 E(PUHF)=      -0.14818890912D+03        E(PMP2)=      -0.14868130605D+03
 ANorm=    0.1070304270D+01
 E2 =    -0.4941393156D+00 EUMP2 =    -0.14867693217025D+03
          IDoAtm=111111
 NEqPCM:  Using equilibrium solvation (IEInf=0, Eps=  78.3553, EpsInf=   1.7778)
          Differentiating once with respect to electric field.
                with respect to dipole field.
          Differentiating once with respect to nuclear coordinates.
 Keep R1 and R2 ints in memory in canonical form, NReq=9305740.
          There are     1 degrees of freedom in the 1st order CPHF.  IDoFFX=0 NUNeed=     1.
 LinEq1:  Iter=  0 NonCon=     1 RMS=4.43D-03 Max=6.47D-02 NDo=     1
 AX will form     1 AO Fock derivatives at one time.
 LinEq1:  Iter=  1 NonCon=     1 RMS=1.43D-03 Max=2.08D-02 NDo=     1
 LinEq1:  Iter=  2 NonCon=     1 RMS=7.32D-04 Max=1.02D-02 NDo=     1
 LinEq1:  Iter=  3 NonCon=     1 RMS=2.39D-04 Max=4.37D-03 NDo=     1
 LinEq1:  Iter=  4 NonCon=     1 RMS=9.59D-05 Max=1.03D-03 NDo=     1
 LinEq1:  Iter=  5 NonCon=     1 RMS=4.09D-05 Max=6.06D-04 NDo=     1
 LinEq1:  Iter=  6 NonCon=     1 RMS=1.81D-05 Max=2.83D-04 NDo=     1
 LinEq1:  Iter=  7 NonCon=     1 RMS=8.10D-06 Max=9.91D-05 NDo=     1
 LinEq1:  Iter=  8 NonCon=     1 RMS=3.09D-06 Max=2.92D-05 NDo=     1
 LinEq1:  Iter=  9 NonCon=     1 RMS=8.10D-07 Max=1.02D-05 NDo=     1
 LinEq1:  Iter= 10 NonCon=     1 RMS=2.09D-07 Max=2.25D-06 NDo=     1
 LinEq1:  Iter= 11 NonCon=     1 RMS=4.56D-08 Max=5.83D-07 NDo=     1
 LinEq1:  Iter= 12 NonCon=     1 RMS=1.00D-08 Max=1.32D-07 NDo=     1
 LinEq1:  Iter= 13 NonCon=     1 RMS=2.05D-09 Max=1.75D-08 NDo=     1
 LinEq1:  Iter= 14 NonCon=     1 RMS=3.61D-10 Max=4.48D-09 NDo=     1
 LinEq1:  Iter= 15 NonCon=     0 RMS=5.66D-11 Max=4.95D-10 NDo=     1
 Linear equations converged to 1.000D-10 1.000D-09 after    15 iterations.
 End of Minotr F.D. properties file   721 does not exist.
 End of Minotr F.D. properties file   722 does not exist.
 End of Minotr F.D. properties file   788 does not exist.
 D1PCM: PCM CHGder 1st derivatives, ID1Alg=3 FixD1E=F DoIter=F DoCFld=F I1PDM=2.
 Calling FoFJK, ICntrl=  10002127 FMM=F ISym2X=0 I1Cent= 0 IOpClX= 1 NMat=1 NMatS=1 NMatT=0.
 ***** Axes restored to original set *****
 -------------------------------------------------------------------
 Center     Atomic                   Forces (Hartrees/Bohr)
 Number     Number              X              Y              Z
 -------------------------------------------------------------------
      1        6           0.037654874    0.036076703    0.008919872
      2        1           0.003008816    0.001620185    0.004555860
      3        1           0.002155906    0.008724992    0.004997449
      4        1           0.000514618    0.005531455   -0.001251769
      5        7          -0.062992146    0.002105101    0.026580400
      6        7           0.019657932   -0.054058436   -0.043801813
 -------------------------------------------------------------------
 Cartesian Forces:  Max     0.062992146 RMS     0.026745612

 GradGradGradGradGradGradGradGradGradGradGradGradGradGradGradGradGradGrad
 Berny optimization.
 Using GEDIIS/GDIIS optimizer.
 FormGI is forming the generalized inverse of G from B-inverse, IUseBI=4.
 Internal  Forces:  Max     0.072176151 RMS     0.024885649
 Search for a local minimum.
 Step number   3 out of a maximum of   27
 All quantities printed in internal units (Hartrees-Bohrs-Radians)
 Mixed Optimization -- RFO/linear search
 Update second derivatives using D2CorX and points    1    3    2
 DE=  4.76D-04 DEPred=-2.47D-03 R=-1.93D-01
 Trust test=-1.93D-01 RLast= 3.20D-01 DXMaxT set to 1.84D-01
 The second derivative matrix:
                          R1        R2        R3        R4        R5
           R1           0.34429
           R2           0.00971   0.25188
           R3           0.00244   0.00972   0.34428
           R4           0.01924   0.06459   0.01940   0.71244
           R5           0.01126   0.00343   0.01140   0.22495   1.12216
           A1          -0.00295   0.02155  -0.00296  -0.03804  -0.03322
           A2           0.00169  -0.02354   0.00169   0.02630   0.02490
           A3           0.00202  -0.00452   0.00202   0.01225  -0.00088
           A4          -0.00415   0.02096  -0.00416  -0.04767  -0.03798
           A5           0.00083   0.00869   0.00085   0.02571   0.04141
           A6           0.00239  -0.00387   0.00240   0.01462  -0.00049
           A7           0.01618   0.03711   0.01623   0.09030  -0.00393
           A8          -0.00004   0.00015  -0.00004  -0.00067  -0.00077
           D1          -0.00531  -0.00553  -0.00533  -0.04192  -0.02039
           D2          -0.00042   0.00187  -0.00043  -0.01262  -0.01870
           D3           0.00044   0.00523   0.00043  -0.01546  -0.03301
           D4           0.00086   0.00336   0.00086  -0.00284  -0.01430
                          A1        A2        A3        A4        A5
           A1           0.15338
           A2           0.00640   0.15249
           A3           0.00373  -0.00421   0.15955
           A4          -0.00674   0.00721   0.00347   0.15348
           A5          -0.00815   0.00739   0.00122  -0.00913   0.16420
           A6           0.00372  -0.00447  -0.00028   0.00335   0.00133
           A7           0.00188  -0.00831   0.00942  -0.00413  -0.00046
           A8           0.00001   0.00000   0.00003   0.00002  -0.00013
           D1           0.00080   0.00309  -0.00165   0.00235  -0.00395
           D2           0.00153  -0.00125   0.00048   0.00165  -0.00278
           D3           0.00287  -0.00324   0.00138   0.00274  -0.00470
           D4           0.00134  -0.00200   0.00091   0.00109  -0.00192
                          A6        A7        A8        D1        D2
           A6           0.15994
           A7           0.01179   0.14473
           A8           0.00003   0.00002   0.03245
           D1          -0.00216  -0.02825   0.00004   0.00910
           D2           0.00051   0.00293   0.00004   0.00055   0.02044
           D3           0.00157   0.01285   0.00008  -0.00056   0.00230
           D4           0.00106   0.00992   0.00004  -0.00111   0.00110
                          D3        D4
           D3           0.02405
           D4           0.00251   0.02065
 ITU= -1  1  0
 Use linear search instead of GDIIS.
 Energy rises -- skip Quadratic/GDIIS search.
 Quartic linear search produced a step of -0.41952.
 Iteration  1 RMS(Cart)=  0.02237196 RMS(Int)=  0.00088203
 Iteration  2 RMS(Cart)=  0.00046786 RMS(Int)=  0.00068363
 Iteration  3 RMS(Cart)=  0.00000044 RMS(Int)=  0.00068362
 Variable       Old X    -DE/DX   Delta X   Delta X   Delta X     New X
                                 (Linear)    (Quad)   (Total)
    R1        2.05310   0.00519   0.00522   0.00000   0.00522   2.05832
    R2        2.30348  -0.00346  -0.04410   0.00000  -0.04410   2.25938
    R3        2.05311   0.00523   0.00524   0.00000   0.00524   2.05835
    R4        2.47537   0.06970   0.04380   0.00000   0.04380   2.51917
    R5        2.30498   0.07218   0.02064   0.00000   0.02064   2.32562
    A1        1.79783  -0.00268   0.02471   0.00000   0.02418   1.82201
    A2        2.12398  -0.00064  -0.02786   0.00000  -0.02642   2.09756
    A3        1.99139  -0.00131  -0.01341   0.00000  -0.01191   1.97948
    A4        1.79506  -0.00418   0.02563   0.00000   0.02527   1.82033
    A5        1.66987   0.01287   0.02891   0.00000   0.02918   1.69905
    A6        1.99174  -0.00100  -0.01356   0.00000  -0.01211   1.97963
    A7        2.12276   0.01085  -0.00771   0.00000  -0.00771   2.11505
    A8        3.14140  -0.00016  -0.00005   0.00000  -0.00005   3.14136
    D1        1.99565  -0.00705   0.03556   0.00000   0.03629   2.03194
    D2       -1.86738  -0.00309  -0.03846   0.00000  -0.03865  -1.90603
    D3        2.55146  -0.00458  -0.07791   0.00000  -0.07847   2.47299
    D4       -1.86435  -0.00148  -0.03945   0.00000  -0.03982  -1.90417
         Item               Value     Threshold  Converged?
 Maximum Force            0.072176     0.000450     NO 
 RMS     Force            0.024886     0.000300     NO 
 Maximum Displacement     0.042900     0.001800     NO 
 RMS     Displacement     0.022228     0.001200     NO 
 Predicted change in Energy=-3.244138D-03
 GradGradGradGradGradGradGradGradGradGradGradGradGradGradGradGradGradGrad

                          Input orientation:                          
 ---------------------------------------------------------------------
 Center     Atomic      Atomic             Coordinates (Angstroms)
 Number     Number       Type             X           Y           Z
 ---------------------------------------------------------------------
      1          6           0       -0.183747   -0.008625    0.053759
      2          1           0        0.131943   -0.049313    1.095429
      3          1           0        0.781412   -0.351654   -0.562918
      4          1           0       -0.466387    0.942281   -0.396033
      5          7           0       -0.979115   -1.018748   -0.298607
      6          7           0       -0.583263   -1.909192   -1.050240
 ---------------------------------------------------------------------
                    Distance matrix (angstroms):
                    1          2          3          4          5
     1  C    0.000000
     2  H    1.089216   0.000000
     3  H    1.195614   1.806470   0.000000
     4  H    1.089230   1.888310   1.805304   0.000000
     5  N    1.333086   2.029185   1.901139   2.029289   0.000000
     6  N    2.233960   2.928236   2.127380   2.927890   1.230667
                    6
     6  N    0.000000
 Stoichiometry    CH3N2(1+,3)
 Framework group  C1[X(CH3N2)]
 Deg. of freedom    12
 Full point group                 C1      NOp   1
 Largest Abelian subgroup         C1      NOp   1
 Largest concise Abelian subgroup C1      NOp   1
                         Standard orientation:                         
 ---------------------------------------------------------------------
 Center     Atomic      Atomic             Coordinates (Angstroms)
 Number     Number       Type             X           Y           Z
 ---------------------------------------------------------------------
      1          6           0       -1.016765   -0.088564   -0.000134
      2          1           0       -1.547183    0.030447   -0.944001
      3          1           0       -0.661307   -1.230116   -0.000847
      4          1           0       -1.546837    0.027516    0.944307
      5          7           0        0.194898    0.467306    0.000402
      6          7           0        1.213090   -0.223944   -0.000210
 ---------------------------------------------------------------------
 Rotational constants (GHZ):     70.9193367     12.5395672     11.5290569
 Standard basis: 6-311G(d,p) (5D, 7F)
 There are    75 symmetry adapted cartesian basis functions of A   symmetry.
 There are    72 symmetry adapted basis functions of A   symmetry.
    72 basis functions,   120 primitive gaussians,    75 cartesian basis functions
    12 alpha electrons       10 beta electrons
       nuclear repulsion energy        66.9132285191 Hartrees.
 NAtoms=    6 NActive=    6 NUniq=    6 SFac= 1.00D+00 NAtFMM=   60 NAOKFM=F Big=F
 Integral buffers will be    131072 words long.
 Raffenetti 2 integral format.
 Two-electron integral symmetry is turned on.
 ------------------------------------------------------------------------------
 Polarizable Continuum Model (PCM)
 =================================
 Model                : PCM (using non-symmetric T matrix).
 Atomic radii         : SMD-Coulomb.
 Polarization charges : Total charges.
 Charge compensation  : None.
 Solution method      : On-the-fly selection.
 Cavity type          : VdW (van der Waals Surface) (Alpha=1.000).
 Cavity algorithm     : GePol (No added spheres)
                        Default sphere list used, NSphG=    6.
                        Lebedev-Laikov grids with approx.  5.0 points / Ang**2.
                        Smoothing algorithm: Karplus/York (Gamma=1.0000).
                        Polarization charges: spherical gaussians, with
                                              point-specific exponents (IZeta= 3).
                        Self-potential: point-specific (ISelfS= 7).
                        Self-field    : sphere-specific E.n sum rule (ISelfD= 2).
 1st derivatives      : Analytical E(r).r(x)/FMM algorithm (CHGder, D1EAlg=3).
                        Cavity 1st derivative terms included.
 Solvent              : Water, Eps=  78.355300 Eps(inf)=   1.777849
 ------------------------------------------------------------------------------
 Spheres list:
 ISph  on   Nord     Re0    Alpha      Xe            Ye            Ze
    1   C      1    1.8500  1.000     -1.016765     -0.088564     -0.000134
    2   H      2    1.2000  1.000     -1.547183      0.030447     -0.944001
    3   H      3    1.2000  1.000     -0.661307     -1.230116     -0.000847
    4   H      4    1.2000  1.000     -1.546837      0.027516      0.944307
    5   N      5    1.8900  1.000      0.194898      0.467306      0.000402
    6   N      6    1.8900  1.000      1.213090     -0.223944     -0.000210
 ------------------------------------------------------------------------------
 ------------------------------------------------------------------------------
 Atomic radii for non-electrostatic terms: SMD-CDS.
 ------------------------------------------------------------------------------
 Nuclear repulsion after PCM non-electrostatic terms =       66.9120265845 Hartrees.
 One-electron integrals computed using PRISM.
 NBasis=    72 RedAO= T EigKep=  4.74D-03  NBF=    72
 NBsUse=    72 1.00D-06 EigRej= -1.00D+00 NBFU=    72
 Lowest energy guess from the checkpoint file:  "H3CN2smd.chk"
 B after Tr=     0.000000    0.000000    0.000000
         Rot=    0.999994   -0.000449   -0.000014   -0.003322 Ang=  -0.38 deg.
 B after Tr=     0.000000    0.000000    0.000000
         Rot=    0.999996    0.000483    0.000011    0.002628 Ang=   0.31 deg.
 Initial guess <Sx>= 0.0000 <Sy>= 0.0000 <Sz>= 1.0000 <S**2>= 2.0243 S= 1.0081
 Keep R1 and R2 ints in memory in canonical form, NReq=10312821.
 Requested convergence on RMS density matrix=1.00D-08 within 128 cycles.
 Requested convergence on MAX density matrix=1.00D-06.
 Requested convergence on             energy=1.00D-06.
 No special actions if energy rises.
 Inv3:  Mode=1 IEnd=     1205868.
 Iteration    1 A*A^-1 deviation from unit magnitude is 2.33D-15 for     28.
 Iteration    1 A*A^-1 deviation from orthogonality  is 2.50D-15 for    166    121.
 Iteration    1 A^-1*A deviation from unit magnitude is 2.22D-15 for    206.
 Iteration    1 A^-1*A deviation from orthogonality  is 1.56D-14 for    174    166.
 Rare condition: small coef for last iteration:  0.000D+00
 Rare condition: small coef for last iteration:  0.000D+00
 Error on total polarization charges =  0.00915
 SCF Done:  E(UHF) =  -148.185712520     A.U. after   17 cycles
            NFock= 17  Conv=0.55D-08     -V/T= 2.0009
 <Sx>= 0.0000 <Sy>= 0.0000 <Sz>= 1.0000 <S**2>= 2.0218 S= 1.0072
 <L.S>= 0.000000000000E+00
 SMD-CDS (non-electrostatic) energy       (kcal/mol) =      -0.75
 (included in total energy above)
 Annihilation of the first spin contaminant:
 S**2 before annihilation     2.0218,   after     2.0002
 Range of M.O.s used for correlation:     1    72
 NBasis=    72 NAE=    12 NBE=    10 NFC=     0 NFV=     0
 NROrb=     72 NOA=    12 NOB=    10 NVA=    60 NVB=    62
 Fully direct method using O(ONN) memory.
 JobTyp=2 Pass  1:  I=   1 to  12 NPSUse=  8 ParTrn=T ParDer=T DoDerP=T.
 JobTyp=3 Pass  1:  I=   1 to  10 NPSUse=  8 ParTrn=T ParDer=T DoDerP=T.
 Spin components of T(2) and E(2):
     alpha-alpha T2 =       0.1862275519D-01 E2=     -0.6483412851D-01
     alpha-beta  T2 =       0.1097381941D+00 E2=     -0.3774492855D+00
     beta-beta   T2 =       0.1805028336D-01 E2=     -0.5107921794D-01
 (S**2,0)=  0.20218D+01           (S**2,1)=  0.20042D+01
 E(PUHF)=      -0.14819112181D+03        E(PMP2)=      -0.14868231175D+03
 ANorm=    0.1070705951D+01
 E2 =    -0.4933626320D+00 EUMP2 =    -0.14867907515184D+03
          IDoAtm=111111
 NEqPCM:  Using equilibrium solvation (IEInf=0, Eps=  78.3553, EpsInf=   1.7778)
          Differentiating once with respect to electric field.
                with respect to dipole field.
          Differentiating once with respect to nuclear coordinates.
 Keep R1 and R2 ints in memory in canonical form, NReq=9311219.
          There are     1 degrees of freedom in the 1st order CPHF.  IDoFFX=0 NUNeed=     1.
 LinEq1:  Iter=  0 NonCon=     1 RMS=4.62D-03 Max=9.05D-02 NDo=     1
 AX will form     1 AO Fock derivatives at one time.
 LinEq1:  Iter=  1 NonCon=     1 RMS=1.40D-03 Max=1.95D-02 NDo=     1
 LinEq1:  Iter=  2 NonCon=     1 RMS=7.02D-04 Max=1.28D-02 NDo=     1
 LinEq1:  Iter=  3 NonCon=     1 RMS=2.16D-04 Max=4.06D-03 NDo=     1
 LinEq1:  Iter=  4 NonCon=     1 RMS=1.03D-04 Max=1.24D-03 NDo=     1
 LinEq1:  Iter=  5 NonCon=     1 RMS=4.51D-05 Max=8.03D-04 NDo=     1
 LinEq1:  Iter=  6 NonCon=     1 RMS=1.47D-05 Max=1.97D-04 NDo=     1
 LinEq1:  Iter=  7 NonCon=     1 RMS=7.98D-06 Max=1.15D-04 NDo=     1
 LinEq1:  Iter=  8 NonCon=     1 RMS=3.35D-06 Max=4.75D-05 NDo=     1
 LinEq1:  Iter=  9 NonCon=     1 RMS=8.89D-07 Max=1.09D-05 NDo=     1
 LinEq1:  Iter= 10 NonCon=     1 RMS=2.44D-07 Max=2.51D-06 NDo=     1
 LinEq1:  Iter= 11 NonCon=     1 RMS=4.96D-08 Max=6.38D-07 NDo=     1
 LinEq1:  Iter= 12 NonCon=     1 RMS=1.06D-08 Max=1.30D-07 NDo=     1
 LinEq1:  Iter= 13 NonCon=     1 RMS=2.20D-09 Max=1.70D-08 NDo=     1
 LinEq1:  Iter= 14 NonCon=     1 RMS=3.75D-10 Max=4.22D-09 NDo=     1
 LinEq1:  Iter= 15 NonCon=     0 RMS=5.82D-11 Max=5.18D-10 NDo=     1
 Linear equations converged to 1.000D-10 1.000D-09 after    15 iterations.
 End of Minotr F.D. properties file   721 does not exist.
 End of Minotr F.D. properties file   722 does not exist.
 End of Minotr F.D. properties file   788 does not exist.
 D1PCM: PCM CHGder 1st derivatives, ID1Alg=3 FixD1E=F DoIter=F DoCFld=F I1PDM=2.
 Calling FoFJK, ICntrl=  10002127 FMM=F ISym2X=0 I1Cent= 0 IOpClX= 1 NMat=1 NMatS=1 NMatT=0.
 ***** Axes restored to original set *****
 -------------------------------------------------------------------
 Center     Atomic                   Forces (Hartrees/Bohr)
 Number     Number              X              Y              Z
 -------------------------------------------------------------------
      1        6          -0.012264207    0.018021980    0.016987072
      2        1           0.007508038   -0.000146299    0.001886516
      3        1           0.015925938    0.000822952   -0.005851853
      4        1           0.004956003    0.004022011   -0.004354846
      5        7          -0.013663968   -0.021221617   -0.008683288
      6        7          -0.002461803   -0.001499027    0.000016399
 -------------------------------------------------------------------
 Cartesian Forces:  Max     0.021221617 RMS     0.010254383

 GradGradGradGradGradGradGradGradGradGradGradGradGradGradGradGradGradGrad
 Berny optimization.
 Using GEDIIS/GDIIS optimizer.
 FormGI is forming the generalized inverse of G from B-inverse, IUseBI=4.
 Internal  Forces:  Max     0.029098412 RMS     0.008687110
 Search for a local minimum.
 Step number   4 out of a maximum of   27
 All quantities printed in internal units (Hartrees-Bohrs-Radians)
 Mixed Optimization -- RFO/linear search
 Update second derivatives using D2CorX and points    1    3    2    4
 The second derivative matrix:
                          R1        R2        R3        R4        R5
           R1           0.35062
           R2           0.02691   0.26558
           R3           0.00883   0.02705   0.35073
           R4           0.06130   0.22526   0.06189   0.92563
           R5          -0.00294   0.07865  -0.00285  -0.03144   0.76692
           A1          -0.00576   0.01547  -0.00579  -0.05850  -0.03212
           A2          -0.00019  -0.03014  -0.00021   0.01555   0.03373
           A3           0.00247  -0.00680   0.00247   0.01974   0.01147
           A4          -0.00903   0.00992  -0.00909  -0.08291  -0.03460
           A5           0.00807   0.03555   0.00816   0.06355  -0.00186
           A6           0.00342  -0.00489   0.00343   0.02640   0.01167
           A7           0.01714   0.05732   0.01720   0.07079  -0.05244
           A8          -0.00006  -0.00006  -0.00006  -0.00056  -0.00017
           D1          -0.01400  -0.02654  -0.01410  -0.10335  -0.00980
           D2          -0.00093  -0.00391  -0.00095  -0.00981  -0.00202
           D3           0.00157  -0.00125   0.00156   0.00566  -0.00178
           D4           0.00250   0.00266   0.00251   0.01547   0.00024
                          A1        A2        A3        A4        A5
[...]
           R4           0.03940  -0.11418   0.02408   0.63676
           R5          -0.02116  -0.62218  -0.14784  -0.43143   3.32496
           A1           0.00790  -0.08341  -0.03099   0.06949  -0.07118
           A2           0.03029   0.06973   0.04078  -0.01273  -0.07446
           A3           0.00291  -0.03139  -0.01500  -0.03707   0.15820
           A4          -0.01970  -0.22725  -0.02452   0.04374   0.25554
           A5          -0.00866   0.25265   0.02923  -0.09686  -0.21526
           A6          -0.00210   0.01799   0.00927   0.00203  -0.06873
           A7           0.01300  -0.37372  -0.06044   0.31501   0.07000
           A8          -0.00997  -0.08928  -0.00362   0.05584  -0.00255
           D1          -0.01070  -0.23522  -0.04600   0.09902   0.08856
           D2          -0.00241  -0.05319  -0.01603  -0.04096   0.19104
           D3          -0.00580   0.09971   0.01332  -0.08805   0.01494
           D4          -0.00339   0.15290   0.02935  -0.04709  -0.17609
                          A1        A2        A3        A4        A5
           A1           0.09129
           A2           0.00938   0.14281
           A3           0.00662  -0.01613   0.14468
           A4           0.05178  -0.02544   0.04119   0.18441
           A5          -0.03867   0.02715   0.00227  -0.10850   0.19908
           A6           0.02618  -0.01272  -0.02804  -0.00944   0.02813
           A7           0.11581  -0.08293   0.00088   0.23847  -0.24805
           A8           0.04074  -0.01881   0.00353   0.02591  -0.05278
           D1           0.07311  -0.03312  -0.00024   0.13891  -0.14209
           D2           0.00358  -0.00628   0.01699   0.02737  -0.02363
           D3          -0.02341   0.01407   0.00905  -0.05497   0.05687
           D4          -0.02700   0.02035  -0.00795  -0.08234   0.08050
                          A6        A7        A8        D1        D2
           A6           0.14100
           A7           0.00231   0.70877
           A8           0.00304   0.12684   0.09701
           D1          -0.01280   0.28511   0.06303   0.17583
           D2          -0.00600   0.01139  -0.01987   0.00553   0.04644
           D3           0.00888  -0.14447  -0.02845  -0.08349   0.00285
           D4           0.01488  -0.15586  -0.00858  -0.08903  -0.02435
                          D3        D4
           D3           0.06897
           D4           0.04688   0.09046
 ITU= -1  0 -1  1  1  0 -1  1  1  1  1  1  1  0 -1  0 -1  0
 Use linear search instead of GDIIS.
     Eigenvalues ---    0.01637   0.05727   0.05947   0.10303   0.12767
     Eigenvalues ---    0.16421   0.22786   0.27490   0.33370   0.42027
     Eigenvalues ---    1.62576   3.62626
 RFO step:  Lambda=-1.69604148D-04 EMin= 1.63707248D-02
 Quartic linear search produced a step of -0.51834.
 Iteration  1 RMS(Cart)=  0.01006701 RMS(Int)=  0.00011848
 Iteration  2 RMS(Cart)=  0.00011241 RMS(Int)=  0.00006151
 Iteration  3 RMS(Cart)=  0.00000001 RMS(Int)=  0.00006151
 Variable       Old X    -DE/DX   Delta X   Delta X   Delta X     New X
                                 (Linear)    (Quad)   (Total)
    R1        2.05842  -0.00100  -0.00199   0.00069  -0.00130   2.05711
    R2        2.21637  -0.00562   0.00406  -0.00048   0.00358   2.21995
    R3        2.11462  -0.00137  -0.00414   0.00328  -0.00085   2.11377
    R4        2.58295   0.00180  -0.00669   0.00195  -0.00474   2.57821
    R5        2.35765  -0.00322   0.00011  -0.00053  -0.00042   2.35723
    A1        1.83103   0.00309   0.00429   0.01125   0.01562   1.84664
    A2        2.13009  -0.00022   0.00661  -0.00679  -0.00014   2.12995
    A3        2.02604  -0.00131  -0.01356   0.00083  -0.01279   2.01325
    A4        1.50174   0.00354   0.01154  -0.00149   0.01009   1.51183
    A5        1.92933  -0.00301   0.00834  -0.00107   0.00717   1.93650
    A6        1.95446  -0.00067  -0.00662  -0.00056  -0.00720   1.94726
    A7        2.17146   0.00707  -0.01428   0.00359  -0.01068   2.16078
    A8        2.82546   0.00272   0.01940  -0.00345   0.01595   2.84140
    D1        1.83484   0.00587   0.01334   0.01171   0.02487   1.85971
    D2       -2.08217  -0.00083  -0.00239  -0.01458  -0.01702  -2.09919
    D3        2.55835  -0.00334  -0.01653  -0.01218  -0.02877   2.52958
    D4       -1.64266  -0.00251  -0.01415   0.00241  -0.01175  -1.65442
         Item               Value     Threshold  Converged?
 Maximum Force            0.007069     0.000450     NO 
 RMS     Force            0.003356     0.000300     NO 
 Maximum Displacement     0.019397     0.001800     NO 
 RMS     Displacement     0.010119     0.001200     NO 
 Predicted change in Energy=-1.468670D-04
 Optimization stopped.
    -- Number of steps exceeded,  NStep=  27
    -- Flag reset to prevent archiving.
                           ----------------------------
                           ! Non-Optimized Parameters !
                           ! (Angstroms and Degrees)  !
 --------------------------                            --------------------------
 ! Name  Definition              Value          Derivative Info.                !
 --------------------------------------------------------------------------------
 ! R1    R(1,2)                  1.0886         -DE/DX =   -0.001               !
 ! R2    R(1,3)                  1.1747         -DE/DX =   -0.0056              !
 ! R3    R(1,4)                  1.1186         -DE/DX =   -0.0014              !
 ! R4    R(1,5)                  1.3643         -DE/DX =    0.0018              !
 ! R5    R(5,6)                  1.2474         -DE/DX =   -0.0032              !
 ! A1    A(2,1,3)              105.8048         -DE/DX =    0.0031              !
 ! A2    A(2,1,4)              122.0374         -DE/DX =   -0.0002              !
 ! A3    A(2,1,5)              115.3505         -DE/DX =   -0.0013              !
 ! A4    A(3,1,4)               86.6216         -DE/DX =    0.0035              !
 ! A5    A(3,1,5)              110.9532         -DE/DX =   -0.003               !
 ! A6    A(4,1,5)              111.5699         -DE/DX =   -0.0007              !
 ! A7    L(1,5,6,3,-1)         123.8037         -DE/DX =    0.0071              !
 ! A8    L(1,5,6,3,-2)         162.8003         -DE/DX =    0.0027              !
 ! D1    D(2,1,4,3)            106.5535         -DE/DX =    0.0059              !
 ! D2    D(2,1,5,3)           -120.2745         -DE/DX =   -0.0008              !
 ! D3    D(2,1,5,4)            144.9343         -DE/DX =   -0.0033              !
 ! D4    D(3,1,5,4)            -94.7912         -DE/DX =   -0.0025              !
 --------------------------------------------------------------------------------
 GradGradGradGradGradGradGradGradGradGradGradGradGradGradGradGradGradGrad

                          Input orientation:                          
 ---------------------------------------------------------------------
 Center     Atomic      Atomic             Coordinates (Angstroms)
 Number     Number       Type             X           Y           Z
 ---------------------------------------------------------------------
      1          6           0       -0.177446   -0.056097    0.068421
      2          1           0        0.138370   -0.128240    1.108401
      3          1           0        0.817309   -0.089062   -0.552028
      4          1           0       -0.363733    0.929046   -0.428544
      5          7           0       -1.044867   -1.019656   -0.364458
      6          7           0       -0.668792   -2.031241   -0.990403
 ---------------------------------------------------------------------
                    Distance matrix (angstroms):
                    1          2          3          4          5
     1  C    0.000000
     2  H    1.089267   0.000000
     3  H    1.172852   1.794302   0.000000
     4  H    1.119010   1.931880   1.564178   0.000000
     5  N    1.366839   2.089015   2.090188   2.065306   0.000000
     6  N    2.294280   2.945828   2.484498   3.028539   1.247616
                    6
     6  N    0.000000
 Stoichiometry    CH3N2(1+,3)
 Framework group  C1[X(CH3N2)]
 Deg. of freedom    12
 Full point group                 C1      NOp   1
 Largest Abelian subgroup         C1      NOp   1
 Largest concise Abelian subgroup C1      NOp   1
                         Standard orientation:                         
 ---------------------------------------------------------------------
 Center     Atomic      Atomic             Coordinates (Angstroms)
 Number     Number       Type             X           Y           Z
 ---------------------------------------------------------------------
      1          6           0       -1.034347   -0.057849   -0.043417
      2          1           0       -1.507665   -0.004976   -1.023049
      3          1           0       -1.031044   -1.198628    0.228967
      4          1           0       -1.612201    0.087264    0.903795
      5          7           0        0.227843    0.459523    0.042895
      6          7           0        1.251727   -0.250461   -0.021354
 ---------------------------------------------------------------------
 Rotational constants (GHZ):     69.7349498     11.7240315     10.8900424

 **********************************************************************

            Population analysis using the SCF density.

 **********************************************************************

 Orbital symmetries:
 Alpha Orbitals:
       Occupied  (A) (A) (A) (A) (A) (A) (A) (A) (A) (A) (A) (A)
       Virtual   (A) (A) (A) (A) (A) (A) (A) (A) (A) (A) (A) (A)
                 (A) (A) (A) (A) (A) (A) (A) (A) (A) (A) (A) (A)
                 (A) (A) (A) (A) (A) (A) (A) (A) (A) (A) (A) (A)
                 (A) (A) (A) (A) (A) (A) (A) (A) (A) (A) (A) (A)
                 (A) (A) (A) (A) (A) (A) (A) (A) (A) (A) (A) (A)
 Beta  Orbitals:
       Occupied  (A) (A) (A) (A) (A) (A) (A) (A) (A) (A)
       Virtual   (A) (A) (A) (A) (A) (A) (A) (A) (A) (A) (A) (A)
                 (A) (A) (A) (A) (A) (A) (A) (A) (A) (A) (A) (A)
                 (A) (A) (A) (A) (A) (A) (A) (A) (A) (A) (A) (A)
                 (A) (A) (A) (A) (A) (A) (A) (A) (A) (A) (A) (A)
                 (A) (A) (A) (A) (A) (A) (A) (A) (A) (A) (A) (A)
                 (A) (A)
 The electronic state is 3-A.
 Alpha  occ. eigenvalues --  -15.76951 -15.76101 -11.37432  -1.49234  -1.16176
 Alpha  occ. eigenvalues --   -0.92454  -0.79181  -0.73828  -0.72744  -0.60574
 Alpha  occ. eigenvalues --   -0.57415  -0.51504
 Alpha virt. eigenvalues --    0.03985   0.15488   0.19009   0.21434   0.28549
 Alpha virt. eigenvalues --    0.35452   0.46424   0.49330   0.58635   0.64602
 Alpha virt. eigenvalues --    0.66472   0.69349   0.70860   0.73194   0.76044
 Alpha virt. eigenvalues --    0.78095   0.82860   0.84350   0.89809   1.12426
 Alpha virt. eigenvalues --    1.18656   1.25419   1.31935   1.54001   1.63094
 Alpha virt. eigenvalues --    1.72053   1.74252   1.78572   1.81943   1.84450
 Alpha virt. eigenvalues --    1.97280   2.11303   2.13924   2.18968   2.23063
 Alpha virt. eigenvalues --    2.26525   2.39867   2.49152   2.56424   2.65109
 Alpha virt. eigenvalues --    2.75576   2.77080   2.80898   2.87840   2.92783
 Alpha virt. eigenvalues --    3.11972   3.15889   3.31678   3.67885   3.80834
 Alpha virt. eigenvalues --    3.97703   4.03987   4.19229   4.26296   4.29062
 Alpha virt. eigenvalues --    4.68358   5.42893  24.90943  36.53763  36.92604
  Beta  occ. eigenvalues --  -15.74610 -15.73008 -11.36572  -1.41161  -1.08898
  Beta  occ. eigenvalues --   -0.81820  -0.71006  -0.67266  -0.56116  -0.54773
  Beta virt. eigenvalues --   -0.12800   0.06369   0.08503   0.17421   0.21775
  Beta virt. eigenvalues --    0.23073   0.30072   0.39579   0.48475   0.52426
  Beta virt. eigenvalues --    0.62175   0.69276   0.71155   0.71787   0.74671
  Beta virt. eigenvalues --    0.78055   0.78431   0.82990   0.86423   0.88542
  Beta virt. eigenvalues --    0.91594   1.15424   1.21098   1.28168   1.36885
  Beta virt. eigenvalues --    1.56063   1.66532   1.75225   1.76065   1.80978
  Beta virt. eigenvalues --    1.86711   1.88245   2.01399   2.17450   2.20524
  Beta virt. eigenvalues --    2.22384   2.27384   2.30077   2.44042   2.52861
  Beta virt. eigenvalues --    2.61436   2.66482   2.79064   2.79802   2.83523
  Beta virt. eigenvalues --    2.89684   2.94442   3.13573   3.21203   3.34691
  Beta virt. eigenvalues --    3.70442   3.83494   3.98987   4.13373   4.20413
  Beta virt. eigenvalues --    4.28687   4.33084   4.72073   5.44580  24.91527
  Beta virt. eigenvalues --   36.55618  36.94286
          Condensed to atoms (all electrons):
               1          2          3          4          5          6
     1  C    4.796171   0.393466   0.279716   0.361029   0.263159  -0.048475
     2  H    0.393466   0.373211  -0.007511  -0.005742  -0.020378  -0.000356
     3  H    0.279716  -0.007511   0.370395  -0.009147  -0.010287   0.003966
     4  H    0.361029  -0.005742  -0.009147   0.368446  -0.017811   0.000365
     5  N    0.263159  -0.020378  -0.010287  -0.017811   6.472882   0.329105
     6  N   -0.048475  -0.000356   0.003966   0.000365   0.329105   6.596695
          Atomic-Atomic Spin Densities.
               1          2          3          4          5          6
     1  C    0.203647   0.000421   0.109935   0.033926  -0.076615  -0.022980
     2  H    0.000421  -0.006350  -0.003973  -0.000076   0.000589   0.001088
     3  H    0.109935  -0.003973   0.267793  -0.016839  -0.019665   0.000275
     4  H    0.033926  -0.000076  -0.016839   0.076502  -0.003557   0.001463
     5  N   -0.076615   0.000589  -0.019665  -0.003557   0.757262  -0.160381
     6  N   -0.022980   0.001088   0.000275   0.001463  -0.160381   1.013921
 Mulliken charges and spin densities:
               1          2
     1  C   -0.045066   0.248334
     2  H    0.267310  -0.008300
     3  H    0.372868   0.337526
     4  H    0.302860   0.091420
     5  N   -0.016671   0.497633
     6  N    0.118700   0.833386
 Sum of Mulliken charges =   1.00000   2.00000
 Mulliken charges and spin densities with hydrogens summed into heavy atoms:
               1          2
     1  C    0.897971   0.668981
     5  N   -0.016671   0.497633
     6  N    0.118700   0.833386
 Electronic spatial extent (au):  <R**2>=            132.0442
 Charge=              1.0000 electrons
 Dipole moment (field-independent basis, Debye):
    X=             -4.9003    Y=             -1.5738    Z=              0.4510  Tot=              5.1666
 Quadrupole moment (field-independent basis, Debye-Ang):
   XX=             -9.7528   YY=            -14.5078   ZZ=            -13.9993
   XY=              2.3937   XZ=             -0.6207   YZ=             -0.4749
 Traceless Quadrupole moment (field-independent basis, Debye-Ang):
   XX=              3.0005   YY=             -1.7545   ZZ=             -1.2460
   XY=              2.3937   XZ=             -0.6207   YZ=             -0.4749
 Octapole moment (field-independent basis, Debye-Ang**2):
  XXX=            -12.4061  YYY=             -4.2584  ZZZ=             -0.0382  XYY=             -3.4956
  XXY=             -1.1195  XXZ=              1.2470  XZZ=             -4.3103  YZZ=             -0.1781
  YYZ=              0.8039  XYZ=              0.2867
 Hexadecapole moment (field-independent basis, Debye-Ang**3):
 XXXX=           -103.1373 YYYY=            -23.3655 ZZZZ=            -16.8015 XXXY=              4.8062
 XXXZ=             -2.0153 YYYX=              5.2736 YYYZ=             -1.3247 ZZZX=             -0.0227
 ZZZY=             -0.1048 XXYY=            -21.4307 XXZZ=            -15.4783 YYZZ=             -7.8588
 XXYZ=             -0.2736 YYXZ=             -0.8331 ZZXY=              0.1328
 N-N= 6.540689171201D+01 E-N=-4.708015080366D+02  KE= 1.478009732290D+02
                          Isotropic Fermi Contact Couplings
        Atom                 a.u.       MegaHertz       Gauss      10(-4) cm-1
     1  C(13)              0.04531      25.46792       9.08759       8.49518
     2  H(1)               0.01873      41.85892      14.93630      13.96263
     3  H(1)               0.11948     267.02293      95.28042      89.06926
     4  H(1)               0.05777     129.12341      46.07444      43.07093
     5  N(14)              0.57298      92.56700      33.03021      30.87703
     6  N(14)             -0.03274      -5.28851      -1.88707      -1.76406
 --------------------------------------------------------
       Center         ----  Spin Dipole Couplings  ----
                      3XX-RR        3YY-RR        3ZZ-RR
 --------------------------------------------------------
     1   Atom        0.034854      0.211033     -0.245888
     2   Atom       -0.005779     -0.022446      0.028225
     3   Atom       -0.027990      0.059763     -0.031774
     4   Atom        0.003005     -0.033652      0.030646
     5   Atom       -1.453846      0.479718      0.974129
     6   Atom        1.021689      1.770325     -2.792015
 --------------------------------------------------------
                        XY            XZ            YZ
 --------------------------------------------------------
     1   Atom       -0.143156     -0.014033      0.091063
     2   Atom        0.003846      0.033881      0.007294
     3   Atom        0.030480     -0.006222     -0.037777
     4   Atom        0.012504     -0.047069     -0.018408
     5   Atom        0.137898     -0.038703     -0.066338
     6   Atom        1.465261      0.264958      0.574788
 --------------------------------------------------------


 ---------------------------------------------------------------------------------
              Anisotropic Spin Dipole Couplings in Principal Axis System
 ---------------------------------------------------------------------------------

       Atom             a.u.   MegaHertz   Gauss  10(-4) cm-1        Axes

              Baa    -0.2640   -35.432   -12.643   -11.819 -0.0513 -0.2029  0.9779
     1 C(13)  Bbb    -0.0406    -5.448    -1.944    -1.817  0.8815  0.4509  0.1398
              Bcc     0.3046    40.880    14.587    13.636 -0.4693  0.8692  0.1557
 
              Baa    -0.0268   -14.286    -5.098    -4.765  0.8308  0.1600 -0.5330
     2 H(1)   Bbb    -0.0233   -12.426    -4.434    -4.145 -0.1954  0.9807 -0.0103
              Bcc     0.0501    26.712     9.531     8.910  0.5211  0.1127  0.8460
 
              Baa    -0.0471   -25.137    -8.970    -8.385 -0.3663  0.4012  0.8395
     3 H(1)   Bbb    -0.0349   -18.599    -6.637    -6.204  0.8905 -0.1106  0.4414
              Bcc     0.0820    43.737    15.606    14.589  0.2700  0.9093 -0.3168
 
              Baa    -0.0385   -20.568    -7.339    -6.861  0.0018  0.9661  0.2582
     4 H(1)   Bbb    -0.0321   -17.112    -6.106    -5.708  0.8114 -0.1523  0.5643
              Bcc     0.0706    37.680    13.445    12.569 -0.5844 -0.2085  0.7842
 
              Baa    -1.4641   -56.467   -20.149   -18.835  0.9974 -0.0703  0.0139
     5 N(14)  Bbb     0.4799    18.509     6.604     6.174  0.0677  0.9881  0.1379
              Bcc     0.9842    37.958    13.544    12.662 -0.0234 -0.1366  0.9903
 
              Baa    -2.8653  -110.509   -39.432   -36.862 -0.0242 -0.1155  0.9930
     6 N(14)  Bbb    -0.1090    -4.204    -1.500    -1.402  0.7951 -0.6043 -0.0509
              Bcc     2.9743   114.712    40.932    38.264  0.6060  0.7883  0.1064
 

 ---------------------------------------------------------------------------------



 KEEP CLOSE TO NATURES HEART, YOURSELF;
 AND BREAK CLEAR AWAY, ONCE IN A WHILE, AND
 CLIMB A MOUNTAIN OR SPEND A WEEK IN THE
 WOODS.  WASH YOUR SPIRIT CLEAN...
                                         -- JOHN MUIR
 Error termination request processed by link 9999.
 Error termination via Lnk1e in /cluster/software/gaussian/gaussian-09-D.01/g09/l9999.exe at Fri Oct 21 11:44:50 2016.
 Job cpu time:       0 days  0 hours 25 minutes 56.8 seconds.
 File lengths (MBytes):  RWF=     23 Int=      0 D2E=      0 Chk=      3 Scr=      1
