 Entering Gaussian System, Link 0=g09
 Initial command:
 /cluster/software/gaussian/gaussian-09-D.01/g09/l1.exe "/local/scratch/maxb2/Gau-18752.inp" -scrdir="/local/scratch/maxb2/"
 Entering Link 1 = /cluster/software/gaussian/gaussian-09-D.01/g09/l1.exe PID=     18753.
  
 Copyright (c) 1988,1990,1992,1993,1995,1998,2003,2009,2013,
            Gaussian, Inc.  All Rights Reserved.
  
 This is part of the Gaussian(R) 09 program.  It is based on
 the Gaussian(R) 03 system (copyright 2003, Gaussian, Inc.),
 the Gaussian(R) 98 system (copyright 1998, Gaussian, Inc.),
 the Gaussian(R) 94 system (copyright 1995, Gaussian, Inc.),
 the Gaussian 92(TM) system (copyright 1992, Gaussian, Inc.),
 the Gaussian 90(TM) system (copyright 1990, Gaussian, Inc.),
 the Gaussian 88(TM) system (copyright 1988, Gaussian, Inc.),
 the Gaussian 86(TM) system (copyright 1986, Carnegie Mellon
 University), and the Gaussian 82(TM) system (copyright 1983,
 Carnegie Mellon University). Gaussian is a federally registered
 trademark of Gaussian, Inc.
  
 This software contains proprietary and confidential information,
 including trade secrets, belonging to Gaussian, Inc.
  
 This software is provided under written license and may be
 used, copied, transmitted, or stored only in accord with that
 written license.
  
 The following legend is applicable only to US Government
 contracts under FAR:
  
                    RESTRICTED RIGHTS LEGEND
  
 Use, reproduction and disclosure by the US Government is
 subject to restrictions as set forth in subparagraphs (a)
 and (c) of the Commercial Computer Software - Restricted
 Rights clause in FAR 52.227-19.
  
 Gaussian, Inc.
 340 Quinnipiac St., Bldg. 40, Wallingford CT 06492
  
  
 ---------------------------------------------------------------
 Warning -- This program may not be used in any manner that
 competes with the business of Gaussian, Inc. or will provide
 assistance to any competitor of Gaussian, Inc.  The licensee
 of this program is prohibited from giving any competitor of
 Gaussian, Inc. access to this program.  By using this program,
 the user acknowledges that Gaussian, Inc. is engaged in the
 business of creating and licensing software in the field of
 computational chemistry and represents and warrants to the
 licensee that it is not a competitor of Gaussian, Inc. and that
 it will not use this program in any manner prohibited above.
 ---------------------------------------------------------------
  

 Cite this work as:
 Gaussian 09, Revision D.01,
 M. J. Frisch, G. W. Trucks, H. B. Schlegel, G. E. Scuseria, 
 M. A. Robb, J. R. Cheeseman, G. Scalmani, V. Barone, B. Mennucci, 
 G. A. Petersson, H. Nakatsuji, M. Caricato, X. Li, H. P. Hratchian, 
 A. F. Izmaylov, J. Bloino, G. Zheng, J. L. Sonnenberg, M. Hada, 
 M. Ehara, K. Toyota, R. Fukuda, J. Hasegawa, M. Ishida, T. Nakajima, 
 Y. Honda, O. Kitao, H. Nakai, T. Vreven, J. A. Montgomery, Jr., 
 J. E. Peralta, F. Ogliaro, M. Bearpark, J. J. Heyd, E. Brothers, 
 K. N. Kudin, V. N. Staroverov, T. Keith, R. Kobayashi, J. Normand, 
 K. Raghavachari, A. Rendell, J. C. Burant, S. S. Iyengar, J. Tomasi, 
 M. Cossi, N. Rega, J. M. Millam, M. Klene, J. E. Knox, J. B. Cross, 
 V. Bakken, C. Adamo, J. Jaramillo, R. Gomperts, R. E. Stratmann, 
 O. Yazyev, A. J. Austin, R. Cammi, C. Pomelli, J. W. Ochterski, 
 R. L. Martin, K. Morokuma, V. G. Zakrzewski, G. A. Voth, 
 P. Salvador, J. J. Dannenberg, S. Dapprich, A. D. Daniels, 
 O. Farkas, J. B. Foresman, J. V. Ortiz, J. Cioslowski, 
 and D. J. Fox, Gaussian, Inc., Wallingford CT, 2013.
 
 ******************************************
 Gaussian 09:  ES64L-G09RevD.01 24-Apr-2013
                21-Oct-2016 
 ******************************************
 %nprocshared=8
 Will use up to    8 processors via shared memory.
 %mem=4gb
 %chk=H3CN2smd
 %oldchk=H3CN2optmp2.chk
 Copying data from "H3CN2optmp2.chk" to current chk file "H3CN2smd.chk".
 -----------------------------------------------------------
 # mp2(full)/6-311g** scrf=(smd,solvent=water) geom=allcheck
 -----------------------------------------------------------
 1/29=7,38=1/1;
 2/12=2,40=1/2;
 3/5=4,6=6,7=101,11=9,14=-4,16=1,25=1,30=1,70=32201,72=1/1,2,3;
 4//1;
 5/5=2,38=5,53=1/2;
 8/10=90/1;
 9/16=-3/6;
 6/7=2,8=2,9=2,10=2/1;
 99/5=1,9=1/99;
 Structure from the checkpoint file:  "H3CN2smd.chk"
 ----
 ired
 ----
 Charge =  1 Multiplicity = 3
 Redundant internal coordinates found in file.
 C,0,-0.130739728,-0.0010895328,0.0373113207
 H,0,0.1152051405,-0.0231052247,1.1046036889
 H,0,0.8257384815,-0.2855289229,-0.5363538708
 H,0,-0.476116947,0.956336208,-0.3679128552
 N,0,-0.9650970679,-1.0434788257,-0.3210183208
 N,0,-0.6681481615,-1.9983840762,-1.0752405971
 Recover connectivity data from disk.
                          Input orientation:                          
 ---------------------------------------------------------------------
 Center     Atomic      Atomic             Coordinates (Angstroms)
 Number     Number       Type             X           Y           Z
 ---------------------------------------------------------------------
      1          6           0       -0.130740   -0.001090    0.037311
      2          1           0        0.115205   -0.023105    1.104604
      3          1           0        0.825738   -0.285529   -0.536354
      4          1           0       -0.476117    0.956336   -0.367913
      5          7           0       -0.965097   -1.043479   -0.321018
      6          7           0       -0.668148   -1.998384   -1.075241
 ---------------------------------------------------------------------
                    Distance matrix (angstroms):
                    1          2          3          4          5
     1  C    0.000000
     2  H    1.095485   0.000000
     3  H    1.151020   1.807337   0.000000
     4  H    1.095516   1.864745   1.807050   0.000000
     5  N    1.382435   2.059275   1.956515   2.059262   0.000000
     6  N    2.348567   3.044190   2.335802   3.044267   1.252547
                    6
     6  N    0.000000
 Stoichiometry    CH3N2(1+,3)
 Framework group  C1[X(CH3N2)]
 Deg. of freedom    12
 Full point group                 C1      NOp   1
 Largest Abelian subgroup         C1      NOp   1
 Largest concise Abelian subgroup C1      NOp   1
                         Standard orientation:                         
 ---------------------------------------------------------------------
 Center     Atomic      Atomic             Coordinates (Angstroms)
 Number     Number       Type             X           Y           Z
 ---------------------------------------------------------------------
      1          6           0       -1.065949   -0.097900   -0.000056
      2          1           0       -1.599258    0.117409   -0.932424
      3          1           0       -0.825590   -1.223544    0.000180
      4          1           0       -1.599358    0.117286    0.932321
      5          7           0        0.208715    0.437227    0.000081
      6          7           0        1.279842   -0.212049   -0.000044
 ---------------------------------------------------------------------
 Rotational constants (GHZ):     75.7216907     11.3774949     10.6196907
 Standard basis: 6-311G(d,p) (5D, 7F)
 There are    75 symmetry adapted cartesian basis functions of A   symmetry.
 There are    72 symmetry adapted basis functions of A   symmetry.
    72 basis functions,   120 primitive gaussians,    75 cartesian basis functions
    12 alpha electrons       10 beta electrons
       nuclear repulsion energy        65.1768196371 Hartrees.
 NAtoms=    6 NActive=    6 NUniq=    6 SFac= 1.00D+00 NAtFMM=   60 NAOKFM=F Big=F
 Integral buffers will be    131072 words long.
 Raffenetti 2 integral format.
 Two-electron integral symmetry is turned on.
 ------------------------------------------------------------------------------
 Polarizable Continuum Model (PCM)
 =================================
 Model                : PCM (using non-symmetric T matrix).
 Atomic radii         : SMD-Coulomb.
 Polarization charges : Total charges.
 Charge compensation  : None.
 Solution method      : On-the-fly selection.
 Cavity type          : VdW (van der Waals Surface) (Alpha=1.000).
 Cavity algorithm     : GePol (No added spheres)
                        Default sphere list used, NSphG=    6.
                        Lebedev-Laikov grids with approx.  5.0 points / Ang**2.
                        Smoothing algorithm: Karplus/York (Gamma=1.0000).
                        Polarization charges: spherical gaussians, with
                                              point-specific exponents (IZeta= 3).
                        Self-potential: point-specific (ISelfS= 7).
                        Self-field    : sphere-specific E.n sum rule (ISelfD= 2).
 Solvent              : Water, Eps=  78.355300 Eps(inf)=   1.777849
 ------------------------------------------------------------------------------
 Spheres list:
 ISph  on   Nord     Re0    Alpha      Xe            Ye            Ze
    1   C      1    1.8500  1.000     -1.065949     -0.097900     -0.000056
    2   H      2    1.2000  1.000     -1.599258      0.117409     -0.932424
    3   H      3    1.2000  1.000     -0.825590     -1.223544      0.000180
    4   H      4    1.2000  1.000     -1.599358      0.117286      0.932321
    5   N      5    1.8900  1.000      0.208715      0.437227      0.000081
    6   N      6    1.8900  1.000      1.279842     -0.212049     -0.000044
 ------------------------------------------------------------------------------
 ------------------------------------------------------------------------------
 Atomic radii for non-electrostatic terms: SMD-CDS.
 ------------------------------------------------------------------------------
 Nuclear repulsion after PCM non-electrostatic terms =       65.1757225155 Hartrees.
 One-electron integrals computed using PRISM.
 NBasis=    72 RedAO= T EigKep=  5.46D-03  NBF=    72
 NBsUse=    72 1.00D-06 EigRej= -1.00D+00 NBFU=    72
 ExpMin= 1.03D-01 ExpMax= 6.29D+03 ExpMxC= 9.49D+02 IAcc=1 IRadAn=         1 AccDes= 0.00D+00
 Harris functional with IExCor=  205 and IRadAn=       1 diagonalized for initial guess.
 HarFok:  IExCor=  205 AccDes= 0.00D+00 IRadAn=         1 IDoV= 1 UseB2=F ITyADJ=14
 ICtDFT=  3500011 ScaDFX=  1.000000  1.000000  1.000000  1.000000
 FoFCou: FMM=F IPFlag=           0 FMFlag=      100000 FMFlg1=           0
         NFxFlg=           0 DoJE=T BraDBF=F KetDBF=T FulRan=T
         wScrn=  0.000000 ICntrl=     500 IOpCl=  0 I1Cent=   200000004 NGrid=           0
         NMat0=    1 NMatS0=      1 NMatT0=    0 NMatD0=    1 NMtDS0=    0 NMtDT0=    0
 Petite list used in FoFCou.
 Initial guess <Sx>= 0.0000 <Sy>= 0.0000 <Sz>= 1.0000 <S**2>= 2.0000 S= 1.0000
 Keep R1 and R2 ints in memory in canonical form, NReq=10321087.
 Requested convergence on RMS density matrix=1.00D-08 within 128 cycles.
 Requested convergence on MAX density matrix=1.00D-06.
 Requested convergence on             energy=1.00D-06.
 No special actions if energy rises.
 Inv3:  Mode=1 IEnd=     1228800.
 Iteration    1 A*A^-1 deviation from unit magnitude is 3.55D-15 for    634.
 Iteration    1 A*A^-1 deviation from orthogonality  is 2.06D-15 for    603    418.
 Iteration    1 A^-1*A deviation from unit magnitude is 3.89D-15 for    634.
 Iteration    1 A^-1*A deviation from orthogonality  is 1.94D-15 for    431    325.
 Rare condition: small coef for last iteration:  0.000D+00
 Error on total polarization charges =  0.00980
 SCF Done:  E(UHF) =  -148.191836292     A.U. after   25 cycles
            NFock= 25  Conv=0.55D-08     -V/T= 2.0019
 <Sx>= 0.0000 <Sy>= 0.0000 <Sz>= 1.0000 <S**2>= 2.0147 S= 1.0049
 <L.S>= 0.000000000000E+00
 SMD-CDS (non-electrostatic) energy       (kcal/mol) =      -0.69
 (included in total energy above)
 Annihilation of the first spin contaminant:
 S**2 before annihilation     2.0147,   after     2.0001
 Range of M.O.s used for correlation:     1    72
 NBasis=    72 NAE=    12 NBE=    10 NFC=     0 NFV=     0
 NROrb=     72 NOA=    12 NOB=    10 NVA=    60 NVB=    62
 Fully in-core method, ICMem=    14992614.
 JobTyp=2 Pass  1 fully in-core, NPsUse=  8.
 JobTyp=3 Pass  1 fully in-core, NPsUse=  8.
 Spin components of T(2) and E(2):
     alpha-alpha T2 =       0.1903020965D-01 E2=     -0.6510831765D-01
     alpha-beta  T2 =       0.1091528393D+00 E2=     -0.3735027519D+00
     beta-beta   T2 =       0.1604845587D-01 E2=     -0.4644541242D-01
 (S**2,0)=  0.20147D+01           (S**2,1)=  0.20016D+01
 E(PUHF)=      -0.14819621034D+03        E(PMP2)=      -0.14867933150D+03
 ANorm=    0.1069687573D+01
 E2 =    -0.4850564820D+00 EUMP2 =    -0.14867689277363D+03

 **********************************************************************

            Population analysis using the SCF density.

 **********************************************************************

 Orbital symmetries:
 Alpha Orbitals:
       Occupied  (A) (A) (A) (A) (A) (A) (A) (A) (A) (A) (A) (A)
       Virtual   (A) (A) (A) (A) (A) (A) (A) (A) (A) (A) (A) (A)
                 (A) (A) (A) (A) (A) (A) (A) (A) (A) (A) (A) (A)
                 (A) (A) (A) (A) (A) (A) (A) (A) (A) (A) (A) (A)
                 (A) (A) (A) (A) (A) (A) (A) (A) (A) (A) (A) (A)
                 (A) (A) (A) (A) (A) (A) (A) (A) (A) (A) (A) (A)
 Beta  Orbitals:
       Occupied  (A) (A) (A) (A) (A) (A) (A) (A) (A) (A)
       Virtual   (A) (A) (A) (A) (A) (A) (A) (A) (A) (A) (A) (A)
                 (A) (A) (A) (A) (A) (A) (A) (A) (A) (A) (A) (A)
                 (A) (A) (A) (A) (A) (A) (A) (A) (A) (A) (A) (A)
                 (A) (A) (A) (A) (A) (A) (A) (A) (A) (A) (A) (A)
                 (A) (A) (A) (A) (A) (A) (A) (A) (A) (A) (A) (A)
                 (A) (A)
 The electronic state is 3-A.
 Alpha  occ. eigenvalues --  -15.83187 -15.80649 -11.33621  -1.54024  -1.17409
 Alpha  occ. eigenvalues --   -0.93353  -0.82325  -0.74778  -0.72621  -0.61416
 Alpha  occ. eigenvalues --   -0.57961  -0.55561
 Alpha virt. eigenvalues --    0.00123   0.16356   0.20731   0.21965   0.27970
 Alpha virt. eigenvalues --    0.37331   0.44818   0.46103   0.59068   0.64225
 Alpha virt. eigenvalues --    0.67884   0.69809   0.71916   0.72202   0.74482
 Alpha virt. eigenvalues --    0.77144   0.80416   0.82230   0.88418   1.12544
 Alpha virt. eigenvalues --    1.22347   1.22516   1.36297   1.61541   1.65854
 Alpha virt. eigenvalues --    1.67316   1.76740   1.77404   1.80468   1.87547
 Alpha virt. eigenvalues --    1.98047   2.07566   2.08263   2.16544   2.24980
 Alpha virt. eigenvalues --    2.29303   2.48934   2.51298   2.54875   2.66979
 Alpha virt. eigenvalues --    2.70996   2.73560   2.81741   2.89223   3.01529
 Alpha virt. eigenvalues --    3.03928   3.09929   3.25514   3.73614   3.89521
 Alpha virt. eigenvalues --    3.93580   4.00699   4.13289   4.23547   4.28051
 Alpha virt. eigenvalues --    4.64660   5.36268  24.95188  36.45804  36.85057
  Beta  occ. eigenvalues --  -15.80125 -15.77001 -11.33310  -1.42560  -1.10965
  Beta  occ. eigenvalues --   -0.80859  -0.70734  -0.69025  -0.60778  -0.55770
  Beta virt. eigenvalues --   -0.11752   0.04003   0.08578   0.18090   0.22137
  Beta virt. eigenvalues --    0.22948   0.29423   0.39709   0.45516   0.49900
  Beta virt. eigenvalues --    0.63736   0.68689   0.71790   0.73149   0.73545
  Beta virt. eigenvalues --    0.75358   0.78862   0.83644   0.83978   0.86517
  Beta virt. eigenvalues --    0.90053   1.14990   1.23578   1.25662   1.40155
  Beta virt. eigenvalues --    1.62085   1.67437   1.68495   1.77650   1.81230
  Beta virt. eigenvalues --    1.86482   1.90775   2.05478   2.12224   2.15674
  Beta virt. eigenvalues --    2.22792   2.27645   2.32626   2.51743   2.54524
  Beta virt. eigenvalues --    2.59354   2.68529   2.71316   2.77409   2.83447
  Beta virt. eigenvalues --    2.91138   3.03203   3.05495   3.16095   3.28773
  Beta virt. eigenvalues --    3.77174   3.91100   3.97166   4.11523   4.14247
  Beta virt. eigenvalues --    4.24903   4.32597   4.69477   5.38253  24.95405
  Beta virt. eigenvalues --   36.48039  36.87174
          Condensed to atoms (all electrons):
               1          2          3          4          5          6
     1  C    4.811688   0.397527   0.361899   0.397515   0.188340  -0.045857
     2  H    0.397527   0.401719  -0.011802  -0.008961  -0.019816   0.000221
     3  H    0.361899  -0.011802   0.423781  -0.011818  -0.017124   0.002837
     4  H    0.397515  -0.008961  -0.011818   0.401734  -0.019810   0.000222
     5  N    0.188340  -0.019816  -0.017124  -0.019810   6.436711   0.271245
     6  N   -0.045857   0.000221   0.002837   0.000222   0.271245   6.555131
          Atomic-Atomic Spin Densities.
               1          2          3          4          5          6
     1  C    0.053236   0.001854   0.053540   0.001869  -0.040672  -0.014708
     2  H    0.001854   0.003344  -0.003450   0.001273   0.001362   0.000777
     3  H    0.053540  -0.003450   0.142616  -0.003458  -0.027252   0.000140
     4  H    0.001869   0.001273  -0.003458   0.003388   0.001358   0.000777
     5  N   -0.040672   0.001362  -0.027252   0.001358   0.941768  -0.137063
     6  N   -0.014708   0.000777   0.000140   0.000777  -0.137063   1.182952
 Mulliken charges and spin densities:
               1          2
     1  C   -0.111112   0.055119
     2  H    0.241112   0.005160
     3  H    0.252227   0.162136
     4  H    0.241118   0.005208
     5  N    0.160453   0.739501
     6  N    0.216202   1.032875
 Sum of Mulliken charges =   1.00000   2.00000
 Mulliken charges and spin densities with hydrogens summed into heavy atoms:
               1          2
     1  C    0.623345   0.227624
     5  N    0.160453   0.739501
     6  N    0.216202   1.032875
 Electronic spatial extent (au):  <R**2>=            134.5246
 Charge=              1.0000 electrons
 Dipole moment (field-independent basis, Debye):
    X=             -2.1756    Y=             -0.0625    Z=              0.0003  Tot=              2.1765
 Quadrupole moment (field-independent basis, Debye-Ang):
   XX=            -10.8836   YY=            -14.3966   ZZ=            -14.6416
   XY=              1.3934   XZ=              0.0000   YZ=             -0.0006
 Traceless Quadrupole moment (field-independent basis, Debye-Ang):
   XX=              2.4236   YY=             -1.0893   ZZ=             -1.3343
   XY=              1.3934   XZ=              0.0000   YZ=             -0.0006
 Octapole moment (field-independent basis, Debye-Ang**2):
  XXX=             -6.2299  YYY=             -1.4132  ZZZ=              0.0000  XYY=             -0.9929
  XXY=              0.8306  XXZ=              0.0005  XZZ=             -2.5308  YZZ=              0.6072
  YYZ=              0.0007  XYZ=              0.0006
 Hexadecapole moment (field-independent basis, Debye-Ang**3):
 XXXX=           -107.8932 YYYY=            -22.4567 ZZZZ=            -17.5811 XXXY=              2.2782
 XXXZ=             -0.0002 YYYX=              3.1603 YYYZ=             -0.0011 ZZZX=              0.0003
 ZZZY=             -0.0005 XXYY=            -23.6628 XXZZ=            -17.4085 YYZZ=             -7.8427
 XXYZ=             -0.0009 YYXZ=             -0.0002 ZZXY=             -0.6395
 N-N= 6.517572251551D+01 E-N=-4.700556374859D+02  KE= 1.479098006491D+02
 1\1\GINC-TC-NODE162\SP\UMP2-Full\6-311G(d,p)\C1H3N2(1+,3)\MAXB2\21-Oct
 -2016\0\\# mp2(full)/6-311g** scrf=(smd,solvent=water) geom=allcheck\\
 ired\\1,3\C,0,-0.130739728,-0.0010895328,0.0373113207\H,0,0.1152051405
 ,-0.0231052247,1.1046036889\H,0,0.8257384815,-0.2855289229,-0.53635387
 08\H,0,-0.476116947,0.956336208,-0.3679128552\N,0,-0.9650970679,-1.043
 4788257,-0.3210183208\N,0,-0.6681481615,-1.9983840762,-1.0752405971\\V
 ersion=ES64L-G09RevD.01\State=3-A\HF=-148.1918363\MP2=-148.6768928\PUH
 F=-148.1962103\PMP2-0=-148.6793315\S2=2.014679\S2-1=2.00163\S2A=2.0001
 \RMSD=5.488e-09\PG=C01 [X(C1H3N2)]\\@


 IF OTHER PEOPLE ARE GOING TO TALK, CONVERSATION IS SIMPLY IMPOSSIBLE.

                                               -- WHISTLER'S PRINCIPLE
 Job cpu time:       0 days  0 hours  0 minutes 42.0 seconds.
 File lengths (MBytes):  RWF=     13 Int=      0 D2E=      0 Chk=      3 Scr=      1
 Normal termination of Gaussian 09 at Fri Oct 21 11:41:20 2016.
