 Entering Gaussian System, Link 0=g09
 Initial command:
 /cluster/software/gaussian/gaussian-09-D.01/g09/l1.exe "/local/scratch/maxb2/Gau-2904.inp" -scrdir="/local/scratch/maxb2/"
 Entering Link 1 = /cluster/software/gaussian/gaussian-09-D.01/g09/l1.exe PID=      2905.
  
 Copyright (c) 1988,1990,1992,1993,1995,1998,2003,2009,2013,
            Gaussian, Inc.  All Rights Reserved.
  
 This is part of the Gaussian(R) 09 program.  It is based on
 the Gaussian(R) 03 system (copyright 2003, Gaussian, Inc.),
 the Gaussian(R) 98 system (copyright 1998, Gaussian, Inc.),
 the Gaussian(R) 94 system (copyright 1995, Gaussian, Inc.),
 the Gaussian 92(TM) system (copyright 1992, Gaussian, Inc.),
 the Gaussian 90(TM) system (copyright 1990, Gaussian, Inc.),
 the Gaussian 88(TM) system (copyright 1988, Gaussian, Inc.),
 the Gaussian 86(TM) system (copyright 1986, Carnegie Mellon
 University), and the Gaussian 82(TM) system (copyright 1983,
 Carnegie Mellon University). Gaussian is a federally registered
 trademark of Gaussian, Inc.
  
 This software contains proprietary and confidential information,
 including trade secrets, belonging to Gaussian, Inc.
  
 This software is provided under written license and may be
 used, copied, transmitted, or stored only in accord with that
 written license.
  
 The following legend is applicable only to US Government
 contracts under FAR:
  
                    RESTRICTED RIGHTS LEGEND
  
 Use, reproduction and disclosure by the US Government is
 subject to restrictions as set forth in subparagraphs (a)
 and (c) of the Commercial Computer Software - Restricted
 Rights clause in FAR 52.227-19.
  
 Gaussian, Inc.
 340 Quinnipiac St., Bldg. 40, Wallingford CT 06492
  
  
 ---------------------------------------------------------------
 Warning -- This program may not be used in any manner that
 competes with the business of Gaussian, Inc. or will provide
 assistance to any competitor of Gaussian, Inc.  The licensee
 of this program is prohibited from giving any competitor of
 Gaussian, Inc. access to this program.  By using this program,
 the user acknowledges that Gaussian, Inc. is engaged in the
 business of creating and licensing software in the field of
 computational chemistry and represents and warrants to the
 licensee that it is not a competitor of Gaussian, Inc. and that
 it will not use this program in any manner prohibited above.
 ---------------------------------------------------------------
  

 Cite this work as:
 Gaussian 09, Revision D.01,
 M. J. Frisch, G. W. Trucks, H. B. Schlegel, G. E. Scuseria, 
 M. A. Robb, J. R. Cheeseman, G. Scalmani, V. Barone, B. Mennucci, 
 G. A. Petersson, H. Nakatsuji, M. Caricato, X. Li, H. P. Hratchian, 
 A. F. Izmaylov, J. Bloino, G. Zheng, J. L. Sonnenberg, M. Hada, 
 M. Ehara, K. Toyota, R. Fukuda, J. Hasegawa, M. Ishida, T. Nakajima, 
 Y. Honda, O. Kitao, H. Nakai, T. Vreven, J. A. Montgomery, Jr., 
 J. E. Peralta, F. Ogliaro, M. Bearpark, J. J. Heyd, E. Brothers, 
 K. N. Kudin, V. N. Staroverov, T. Keith, R. Kobayashi, J. Normand, 
 K. Raghavachari, A. Rendell, J. C. Burant, S. S. Iyengar, J. Tomasi, 
 M. Cossi, N. Rega, J. M. Millam, M. Klene, J. E. Knox, J. B. Cross, 
 V. Bakken, C. Adamo, J. Jaramillo, R. Gomperts, R. E. Stratmann, 
 O. Yazyev, A. J. Austin, R. Cammi, C. Pomelli, J. W. Ochterski, 
 R. L. Martin, K. Morokuma, V. G. Zakrzewski, G. A. Voth, 
 P. Salvador, J. J. Dannenberg, S. Dapprich, A. D. Daniels, 
 O. Farkas, J. B. Foresman, J. V. Ortiz, J. Cioslowski, 
 and D. J. Fox, Gaussian, Inc., Wallingford CT, 2013.
 
 ******************************************
 Gaussian 09:  ES64L-G09RevD.01 24-Apr-2013
                21-Oct-2016 
 ******************************************
 %nprocshared=8
 Will use up to    8 processors via shared memory.
 %mem=4gb
 %chk=H3CN2cbs4m
 %oldchk=H3CN2optmp2.chk
 Copying data from "H3CN2optmp2.chk" to current chk file "H3CN2cbs4m.chk".
 ----------------------
 # cbs-4m geom=allcheck
 ----------------------
 1/18=20,19=15,29=7,38=1/1,3;
 2/9=110,12=2,40=1/2;
 3/5=5,6=3,7=1,11=9,14=-4,16=1,25=1,30=1,71=1/1,2,3;
 4//1;
 5/5=2,38=5/2;
 6/7=2,8=2,9=2,10=2,28=1/1;
 7//1,2,3,16;
 1/18=20,19=15/3(2);
 2/9=110/2;
 99//99;
 2/9=110/2;
 3/5=5,6=3,7=1,11=9,14=-2,16=1,25=1,30=1,71=1/1,2,3;
 4/5=5,16=3,69=1/1;
 5/5=2,38=5/2;
 7//1,2,3,16;
 1/18=20,19=15/3(-5);
 2/9=110/2;
 6/7=2,8=2,9=2,10=2,19=2,28=1/1;
 99/9=1/99;
 Structure from the checkpoint file:  "H3CN2cbs4m.chk"
 ----
 ired
 ----
 Charge =  1 Multiplicity = 3
 Redundant internal coordinates found in file.
 C,0,-0.130739728,-0.0010895328,0.0373113207
 H,0,0.1152051405,-0.0231052247,1.1046036889
 H,0,0.8257384815,-0.2855289229,-0.5363538708
 H,0,-0.476116947,0.956336208,-0.3679128552
 N,0,-0.9650970679,-1.0434788257,-0.3210183208
 N,0,-0.6681481615,-1.9983840762,-1.0752405971
 Recover connectivity data from disk.

 GradGradGradGradGradGradGradGradGradGradGradGradGradGradGradGradGradGrad
 Berny optimization.
 Initialization pass.
                           ----------------------------
                           !    Initial Parameters    !
                           ! (Angstroms and Degrees)  !
 --------------------------                            --------------------------
 ! Name  Definition              Value          Derivative Info.                !
 --------------------------------------------------------------------------------
 ! R1    R(1,2)                  1.0955         estimate D2E/DX2                !
 ! R2    R(1,3)                  1.151          estimate D2E/DX2                !
 ! R3    R(1,4)                  1.0955         estimate D2E/DX2                !
 ! R4    R(1,5)                  1.3824         estimate D2E/DX2                !
 ! R5    R(5,6)                  1.2525         estimate D2E/DX2                !
 ! A1    A(2,1,3)              107.1001         estimate D2E/DX2                !
 ! A2    A(2,1,4)              116.6614         estimate D2E/DX2                !
 ! A3    A(2,1,5)              111.8932         estimate D2E/DX2                !
 ! A4    A(3,1,4)              107.0733         estimate D2E/DX2                !
 ! A5    A(3,1,5)              100.7202         estimate D2E/DX2                !
 ! A6    A(4,1,5)              111.89           estimate D2E/DX2                !
 ! A7    L(1,5,6,3,-1)         126.0038         estimate D2E/DX2                !
 ! A8    L(1,5,6,3,-2)         179.9804         estimate D2E/DX2                !
 ! D1    D(2,1,4,3)            119.8946         estimate D2E/DX2                !
 ! D2    D(2,1,5,3)           -113.491          estimate D2E/DX2                !
 ! D3    D(2,1,5,4)            133.0499         estimate D2E/DX2                !
 ! D4    D(3,1,5,4)           -113.4592         estimate D2E/DX2                !
 --------------------------------------------------------------------------------
 Trust Radius=3.00D-01 FncErr=1.00D-07 GrdErr=1.00D-07
 Number of steps in this run=     27 maximum allowed number of steps=    100.
 GradGradGradGradGradGradGradGradGradGradGradGradGradGradGradGradGradGrad

                          Input orientation:                          
 ---------------------------------------------------------------------
 Center     Atomic      Atomic             Coordinates (Angstroms)
 Number     Number       Type             X           Y           Z
 ---------------------------------------------------------------------
      1          6           0       -0.130740   -0.001090    0.037311
      2          1           0        0.115205   -0.023105    1.104604
      3          1           0        0.825738   -0.285529   -0.536354
      4          1           0       -0.476117    0.956336   -0.367913
      5          7           0       -0.965097   -1.043479   -0.321018
      6          7           0       -0.668148   -1.998384   -1.075241
 ---------------------------------------------------------------------
                    Distance matrix (angstroms):
                    1          2          3          4          5
     1  C    0.000000
     2  H    1.095485   0.000000
     3  H    1.151020   1.807337   0.000000
     4  H    1.095516   1.864745   1.807050   0.000000
     5  N    1.382435   2.059275   1.956515   2.059262   0.000000
     6  N    2.348567   3.044190   2.335802   3.044267   1.252547
                    6
     6  N    0.000000
 Stoichiometry    CH3N2(1+,3)
 Framework group  C1[X(CH3N2)]
 Deg. of freedom    12
 Full point group                 C1      NOp   1
 Largest Abelian subgroup         C1      NOp   1
 Largest concise Abelian subgroup C1      NOp   1
                         Standard orientation:                         
 ---------------------------------------------------------------------
 Center     Atomic      Atomic             Coordinates (Angstroms)
 Number     Number       Type             X           Y           Z
 ---------------------------------------------------------------------
      1          6           0       -1.065949   -0.097900   -0.000056
      2          1           0       -1.599258    0.117409   -0.932424
      3          1           0       -0.825590   -1.223544    0.000180
      4          1           0       -1.599358    0.117286    0.932321
      5          7           0        0.208715    0.437227    0.000081
      6          7           0        1.279842   -0.212049   -0.000044
 ---------------------------------------------------------------------
 Rotational constants (GHZ):     75.7216907     11.3774949     10.6196907
 Standard basis: 3-21G* (6D, 7F)
 There are    33 symmetry adapted cartesian basis functions of A   symmetry.
 There are    33 symmetry adapted basis functions of A   symmetry.
    33 basis functions,    54 primitive gaussians,    33 cartesian basis functions
    12 alpha electrons       10 beta electrons
       nuclear repulsion energy        65.1768196371 Hartrees.
 NAtoms=    6 NActive=    6 NUniq=    6 SFac= 1.00D+00 NAtFMM=   60 NAOKFM=F Big=F
 Integral buffers will be    131072 words long.
 Raffenetti 2 integral format.
 Two-electron integral symmetry is turned on.
 One-electron integrals computed using PRISM.
 NBasis=    33 RedAO= T EigKep=  2.17D-02  NBF=    33
 NBsUse=    33 1.00D-06 EigRej= -1.00D+00 NBFU=    33
 ExpMin= 1.83D-01 ExpMax= 2.43D+02 ExpMxC= 2.43D+02 IAcc=1 IRadAn=         1 AccDes= 0.00D+00
 Harris functional with IExCor=  205 and IRadAn=       1 diagonalized for initial guess.
 HarFok:  IExCor=  205 AccDes= 0.00D+00 IRadAn=         1 IDoV= 1 UseB2=F ITyADJ=14
 ICtDFT=  3500011 ScaDFX=  1.000000  1.000000  1.000000  1.000000
 FoFCou: FMM=F IPFlag=           0 FMFlag=      100000 FMFlg1=           0
         NFxFlg=           0 DoJE=T BraDBF=F KetDBF=T FulRan=T
         wScrn=  0.000000 ICntrl=     500 IOpCl=  0 I1Cent=   200000004 NGrid=           0
         NMat0=    1 NMatS0=      1 NMatT0=    0 NMatD0=    1 NMtDS0=    0 NMtDT0=    0
 Petite list used in FoFCou.
 Initial guess <Sx>= 0.0000 <Sy>= 0.0000 <Sz>= 1.0000 <S**2>= 2.0000 S= 1.0000
 Keep R1 and R2 ints in memory in canonical form, NReq=1145226.
 Requested convergence on RMS density matrix=1.00D-08 within 128 cycles.
 Requested convergence on MAX density matrix=1.00D-06.
 Requested convergence on             energy=1.00D-06.
 No special actions if energy rises.
 Rare condition: small coef for last iteration:  0.000D+00
 Rare condition: small coef for last iteration:  0.000D+00
 SCF Done:  E(UHF) =  -147.190026067     A.U. after   26 cycles
            NFock= 26  Conv=0.84D-08     -V/T= 2.0029
 <Sx>= 0.0000 <Sy>= 0.0000 <Sz>= 1.0000 <S**2>= 2.0072 S= 1.0024
 <L.S>= 0.000000000000E+00
 Annihilation of the first spin contaminant:
 S**2 before annihilation     2.0072,   after     2.0000

 **********************************************************************

            Population analysis using the SCF density.

 **********************************************************************

 Orbital symmetries:
 Alpha Orbitals:
       Occupied  (A) (A) (A) (A) (A) (A) (A) (A) (A) (A) (A) (A)
       Virtual   (A) (A) (A) (A) (A) (A) (A) (A) (A) (A) (A) (A)
                 (A) (A) (A) (A) (A) (A) (A) (A) (A)
 Beta  Orbitals:
       Occupied  (A) (A) (A) (A) (A) (A) (A) (A) (A) (A)
       Virtual   (A) (A) (A) (A) (A) (A) (A) (A) (A) (A) (A) (A)
                 (A) (A) (A) (A) (A) (A) (A) (A) (A) (A) (A)
 The electronic state is 3-A.
 Alpha  occ. eigenvalues --  -15.99003 -15.97761 -11.50907  -1.78507  -1.40665
 Alpha  occ. eigenvalues --   -1.15441  -1.05259  -0.96415  -0.96376  -0.83953
 Alpha  occ. eigenvalues --   -0.80638  -0.77665
 Alpha virt. eigenvalues --   -0.22664   0.02158   0.06031   0.10979   0.12741
 Alpha virt. eigenvalues --    0.27797   0.65871   0.69495   0.70824   0.91882
 Alpha virt. eigenvalues --    0.96102   1.00598   1.01841   1.04352   1.06242
 Alpha virt. eigenvalues --    1.08240   1.18344   1.26832   1.58611   1.95015
 Alpha virt. eigenvalues --    2.42377
  Beta  occ. eigenvalues --  -15.96000 -15.94268 -11.50686  -1.67384  -1.34348
  Beta  occ. eigenvalues --   -1.03253  -0.94228  -0.89775  -0.84012  -0.78199
  Beta virt. eigenvalues --   -0.34242  -0.17958  -0.11875   0.04855   0.06771
  Beta virt. eigenvalues --    0.11368   0.16529   0.34568   0.68436   0.71352
  Beta virt. eigenvalues --    0.72615   0.98218   0.99676   1.02496   1.06766
  Beta virt. eigenvalues --    1.08733   1.14388   1.19870   1.19873   1.30159
  Beta virt. eigenvalues --    1.59788   1.99454   2.45499
          Condensed to atoms (all electrons):
               1          2          3          4          5          6
     1  C    5.467273   0.346315   0.315006   0.346290   0.021060  -0.053509
     2  H    0.346315   0.316892  -0.015542  -0.007777  -0.028160   0.000648
     3  H    0.315006  -0.015542   0.381694  -0.015568  -0.030142   0.004300
     4  H    0.346290  -0.007777  -0.015568   0.316917  -0.028154   0.000649
     5  N    0.021060  -0.028160  -0.030142  -0.028154   6.993306   0.115982
     6  N   -0.053509   0.000648   0.004300   0.000649   0.115982   6.581121
          Atomic-Atomic Spin Densities.
               1          2          3          4          5          6
     1  C    0.035566  -0.000114   0.049019  -0.000099  -0.059488  -0.019012
     2  H   -0.000114   0.004763  -0.003520   0.001452   0.001523   0.000599
     3  H    0.049019  -0.003520   0.128899  -0.003529  -0.029890   0.003299
     4  H   -0.000099   0.001452  -0.003529   0.004806   0.001521   0.000600
     5  N   -0.059488   0.001523  -0.029890   0.001521   1.026474  -0.144997
     6  N   -0.019012   0.000599   0.003299   0.000600  -0.144997   1.204762
 Mulliken charges and spin densities:
               1          2
     1  C   -0.442435   0.005872
     2  H    0.387624   0.004703
     3  H    0.360253   0.144278
     4  H    0.387643   0.004751
     5  N   -0.043893   0.795144
     6  N    0.350808   1.045251
 Sum of Mulliken charges =   1.00000   2.00000
 Mulliken charges and spin densities with hydrogens summed into heavy atoms:
               1          2
     1  C    0.693085   0.159604
     5  N   -0.043893   0.795144
     6  N    0.350808   1.045251
 Electronic spatial extent (au):  <R**2>=            135.1874
 Charge=              1.0000 electrons
 Dipole moment (field-independent basis, Debye):
    X=             -1.5715    Y=             -0.1151    Z=              0.0003  Tot=              1.5757
 Quadrupole moment (field-independent basis, Debye-Ang):
   XX=            -10.6053   YY=            -15.2145   ZZ=            -14.9936
   XY=              1.2674   XZ=              0.0000   YZ=             -0.0006
 Traceless Quadrupole moment (field-independent basis, Debye-Ang):
   XX=              2.9992   YY=             -1.6101   ZZ=             -1.3891
   XY=              1.2674   XZ=              0.0000   YZ=             -0.0006
 Octapole moment (field-independent basis, Debye-Ang**2):
  XXX=             -4.4038  YYY=             -1.4027  ZZZ=             -0.0002  XYY=             -0.5227
  XXY=              0.9417  XXZ=              0.0005  XZZ=             -2.1885  YZZ=              0.5759
  YYZ=              0.0007  XYZ=              0.0006
 Hexadecapole moment (field-independent basis, Debye-Ang**3):
 XXXX=           -104.7122 YYYY=            -23.0558 ZZZZ=            -17.1907 XXXY=              1.7364
 XXXZ=             -0.0003 YYYX=              2.4739 YYYZ=             -0.0010 ZZZX=              0.0003
 ZZZY=             -0.0006 XXYY=            -23.8752 XXZZ=            -16.8027 YYZZ=             -7.8285
 XXYZ=             -0.0010 YYXZ=             -0.0002 ZZXY=             -0.8518
 N-N= 6.517681963712D+01 E-N=-4.673497794484D+02  KE= 1.467635084450D+02
                          Isotropic Fermi Contact Couplings
        Atom                 a.u.       MegaHertz       Gauss      10(-4) cm-1
     1  C(13)              0.01224       6.87847       2.45441       2.29441
     2  H(1)               0.00370       8.26527       2.94926       2.75700
     3  H(1)               0.06210     138.79578      49.52578      46.29729
     4  H(1)               0.00372       8.31451       2.96682       2.77342
     5  N(14)              0.41167      66.50624      23.73108      22.18409
     6  N(14)              0.16679      26.94604       9.61502       8.98823
 --------------------------------------------------------
       Center         ----  Spin Dipole Couplings  ----
                      3XX-RR        3YY-RR        3ZZ-RR
 --------------------------------------------------------
     1   Atom        0.049462      0.055386     -0.104848
     2   Atom        0.018076     -0.017043     -0.001033
     3   Atom        0.010439      0.018464     -0.028903
     4   Atom        0.018084     -0.017045     -0.001039
     5   Atom       -0.785572      1.751319     -0.965748
     6   Atom        0.120568      1.096372     -1.216940
 --------------------------------------------------------
                        XY            XZ            YZ
 --------------------------------------------------------
     1   Atom        0.036332      0.000017      0.000058
     2   Atom        0.004115      0.024908      0.003338
     3   Atom        0.015783      0.000001     -0.000013
     4   Atom        0.004122     -0.024909     -0.003345
     5   Atom        0.280108      0.000064      0.000562
     6   Atom        1.483410      0.000373      0.000522
 --------------------------------------------------------


 ---------------------------------------------------------------------------------
              Anisotropic Spin Dipole Couplings in Principal Axis System
 ---------------------------------------------------------------------------------

       Atom             a.u.   MegaHertz   Gauss  10(-4) cm-1        Axes

              Baa    -0.1048   -14.070    -5.020    -4.693  0.0000 -0.0004  1.0000
     1 C(13)  Bbb     0.0160     2.143     0.765     0.715  0.7353 -0.6778 -0.0002
              Bcc     0.0889    11.926     4.256     3.978  0.6778  0.7353  0.0003
 
              Baa    -0.0184    -9.803    -3.498    -3.270 -0.4652 -0.4593  0.7567
     2 H(1)   Bbb    -0.0174    -9.259    -3.304    -3.089 -0.3346  0.8827  0.3301
              Bcc     0.0357    19.062     6.802     6.359  0.8195  0.0996  0.5643
 
              Baa    -0.0289   -15.421    -5.503    -5.144 -0.0001  0.0003  1.0000
     3 H(1)   Bbb    -0.0018    -0.978    -0.349    -0.326  0.7894 -0.6138  0.0003
              Bcc     0.0307    16.400     5.852     5.470  0.6138  0.7894 -0.0002
 
              Baa    -0.0184    -9.806    -3.499    -3.271  0.4645  0.4610  0.7562
     4 H(1)   Bbb    -0.0174    -9.260    -3.304    -3.089 -0.3355  0.8818 -0.3315
              Bcc     0.0357    19.066     6.803     6.360  0.8196  0.0998 -0.5642
 
              Baa    -0.9657   -37.247   -13.291   -12.424  0.0000 -0.0002  1.0000
     5 N(14)  Bbb    -0.8161   -31.476   -11.232   -10.499  0.9941 -0.1085  0.0000
              Bcc     1.7819    68.723    24.522    22.924  0.1085  0.9941  0.0002
 
              Baa    -1.2169   -46.935   -16.747   -15.656 -0.0001 -0.0002  1.0000
     6 N(14)  Bbb    -0.9531   -36.760   -13.117   -12.262  0.8101 -0.5863  0.0000
              Bcc     2.1701    83.694    29.864    27.917  0.5863  0.8101  0.0002
 

 ---------------------------------------------------------------------------------

 Calling FoFJK, ICntrl=      2127 FMM=F ISym2X=0 I1Cent= 0 IOpClX= 1 NMat=1 NMatS=1 NMatT=0.
 ***** Axes restored to original set *****
 -------------------------------------------------------------------
 Center     Atomic                   Forces (Hartrees/Bohr)
 Number     Number              X              Y              Z
 -------------------------------------------------------------------
      1        6           0.042383653    0.024516757   -0.000765781
      2        1          -0.005481486    0.003979017   -0.008323493
      3        1          -0.011679813    0.011458638    0.012343819
      4        1           0.001100890   -0.006953638    0.008120851
      5        7          -0.016256721   -0.031902672   -0.014685019
      6        7          -0.010066524   -0.001098102    0.003309623
 -------------------------------------------------------------------
 Cartesian Forces:  Max     0.042383653 RMS     0.016090022

 GradGradGradGradGradGradGradGradGradGradGradGradGradGradGradGradGradGrad
 Berny optimization.
 FormGI is forming the generalized inverse of G from B-inverse, IUseBI=4.
 Internal  Forces:  Max     0.043719068 RMS     0.013962731
 Search for a local minimum.
 Step number   1 out of a maximum of   27
 All quantities printed in internal units (Hartrees-Bohrs-Radians)
 Mixed Optimization -- RFO/linear search
 Second derivative matrix not updated -- first step.
 The second derivative matrix:
                          R1        R2        R3        R4        R5
           R1           0.34186
           R2           0.00000   0.28616
           R3           0.00000   0.00000   0.34183
           R4           0.00000   0.00000   0.00000   0.48660
           R5           0.00000   0.00000   0.00000   0.00000   0.82303
           A1           0.00000   0.00000   0.00000   0.00000   0.00000
           A2           0.00000   0.00000   0.00000   0.00000   0.00000
           A3           0.00000   0.00000   0.00000   0.00000   0.00000
           A4           0.00000   0.00000   0.00000   0.00000   0.00000
           A5           0.00000   0.00000   0.00000   0.00000   0.00000
           A6           0.00000   0.00000   0.00000   0.00000   0.00000
           A7           0.00000   0.00000   0.00000   0.00000   0.00000
           A8           0.00000   0.00000   0.00000   0.00000   0.00000
           D1           0.00000   0.00000   0.00000   0.00000   0.00000
           D2           0.00000   0.00000   0.00000   0.00000   0.00000
           D3           0.00000   0.00000   0.00000   0.00000   0.00000
           D4           0.00000   0.00000   0.00000   0.00000   0.00000
                          A1        A2        A3        A4        A5
           A1           0.16000
           A2           0.00000   0.16000
           A3           0.00000   0.00000   0.16000
           A4           0.00000   0.00000   0.00000   0.16000
           A5           0.00000   0.00000   0.00000   0.00000   0.16000
           A6           0.00000   0.00000   0.00000   0.00000   0.00000
           A7           0.00000   0.00000   0.00000   0.00000   0.00000
           A8           0.00000   0.00000   0.00000   0.00000   0.00000
           D1           0.00000   0.00000   0.00000   0.00000   0.00000
           D2           0.00000   0.00000   0.00000   0.00000   0.00000
           D3           0.00000   0.00000   0.00000   0.00000   0.00000
           D4           0.00000   0.00000   0.00000   0.00000   0.00000
                          A6        A7        A8        D1        D2
           A6           0.16000
           A7           0.00000   0.03245
           A8           0.00000   0.00000   0.03245
           D1           0.00000   0.00000   0.00000   0.00230
           D2           0.00000   0.00000   0.00000   0.00000   0.01924
           D3           0.00000   0.00000   0.00000   0.00000   0.00000
           D4           0.00000   0.00000   0.00000   0.00000   0.00000
                          D3        D4
           D3           0.01924
           D4           0.00000   0.01924
 ITU=  0
     Eigenvalues ---    0.03245   0.03245   0.05119   0.07156   0.09420
     Eigenvalues ---    0.16000   0.16000   0.28616   0.34183   0.34186
     Eigenvalues ---    0.48660   0.82303
 RFO step:  Lambda=-1.89894397D-02 EMin= 3.24532568D-02
 Linear search not attempted -- first point.
 Maximum step size (   0.300) exceeded in Quadratic search.
    -- Step size scaled by   0.615
 Iteration  1 RMS(Cart)=  0.10639766 RMS(Int)=  0.02294417
 Iteration  2 RMS(Cart)=  0.03250203 RMS(Int)=  0.00125867
 Iteration  3 RMS(Cart)=  0.00136043 RMS(Int)=  0.00022337
 Iteration  4 RMS(Cart)=  0.00000058 RMS(Int)=  0.00022337
 Variable       Old X    -DE/DX   Delta X   Delta X   Delta X     New X
                                 (Linear)    (Quad)   (Total)
    R1        2.07017  -0.00942   0.00000  -0.01604  -0.01604   2.05412
    R2        2.17511  -0.01869   0.00000  -0.03764  -0.03764   2.13747
    R3        2.07023  -0.00943   0.00000  -0.01606  -0.01606   2.05417
    R4        2.61242   0.04372   0.00000   0.05315   0.05315   2.66557
    R5        2.36697  -0.00354   0.00000  -0.00259  -0.00259   2.36439
    A1        1.86925  -0.00108   0.00000  -0.00032  -0.00044   1.86881
    A2        2.03613  -0.00193   0.00000  -0.02481  -0.02533   2.01079
    A3        1.95290  -0.00288   0.00000  -0.00998  -0.01045   1.94245
    A4        1.86878  -0.00212   0.00000  -0.00105  -0.00119   1.86759
    A5        1.75790   0.01289   0.00000   0.06032   0.06008   1.81798
    A6        1.95285  -0.00249   0.00000  -0.00990  -0.01036   1.94249
    A7        2.19918   0.02378   0.00000   0.28414   0.28414   2.48332
    A8        3.14125   0.00001   0.00000   0.00008   0.00008   3.14133
    D1        2.09256  -0.00424   0.00000  -0.01715  -0.01728   2.07528
    D2       -1.98079  -0.00437   0.00000  -0.02723  -0.02717  -2.00796
    D3        2.32216  -0.00771   0.00000  -0.05364  -0.05349   2.26867
    D4       -1.98024  -0.00334   0.00000  -0.02641  -0.02632  -2.00655
         Item               Value     Threshold  Converged?
 Maximum Force            0.043719     0.000450     NO 
 RMS     Force            0.013963     0.000300     NO 
 Maximum Displacement     0.330862     0.001800     NO 
 RMS     Displacement     0.135647     0.001200     NO 
 Predicted change in Energy=-8.981192D-03
 GradGradGradGradGradGradGradGradGradGradGradGradGradGradGradGradGradGrad

                          Input orientation:                          
 ---------------------------------------------------------------------
 Center     Atomic      Atomic             Coordinates (Angstroms)
 Number     Number       Type             X           Y           Z
 ---------------------------------------------------------------------
      1          6           0       -0.089551    0.014263    0.031092
      2          1           0        0.093599   -0.012094    1.102221
      3          1           0        0.905506   -0.152569   -0.480196
      4          1           0       -0.488244    0.951975   -0.347522
      5          7           0       -0.877235   -1.080910   -0.381014
      6          7           0       -0.843233   -2.115916   -1.083192
 ---------------------------------------------------------------------
                    Distance matrix (angstroms):
                    1          2          3          4          5
     1  C    0.000000
     2  H    1.086994   0.000000
     3  H    1.131100   1.784087   0.000000
     4  H    1.087018   1.835681   1.783299   0.000000
     5  N    1.410561   2.069993   2.012416   2.070038   0.000000
     6  N    2.519390   3.174862   2.697484   3.174773   1.251179
                    6
     6  N    0.000000
 Stoichiometry    CH3N2(1+,3)
 Framework group  C1[X(CH3N2)]
 Deg. of freedom    12
 Full point group                 C1      NOp   1
 Largest Abelian subgroup         C1      NOp   1
 Largest concise Abelian subgroup C1      NOp   1
                         Standard orientation:                         
 ---------------------------------------------------------------------
 Center     Atomic      Atomic             Coordinates (Angstroms)
 Number     Number       Type             X           Y           Z
 ---------------------------------------------------------------------
      1          6           0       -1.137790   -0.067023   -0.000153
      2          1           0       -1.633724    0.239756   -0.917482
      3          1           0       -1.107404   -1.197714   -0.001167
      4          1           0       -1.633678    0.236846    0.918197
      5          7           0        0.220131    0.314724    0.000382
      6          7           0        1.380090   -0.154259   -0.000186
 ---------------------------------------------------------------------
 Rotational constants (GHZ):    100.8301039      9.9547867      9.6476701
 Standard basis: 3-21G* (6D, 7F)
 There are    33 symmetry adapted cartesian basis functions of A   symmetry.
 There are    33 symmetry adapted basis functions of A   symmetry.
    33 basis functions,    54 primitive gaussians,    33 cartesian basis functions
    12 alpha electrons       10 beta electrons
       nuclear repulsion energy        63.9593279210 Hartrees.
 NAtoms=    6 NActive=    6 NUniq=    6 SFac= 1.00D+00 NAtFMM=   60 NAOKFM=F Big=F
 Integral buffers will be    131072 words long.
 Raffenetti 2 integral format.
 Two-electron integral symmetry is turned on.
 One-electron integrals computed using PRISM.
 NBasis=    33 RedAO= T EigKep=  2.13D-02  NBF=    33
 NBsUse=    33 1.00D-06 EigRej= -1.00D+00 NBFU=    33
 Initial guess from the checkpoint file:  "H3CN2cbs4m.chk"
 B after Tr=     0.000000    0.000000    0.000000
         Rot=    0.999957   -0.000631   -0.000009    0.009217 Ang=  -1.06 deg.
 Initial guess <Sx>= 0.0000 <Sy>= 0.0000 <Sz>= 1.0000 <S**2>= 2.0075 S= 1.0025
 ExpMin= 1.83D-01 ExpMax= 2.43D+02 ExpMxC= 2.43D+02 IAcc=1 IRadAn=         1 AccDes= 0.00D+00
 Harris functional with IExCor=  205 and IRadAn=       1 diagonalized for initial guess.
 HarFok:  IExCor=  205 AccDes= 0.00D+00 IRadAn=         1 IDoV= 1 UseB2=F ITyADJ=14
 ICtDFT=  3500011 ScaDFX=  1.000000  1.000000  1.000000  1.000000
 FoFCou: FMM=F IPFlag=           0 FMFlag=      100000 FMFlg1=           0
         NFxFlg=           0 DoJE=T BraDBF=F KetDBF=T FulRan=T
         wScrn=  0.000000 ICntrl=     500 IOpCl=  0 I1Cent=   200000004 NGrid=           0
         NMat0=    1 NMatS0=      1 NMatT0=    0 NMatD0=    1 NMtDS0=    0 NMtDT0=    0
 Petite list used in FoFCou.
 Keep R1 and R2 ints in memory in canonical form, NReq=1145210.
 Requested convergence on RMS density matrix=1.00D-08 within 128 cycles.
 Requested convergence on MAX density matrix=1.00D-06.
 Requested convergence on             energy=1.00D-06.
 No special actions if energy rises.
 SCF Done:  E(UHF) =  -147.193097323     A.U. after   28 cycles
            NFock= 28  Conv=0.13D-08     -V/T= 2.0031
 <Sx>= 0.0000 <Sy>= 0.0000 <Sz>= 1.0000 <S**2>= 2.0082 S= 1.0027
 <L.S>= 0.000000000000E+00
 Annihilation of the first spin contaminant:
 S**2 before annihilation     2.0082,   after     2.0000
 Calling FoFJK, ICntrl=      2127 FMM=F ISym2X=0 I1Cent= 0 IOpClX= 1 NMat=1 NMatS=1 NMatT=0.
 ***** Axes restored to original set *****
 -------------------------------------------------------------------
 Center     Atomic                   Forces (Hartrees/Bohr)
 Number     Number              X              Y              Z
 -------------------------------------------------------------------
      1        6           0.044098601    0.008664467   -0.012027337
      2        1          -0.006583251   -0.000308784   -0.002457119
      3        1          -0.011501400    0.004969073    0.008013074
      4        1          -0.004208991   -0.004370473    0.003683460
      5        7          -0.030018279   -0.004286956    0.009186014
      6        7           0.008213320   -0.004667327   -0.006398092
 -------------------------------------------------------------------
 Cartesian Forces:  Max     0.044098601 RMS     0.014180370

 GradGradGradGradGradGradGradGradGradGradGradGradGradGradGradGradGradGrad
 Berny optimization.
 Using GEDIIS/GDIIS optimizer.
 FormGI is forming the generalized inverse of G from B-inverse, IUseBI=4.
 Internal  Forces:  Max     0.019961213 RMS     0.008507877
 Search for a local minimum.
 Step number   2 out of a maximum of   27
 All quantities printed in internal units (Hartrees-Bohrs-Radians)
 Mixed Optimization -- RFO/linear search
 Update second derivatives using D2CorX and points    1    2
 DE= -3.07D-03 DEPred=-8.98D-03 R= 3.42D-01
 Trust test= 3.42D-01 RLast= 3.08D-01 DXMaxT set to 3.00D-01
 The second derivative matrix:
                          R1        R2        R3        R4        R5
           R1           0.33865
           R2          -0.00928   0.26581
           R3          -0.00321  -0.00929   0.33862
           R4           0.01612   0.04446   0.01611   0.40641
           R5           0.00235  -0.00103   0.00237  -0.00925   0.83079
           A1           0.00043   0.00022   0.00043  -0.00184   0.00093
           A2          -0.00273  -0.00711  -0.00273   0.01345   0.00106
           A3          -0.00254  -0.00395  -0.00255   0.01165  -0.00225
           A4           0.00093   0.00042   0.00094  -0.00393   0.00207
           A5           0.00832   0.01819   0.00832  -0.03981   0.00098
           A6          -0.00279  -0.00410  -0.00279   0.01269  -0.00274
           A7          -0.00823   0.00585  -0.00829   0.03165  -0.02990
           A8          -0.00001   0.00000  -0.00001   0.00003  -0.00002
           D1           0.00233   0.00161   0.00233  -0.01000   0.00448
           D2           0.00004  -0.00064   0.00004   0.00006   0.00088
           D3          -0.00052  -0.00168  -0.00052   0.00266   0.00060
           D4          -0.00056  -0.00104  -0.00056   0.00260  -0.00028
                          A1        A2        A3        A4        A5
           A1           0.16011
           A2           0.00024   0.15777
           A3          -0.00020  -0.00175   0.15977
           A4           0.00024   0.00052  -0.00046   0.16053
           A5          -0.00019   0.00637   0.00351  -0.00036   0.14375
           A6          -0.00025  -0.00189  -0.00013  -0.00058   0.00365
           A7          -0.00362  -0.00345   0.00908  -0.00802  -0.00547
           A8           0.00000   0.00000   0.00000   0.00000   0.00000
           D1           0.00050   0.00136  -0.00085   0.00112  -0.00141
           D2           0.00011  -0.00006  -0.00036   0.00025   0.00058
           D3           0.00010  -0.00046  -0.00051   0.00021   0.00151
           D4          -0.00001  -0.00040  -0.00014  -0.00004   0.00093
                          A6        A7        A8        D1        D2
           A6           0.15999
           A7           0.01097   0.14746
           A8           0.00000   0.00006   0.03245
           D1          -0.00110  -0.01748  -0.00001   0.00465
           D2          -0.00042  -0.00333   0.00000   0.00056   0.01933
           D3          -0.00056  -0.00217   0.00000   0.00052   0.00003
           D4          -0.00014   0.00116   0.00000  -0.00004  -0.00006
                          D3        D4
           D3           0.01916
           D4          -0.00011   0.01919
 ITU=  0  0
 Use linear search instead of GDIIS.
     Eigenvalues ---    0.03245   0.05001   0.06616   0.08656   0.13976
     Eigenvalues ---    0.15482   0.16226   0.25478   0.33778   0.34185
     Eigenvalues ---    0.42875   0.83247
 RFO step:  Lambda=-7.39262246D-03 EMin= 3.24532548D-02
 Quartic linear search produced a step of -0.31139.
 Iteration  1 RMS(Cart)=  0.04876447 RMS(Int)=  0.00374803
 Iteration  2 RMS(Cart)=  0.00427155 RMS(Int)=  0.00127295
 Iteration  3 RMS(Cart)=  0.00000384 RMS(Int)=  0.00127294
 Iteration  4 RMS(Cart)=  0.00000001 RMS(Int)=  0.00127294
 Variable       Old X    -DE/DX   Delta X   Delta X   Delta X     New X
                                 (Linear)    (Quad)   (Total)
    R1        2.05412  -0.00352   0.00500  -0.02777  -0.02277   2.03135
    R2        2.13747  -0.01447   0.01172  -0.08239  -0.07067   2.06680
    R3        2.05417  -0.00351   0.00500  -0.02776  -0.02276   2.03141
    R4        2.66557   0.01831  -0.01655   0.09526   0.07871   2.74428
    R5        2.36439   0.00767   0.00081   0.00291   0.00371   2.36810
    A1        1.86881   0.00017   0.00014   0.01395   0.01500   1.88381
    A2        2.01079   0.00154   0.00789  -0.03926  -0.03467   1.97612
    A3        1.94245  -0.00496   0.00326  -0.04187  -0.04073   1.90172
    A4        1.86759   0.00067   0.00037   0.01362   0.01467   1.88226
    A5        1.81798   0.00921  -0.01871   0.11858   0.09979   1.91778
    A6        1.94249  -0.00520   0.00323  -0.04202  -0.04077   1.90172
    A7        2.48332  -0.01996  -0.08848  -0.08318  -0.17166   2.31167
    A8        3.14133  -0.00002  -0.00003  -0.00019  -0.00022   3.14111
    D1        2.07528   0.00163   0.00538   0.00331   0.00779   2.08306
    D2       -2.00796  -0.00296   0.00846  -0.06200  -0.05264  -2.06061
    D3        2.26867  -0.00640   0.01666  -0.12351  -0.10482   2.16385
    D4       -2.00655  -0.00344   0.00820  -0.06150  -0.05218  -2.05873
         Item               Value     Threshold  Converged?
 Maximum Force            0.019961     0.000450     NO 
 RMS     Force            0.008508     0.000300     NO 
 Maximum Displacement     0.144998     0.001800     NO 
 RMS     Displacement     0.049740     0.001200     NO 
 Predicted change in Energy=-4.189400D-03
 GradGradGradGradGradGradGradGradGradGradGradGradGradGradGradGradGradGrad

                          Input orientation:                          
 ---------------------------------------------------------------------
 Center     Atomic      Atomic             Coordinates (Angstroms)
 Number     Number       Type             X           Y           Z
 ---------------------------------------------------------------------
      1          6           0       -0.062648    0.002337    0.012419
      2          1           0        0.090935   -0.014208    1.076206
      3          1           0        0.909032   -0.135451   -0.470322
      4          1           0       -0.477962    0.928508   -0.341544
      5          7           0       -0.953965   -1.084508   -0.352599
      6          7           0       -0.804551   -2.091929   -1.082771
 ---------------------------------------------------------------------
                    Distance matrix (angstroms):
                    1          2          3          4          5
     1  C    0.000000
     2  H    1.074944   0.000000
     3  H    1.093703   1.753776   0.000000
     4  H    1.074973   1.795097   1.752811   0.000000
     5  N    1.452211   2.068537   2.094117   2.068559   0.000000
     6  N    2.477057   3.127299   2.671941   3.127157   1.253144
                    6
     6  N    0.000000
 Stoichiometry    CH3N2(1+,3)
 Framework group  C1[X(CH3N2)]
 Deg. of freedom    12
 Full point group                 C1      NOp   1
 Largest Abelian subgroup         C1      NOp   1
 Largest concise Abelian subgroup C1      NOp   1
                         Standard orientation:                         
 ---------------------------------------------------------------------
 Center     Atomic      Atomic             Coordinates (Angstroms)
 Number     Number       Type             X           Y           Z
 ---------------------------------------------------------------------
      1          6           0       -1.127027   -0.097281   -0.000176
      2          1           0       -1.615722    0.237182   -0.897292
      3          1           0       -1.134175   -1.190961   -0.000491
      4          1           0       -1.615628    0.235087    0.897804
      5          7           0        0.241836    0.387621    0.000310
      6          7           0        1.347833   -0.201566   -0.000162
 ---------------------------------------------------------------------
 Rotational constants (GHZ):     85.2188009     10.2604977      9.7305025
 Standard basis: 3-21G* (6D, 7F)
 There are    33 symmetry adapted cartesian basis functions of A   symmetry.
 There are    33 symmetry adapted basis functions of A   symmetry.
    33 basis functions,    54 primitive gaussians,    33 cartesian basis functions
    12 alpha electrons       10 beta electrons
       nuclear repulsion energy        63.7832982658 Hartrees.
 NAtoms=    6 NActive=    6 NUniq=    6 SFac= 1.00D+00 NAtFMM=   60 NAOKFM=F Big=F
 Integral buffers will be    131072 words long.
 Raffenetti 2 integral format.
 Two-electron integral symmetry is turned on.
 One-electron integrals computed using PRISM.
 NBasis=    33 RedAO= T EigKep=  2.38D-02  NBF=    33
 NBsUse=    33 1.00D-06 EigRej= -1.00D+00 NBFU=    33
 Initial guess from the checkpoint file:  "H3CN2cbs4m.chk"
 B after Tr=     0.000000    0.000000    0.000000
         Rot=    0.999991    0.000232   -0.000005    0.004253 Ang=   0.49 deg.
 Initial guess <Sx>= 0.0000 <Sy>= 0.0000 <Sz>= 1.0000 <S**2>= 2.0081 S= 1.0027
 ExpMin= 1.83D-01 ExpMax= 2.43D+02 ExpMxC= 2.43D+02 IAcc=1 IRadAn=         1 AccDes= 0.00D+00
 Harris functional with IExCor=  205 and IRadAn=       1 diagonalized for initial guess.
 HarFok:  IExCor=  205 AccDes= 0.00D+00 IRadAn=         1 IDoV= 1 UseB2=F ITyADJ=14
 ICtDFT=  3500011 ScaDFX=  1.000000  1.000000  1.000000  1.000000
 FoFCou: FMM=F IPFlag=           0 FMFlag=      100000 FMFlg1=           0
         NFxFlg=           0 DoJE=T BraDBF=F KetDBF=T FulRan=T
         wScrn=  0.000000 ICntrl=     500 IOpCl=  0 I1Cent=   200000004 NGrid=           0
         NMat0=    1 NMatS0=      1 NMatT0=    0 NMatD0=    1 NMtDS0=    0 NMtDT0=    0
 Petite list used in FoFCou.
 Keep R1 and R2 ints in memory in canonical form, NReq=1145210.
 Requested convergence on RMS density matrix=1.00D-08 within 128 cycles.
 Requested convergence on MAX density matrix=1.00D-06.
 Requested convergence on             energy=1.00D-06.
 No special actions if energy rises.
 SCF Done:  E(UHF) =  -147.196804265     A.U. after   25 cycles
            NFock= 25  Conv=0.23D-08     -V/T= 2.0030
 <Sx>= 0.0000 <Sy>= 0.0000 <Sz>= 1.0000 <S**2>= 2.0066 S= 1.0022
 <L.S>= 0.000000000000E+00
 Annihilation of the first spin contaminant:
 S**2 before annihilation     2.0066,   after     2.0000
 Calling FoFJK, ICntrl=      2127 FMM=F ISym2X=0 I1Cent= 0 IOpClX= 1 NMat=1 NMatS=1 NMatT=0.
 ***** Axes restored to original set *****
 -------------------------------------------------------------------
 Center     Atomic                   Forces (Hartrees/Bohr)
 Number     Number              X              Y              Z
 -------------------------------------------------------------------
      1        6           0.010090512    0.008948799    0.001800218
      2        1          -0.003429853    0.000261061    0.006111487
      3        1          -0.002074254   -0.008268607   -0.004562460
      4        1          -0.005807432    0.004046130    0.000473059
      5        7           0.002101934   -0.003338859   -0.003086377
      6        7          -0.000880908   -0.001648524   -0.000735927
 -------------------------------------------------------------------
 Cartesian Forces:  Max     0.010090512 RMS     0.004756628

 GradGradGradGradGradGradGradGradGradGradGradGradGradGradGradGradGradGrad
 Berny optimization.
 Using GEDIIS/GDIIS optimizer.
 FormGI is forming the generalized inverse of G from B-inverse, IUseBI=4.
 Internal  Forces:  Max     0.009944827 RMS     0.004015468
 Search for a local minimum.
 Step number   3 out of a maximum of   27
 All quantities printed in internal units (Hartrees-Bohrs-Radians)
 Mixed Optimization -- RFO/linear search
 Update second derivatives using D2CorX and points    1    2    3
 DE= -3.71D-03 DEPred=-4.19D-03 R= 8.85D-01
 TightC=F SS=  1.41D+00  RLast= 2.70D-01 DXNew= 5.0454D-01 8.1149D-01
 Trust test= 8.85D-01 RLast= 2.70D-01 DXMaxT set to 5.05D-01
 The second derivative matrix:
                          R1        R2        R3        R4        R5
           R1           0.35177
           R2           0.00354   0.26930
           R3           0.00994   0.00358   0.35180
           R4           0.00422   0.05490   0.00414   0.36115
           R5           0.00320   0.00251   0.00322  -0.01571   0.82963
           A1           0.00876   0.01398   0.00877  -0.02342  -0.00008
           A2          -0.00972  -0.02060  -0.00972   0.03674   0.00230
           A3           0.00171  -0.00306   0.00172   0.01547  -0.00087
           A4           0.01238   0.01833   0.01240  -0.03103   0.00093
           A5          -0.01380  -0.00182  -0.01386  -0.02315  -0.00117
           A6          -0.00017  -0.00542  -0.00016   0.01948  -0.00129
           A7          -0.00667   0.00444  -0.00672   0.03348  -0.02720
           A8          -0.00002  -0.00003  -0.00002   0.00007  -0.00001
           D1           0.01356   0.01648   0.01359  -0.02968   0.00404
           D2           0.00614   0.00697   0.00615  -0.00965   0.00084
           D3           0.00886   0.00983   0.00888  -0.01185   0.00064
           D4           0.00272   0.00285   0.00273  -0.00220  -0.00020
                          A1        A2        A3        A4        A5
           A1           0.16186
           A2           0.00005   0.15636
           A3           0.00449  -0.00633   0.15993
           A4           0.00329  -0.00053   0.00564   0.16549
           A5          -0.01516   0.01916  -0.00300  -0.02079   0.18063
           A6           0.00378  -0.00605  -0.00072   0.00454  -0.00001
           A7          -0.00137  -0.00517   0.00796  -0.00505  -0.00659
           A8           0.00000   0.00000  -0.00001  -0.00001   0.00003
           D1           0.00522  -0.00176   0.00420   0.00804  -0.02105
           D2           0.00294  -0.00205   0.00219   0.00433  -0.00997
           D3           0.00456  -0.00364   0.00334   0.00662  -0.01465
           D4           0.00162  -0.00160   0.00115   0.00229  -0.00469
                          A6        A7        A8        D1        D2
           A6           0.15882
           A7           0.00949   0.13944
           A8           0.00000   0.00005   0.03245
           D1           0.00281  -0.01485  -0.00002   0.01260
           D2           0.00148  -0.00234  -0.00001   0.00508   0.02186
           D3           0.00227  -0.00084  -0.00001   0.00755   0.00395
           D4           0.00079   0.00150   0.00000   0.00247   0.00133
                          D3        D4
           D3           0.02523
           D4           0.00204   0.01995
 ITU=  1  0  0
 Use linear search instead of GDIIS.
     Eigenvalues ---    0.03245   0.04821   0.06626   0.09776   0.13541
     Eigenvalues ---    0.16016   0.19730   0.25245   0.34185   0.36781
     Eigenvalues ---    0.39505   0.83143
 RFO step:  Lambda=-1.34898222D-03 EMin= 3.24532264D-02
 Quartic linear search produced a step of -0.12504.
 Iteration  1 RMS(Cart)=  0.02047260 RMS(Int)=  0.00051596
 Iteration  2 RMS(Cart)=  0.00042628 RMS(Int)=  0.00025969
 Iteration  3 RMS(Cart)=  0.00000008 RMS(Int)=  0.00025969
 Variable       Old X    -DE/DX   Delta X   Delta X   Delta X     New X
                                 (Linear)    (Quad)   (Total)
    R1        2.03135   0.00555   0.00285   0.00664   0.00948   2.04083
    R2        2.06680   0.00121   0.00884  -0.01922  -0.01038   2.05642
    R3        2.03141   0.00557   0.00285   0.00669   0.00954   2.04094
    R4        2.74428   0.00394  -0.00984   0.03114   0.02129   2.76558
    R5        2.36810   0.00165  -0.00046   0.00314   0.00267   2.37077
    A1        1.88381   0.00322  -0.00188   0.04371   0.04118   1.92499
    A2        1.97612  -0.00169   0.00434  -0.01651  -0.01236   1.96376
    A3        1.90172   0.00196   0.00509  -0.02036  -0.01507   1.88665
    A4        1.88226   0.00508  -0.00183   0.04543   0.04313   1.92539
    A5        1.91778  -0.00994  -0.01248  -0.03169  -0.04411   1.87367
    A6        1.90172   0.00095   0.00510  -0.02060  -0.01538   1.88634
    A7        2.31167   0.00272   0.02146   0.00163   0.02309   2.33476
    A8        3.14111  -0.00001   0.00003  -0.00038  -0.00036   3.14076
    D1        2.08306   0.00640  -0.00097   0.07504   0.07469   2.15775
    D2       -2.06061   0.00073   0.00658  -0.02246  -0.01586  -2.07647
    D3        2.16385  -0.00021   0.01311  -0.04691  -0.03391   2.12994
    D4       -2.05873  -0.00094   0.00652  -0.02445  -0.01805  -2.07678
         Item               Value     Threshold  Converged?
 Maximum Force            0.009945     0.000450     NO 
 RMS     Force            0.004015     0.000300     NO 
 Maximum Displacement     0.041036     0.001800     NO 
 RMS     Displacement     0.020307     0.001200     NO 
 Predicted change in Energy=-7.657105D-04
 GradGradGradGradGradGradGradGradGradGradGradGradGradGradGradGradGradGrad

                          Input orientation:                          
 ---------------------------------------------------------------------
 Center     Atomic      Atomic             Coordinates (Angstroms)
 Number     Number       Type             X           Y           Z
 ---------------------------------------------------------------------
      1          6           0       -0.047449    0.014601    0.014151
      2          1           0        0.080110   -0.006419    1.086347
      3          1           0        0.905340   -0.157166   -0.482729
      4          1           0       -0.489776    0.937193   -0.331702
      5          7           0       -0.938833   -1.084395   -0.359231
      6          7           0       -0.808550   -2.099064   -1.085447
 ---------------------------------------------------------------------
                    Distance matrix (angstroms):
                    1          2          3          4          5
     1  C    0.000000
     2  H    1.079962   0.000000
     3  H    1.088210   1.779250   0.000000
     4  H    1.080020   1.796117   1.779545   0.000000
     5  N    1.463479   2.071226   2.067844   2.071045   0.000000
     6  N    2.501194   3.144133   2.659258   3.144615   1.254558
                    6
     6  N    0.000000
 Stoichiometry    CH3N2(1+,3)
 Framework group  C1[X(CH3N2)]
 Deg. of freedom    12
 Full point group                 C1      NOp   1
 Largest Abelian subgroup         C1      NOp   1
 Largest concise Abelian subgroup C1      NOp   1
                         Standard orientation:                         
 ---------------------------------------------------------------------
 Center     Atomic      Atomic             Coordinates (Angstroms)
 Number     Number       Type             X           Y           Z
 ---------------------------------------------------------------------
      1          6           0       -1.141167   -0.103217    0.000037
      2          1           0       -1.621107    0.254888   -0.898705
      3          1           0       -1.106291   -1.190866    0.001566
      4          1           0       -1.621598    0.257823    0.897410
      5          7           0        0.240994    0.377827   -0.000128
      6          7           0        1.358434   -0.192476    0.000057
 ---------------------------------------------------------------------
 Rotational constants (GHZ):     86.9010558     10.1051843      9.6123257
 Standard basis: 3-21G* (6D, 7F)
 There are    33 symmetry adapted cartesian basis functions of A   symmetry.
 There are    33 symmetry adapted basis functions of A   symmetry.
    33 basis functions,    54 primitive gaussians,    33 cartesian basis functions
    12 alpha electrons       10 beta electrons
       nuclear repulsion energy        63.5453605240 Hartrees.
 NAtoms=    6 NActive=    6 NUniq=    6 SFac= 1.00D+00 NAtFMM=   60 NAOKFM=F Big=F
 Integral buffers will be    131072 words long.
 Raffenetti 2 integral format.
 Two-electron integral symmetry is turned on.
 One-electron integrals computed using PRISM.
 NBasis=    33 RedAO= T EigKep=  2.37D-02  NBF=    33
 NBsUse=    33 1.00D-06 EigRej= -1.00D+00 NBFU=    33
 Initial guess from the checkpoint file:  "H3CN2cbs4m.chk"
 B after Tr=     0.000000    0.000000    0.000000
         Rot=    0.999998    0.000998    0.000017   -0.001463 Ang=   0.20 deg.
 Initial guess <Sx>= 0.0000 <Sy>= 0.0000 <Sz>= 1.0000 <S**2>= 2.0065 S= 1.0022
 ExpMin= 1.83D-01 ExpMax= 2.43D+02 ExpMxC= 2.43D+02 IAcc=1 IRadAn=         1 AccDes= 0.00D+00
 Harris functional with IExCor=  205 and IRadAn=       1 diagonalized for initial guess.
 HarFok:  IExCor=  205 AccDes= 0.00D+00 IRadAn=         1 IDoV= 1 UseB2=F ITyADJ=14
 ICtDFT=  3500011 ScaDFX=  1.000000  1.000000  1.000000  1.000000
 FoFCou: FMM=F IPFlag=           0 FMFlag=      100000 FMFlg1=           0
         NFxFlg=           0 DoJE=T BraDBF=F KetDBF=T FulRan=T
         wScrn=  0.000000 ICntrl=     500 IOpCl=  0 I1Cent=   200000004 NGrid=           0
         NMat0=    1 NMatS0=      1 NMatT0=    0 NMatD0=    1 NMtDS0=    0 NMtDT0=    0
 Petite list used in FoFCou.
 Keep R1 and R2 ints in memory in canonical form, NReq=1145195.
 Requested convergence on RMS density matrix=1.00D-08 within 128 cycles.
 Requested convergence on MAX density matrix=1.00D-06.
 Requested convergence on             energy=1.00D-06.
 No special actions if energy rises.
 SCF Done:  E(UHF) =  -147.197750763     A.U. after   27 cycles
            NFock= 27  Conv=0.30D-08     -V/T= 2.0031
 <Sx>= 0.0000 <Sy>= 0.0000 <Sz>= 1.0000 <S**2>= 2.0062 S= 1.0021
 <L.S>= 0.000000000000E+00
 Annihilation of the first spin contaminant:
 S**2 before annihilation     2.0062,   after     2.0000
 Calling FoFJK, ICntrl=      2127 FMM=F ISym2X=0 I1Cent= 0 IOpClX= 1 NMat=1 NMatS=1 NMatT=0.
 ***** Axes restored to original set *****
 -------------------------------------------------------------------
 Center     Atomic                   Forces (Hartrees/Bohr)
 Number     Number              X              Y              Z
 -------------------------------------------------------------------
      1        6           0.002125875    0.005759522    0.002949049
      2        1          -0.000701446   -0.000090228    0.001494963
      3        1           0.001864464   -0.002849660   -0.002681522
      4        1          -0.001271500    0.000947612   -0.000091534
      5        7          -0.002666328   -0.002752519   -0.000730846
      6        7           0.000648935   -0.001014726   -0.000940109
 -------------------------------------------------------------------
 Cartesian Forces:  Max     0.005759522 RMS     0.002210935

 GradGradGradGradGradGradGradGradGradGradGradGradGradGradGradGradGradGrad
 Berny optimization.
 Using GEDIIS/GDIIS optimizer.
 FormGI is forming the generalized inverse of G from B-inverse, IUseBI=4.
 Internal  Forces:  Max     0.004484084 RMS     0.001794578
 Search for a local minimum.
 Step number   4 out of a maximum of   27
 All quantities printed in internal units (Hartrees-Bohrs-Radians)
 Mixed Optimization -- RFO/linear search
 Update second derivatives using D2CorX and points    1    2    3    4
 DE= -9.46D-04 DEPred=-7.66D-04 R= 1.24D+00
 TightC=F SS=  1.41D+00  RLast= 1.21D-01 DXNew= 8.4853D-01 3.6381D-01
 Trust test= 1.24D+00 RLast= 1.21D-01 DXMaxT set to 5.05D-01
 The second derivative matrix:
                          R1        R2        R3        R4        R5
           R1           0.34706
           R2          -0.00427   0.29019
           R3           0.00534  -0.00451   0.34731
           R4          -0.01012   0.04871  -0.01011   0.32882
           R5          -0.00104   0.00257  -0.00103  -0.02514   0.82731
           A1          -0.00488   0.01259  -0.00484  -0.05511  -0.00799
           A2          -0.00683  -0.01617  -0.00687   0.03943   0.00487
           A3           0.00787  -0.00755   0.00794   0.02844   0.00163
           A4           0.00054   0.01128   0.00065  -0.05999  -0.00716
           A5          -0.00008   0.00656  -0.00026   0.01507   0.00824
           A6           0.00454  -0.00636   0.00456   0.03003   0.00114
           A7          -0.00250  -0.00873  -0.00235   0.03206  -0.02782
           A8          -0.00005   0.00007  -0.00005   0.00006  -0.00001
           D1           0.02125  -0.00256   0.02151  -0.01522   0.00436
           D2           0.00550   0.00706   0.00550  -0.00690   0.00051
           D3           0.00540   0.01524   0.00532  -0.01027  -0.00015
           D4          -0.00010   0.00818  -0.00017  -0.00337  -0.00066
                          A1        A2        A3        A4        A5
           A1           0.13436
           A2           0.00603   0.15579
           A3           0.01429  -0.00891   0.15736
           A4          -0.02354   0.00477   0.01626   0.14052
           A5           0.01770   0.01202  -0.01618   0.00963   0.14450
           A6           0.01254  -0.00804  -0.00360   0.01338  -0.01092
           A7          -0.00436  -0.00982   0.01317  -0.00327  -0.00714
           A8           0.00001   0.00001  -0.00003  -0.00002   0.00005
           D1           0.01135  -0.00478   0.00546   0.01794  -0.03366
           D2           0.00356  -0.00177   0.00151   0.00443  -0.00994
           D3           0.00408  -0.00223   0.00163   0.00404  -0.01104
           D4           0.00052  -0.00046   0.00011  -0.00039  -0.00110
                          A6        A7        A8        D1        D2
           A6           0.15609
           A7           0.01166   0.14401
           A8          -0.00001  -0.00001   0.03245
           D1           0.00175   0.00254  -0.00010   0.02393
           D2           0.00112  -0.00026   0.00000   0.00304   0.02134
           D3           0.00185  -0.00138   0.00002   0.00027   0.00346
           D4           0.00073  -0.00113   0.00002  -0.00278   0.00136
                          D3        D4
           D3           0.02623
           D4           0.00354   0.02142
 ITU=  1  1  0  0
 Use linear search instead of GDIIS.
     Eigenvalues ---    0.03245   0.04347   0.06812   0.09384   0.12867
     Eigenvalues ---    0.15984   0.18285   0.26740   0.34185   0.34295
     Eigenvalues ---    0.38451   0.82995
 RFO step:  Lambda=-1.88651828D-04 EMin= 3.24533775D-02
 Quartic linear search produced a step of  0.35639.
 Iteration  1 RMS(Cart)=  0.01269405 RMS(Int)=  0.00023057
 Iteration  2 RMS(Cart)=  0.00015575 RMS(Int)=  0.00015351
 Iteration  3 RMS(Cart)=  0.00000001 RMS(Int)=  0.00015351
 Variable       Old X    -DE/DX   Delta X   Delta X   Delta X     New X
                                 (Linear)    (Quad)   (Total)
    R1        2.04083   0.00140   0.00338  -0.00016   0.00322   2.04405
    R2        2.05642   0.00331  -0.00370   0.01034   0.00664   2.06306
    R3        2.04094   0.00136   0.00340  -0.00035   0.00305   2.04399
    R4        2.76558   0.00448   0.00759   0.01714   0.02473   2.79031
    R5        2.37077   0.00143   0.00095   0.00151   0.00246   2.37323
    A1        1.92499   0.00084   0.01468   0.00459   0.01892   1.94390
    A2        1.96376  -0.00036  -0.00441  -0.00106  -0.00579   1.95797
    A3        1.88665   0.00069  -0.00537  -0.00009  -0.00549   1.88116
    A4        1.92539   0.00126   0.01537   0.00366   0.01877   1.94416
    A5        1.87367  -0.00312  -0.01572  -0.00824  -0.02395   1.84972
    A6        1.88634   0.00053  -0.00548   0.00056  -0.00497   1.88136
    A7        2.33476  -0.00126   0.00823  -0.02190  -0.01367   2.32109
    A8        3.14076   0.00001  -0.00013   0.00055   0.00042   3.14118
    D1        2.15775   0.00177   0.02662   0.00793   0.03485   2.19260
    D2       -2.07647   0.00034  -0.00565  -0.00087  -0.00646  -2.08293
    D3        2.12994   0.00028  -0.01209  -0.00100  -0.01302   2.11692
    D4       -2.07678  -0.00006  -0.00643  -0.00013  -0.00656  -2.08334
         Item               Value     Threshold  Converged?
 Maximum Force            0.004484     0.000450     NO 
 RMS     Force            0.001795     0.000300     NO 
 Maximum Displacement     0.032463     0.001800     NO 
 RMS     Displacement     0.012690     0.001200     NO 
 Predicted change in Energy=-1.637412D-04
 GradGradGradGradGradGradGradGradGradGradGradGradGradGradGradGradGradGrad

                          Input orientation:                          
 ---------------------------------------------------------------------
 Center     Atomic      Atomic             Coordinates (Angstroms)
 Number     Number       Type             X           Y           Z
 ---------------------------------------------------------------------
      1          6           0       -0.042946    0.021152    0.016629
      2          1           0        0.076843   -0.000034    1.091432
      3          1           0        0.902484   -0.174345   -0.493080
      4          1           0       -0.492606    0.943262   -0.326078
      5          7           0       -0.943826   -1.086927   -0.358636
      6          7           0       -0.799106   -2.098358   -1.088877
 ---------------------------------------------------------------------
                    Distance matrix (angstroms):
                    1          2          3          4          5
     1  C    0.000000
     2  H    1.081665   0.000000
     3  H    1.091723   1.795201   0.000000
     4  H    1.081633   1.795387   1.795330   0.000000
     5  N    1.476566   2.079856   2.063914   2.079982   0.000000
     6  N    2.507238   3.150238   2.636704   3.150755   1.255862
                    6
     6  N    0.000000
 Stoichiometry    CH3N2(1+,3)
 Framework group  C1[X(CH3N2)]
 Deg. of freedom    12
 Full point group                 C1      NOp   1
 Largest Abelian subgroup         C1      NOp   1
 Largest concise Abelian subgroup C1      NOp   1
                         Standard orientation:                         
 ---------------------------------------------------------------------
 Center     Atomic      Atomic             Coordinates (Angstroms)
 Number     Number       Type             X           Y           Z
 ---------------------------------------------------------------------
      1          6           0       -1.147402   -0.107818    0.000031
      2          1           0       -1.627105    0.257169   -0.898117
      3          1           0       -1.080453   -1.197486    0.000713
      4          1           0       -1.627716    0.258502    0.897270
      5          7           0        0.244498    0.384995   -0.000028
      6          7           0        1.358314   -0.195178    0.000021
 ---------------------------------------------------------------------
 Rotational constants (GHZ):     85.1486996     10.0701743      9.5584761
 Standard basis: 3-21G* (6D, 7F)
 There are    33 symmetry adapted cartesian basis functions of A   symmetry.
 There are    33 symmetry adapted basis functions of A   symmetry.
    33 basis functions,    54 primitive gaussians,    33 cartesian basis functions
    12 alpha electrons       10 beta electrons
       nuclear repulsion energy        63.3399806484 Hartrees.
 NAtoms=    6 NActive=    6 NUniq=    6 SFac= 1.00D+00 NAtFMM=   60 NAOKFM=F Big=F
 Integral buffers will be    131072 words long.
 Raffenetti 2 integral format.
 Two-electron integral symmetry is turned on.
 One-electron integrals computed using PRISM.
 NBasis=    33 RedAO= T EigKep=  2.41D-02  NBF=    33
 NBsUse=    33 1.00D-06 EigRej= -1.00D+00 NBFU=    33
 Initial guess from the checkpoint file:  "H3CN2cbs4m.chk"
 B after Tr=     0.000000    0.000000    0.000000
         Rot=    1.000000   -0.000322    0.000003   -0.000671 Ang=  -0.09 deg.
 Initial guess <Sx>= 0.0000 <Sy>= 0.0000 <Sz>= 1.0000 <S**2>= 2.0062 S= 1.0021
 ExpMin= 1.83D-01 ExpMax= 2.43D+02 ExpMxC= 2.43D+02 IAcc=1 IRadAn=         1 AccDes= 0.00D+00
 Harris functional with IExCor=  205 and IRadAn=       1 diagonalized for initial guess.
 HarFok:  IExCor=  205 AccDes= 0.00D+00 IRadAn=         1 IDoV= 1 UseB2=F ITyADJ=14
 ICtDFT=  3500011 ScaDFX=  1.000000  1.000000  1.000000  1.000000
 FoFCou: FMM=F IPFlag=           0 FMFlag=      100000 FMFlg1=           0
         NFxFlg=           0 DoJE=T BraDBF=F KetDBF=T FulRan=T
         wScrn=  0.000000 ICntrl=     500 IOpCl=  0 I1Cent=   200000004 NGrid=           0
         NMat0=    1 NMatS0=      1 NMatT0=    0 NMatD0=    1 NMtDS0=    0 NMtDT0=    0
 Petite list used in FoFCou.
 Keep R1 and R2 ints in memory in canonical form, NReq=1145167.
 Requested convergence on RMS density matrix=1.00D-08 within 128 cycles.
 Requested convergence on MAX density matrix=1.00D-06.
 Requested convergence on             energy=1.00D-06.
 No special actions if energy rises.
 SCF Done:  E(UHF) =  -147.197933769     A.U. after   23 cycles
            NFock= 23  Conv=0.69D-08     -V/T= 2.0033
 <Sx>= 0.0000 <Sy>= 0.0000 <Sz>= 1.0000 <S**2>= 2.0060 S= 1.0020
 <L.S>= 0.000000000000E+00
 Annihilation of the first spin contaminant:
 S**2 before annihilation     2.0060,   after     2.0000
 Calling FoFJK, ICntrl=      2127 FMM=F ISym2X=0 I1Cent= 0 IOpClX= 1 NMat=1 NMatS=1 NMatT=0.
 ***** Axes restored to original set *****
 -------------------------------------------------------------------
 Center     Atomic                   Forces (Hartrees/Bohr)
 Number     Number              X              Y              Z
 -------------------------------------------------------------------
      1        6           0.000197774    0.002571519    0.001693400
      2        1           0.000447670   -0.000583649   -0.000310042
      3        1           0.000076422   -0.000114947   -0.000124992
      4        1           0.000310934   -0.000365214   -0.000656484
      5        7          -0.001079362   -0.001616371   -0.000651023
      6        7           0.000046562    0.000108663    0.000049141
 -------------------------------------------------------------------
 Cartesian Forces:  Max     0.002571519 RMS     0.000915005

 GradGradGradGradGradGradGradGradGradGradGradGradGradGradGradGradGradGrad
 Berny optimization.
 Using GEDIIS/GDIIS optimizer.
 FormGI is forming the generalized inverse of G from B-inverse, IUseBI=4.
 Internal  Forces:  Max     0.001914546 RMS     0.000532009
 Search for a local minimum.
 Step number   5 out of a maximum of   27
 All quantities printed in internal units (Hartrees-Bohrs-Radians)
 Mixed Optimization -- En-DIIS/RFO-DIIS
 Update second derivatives using D2CorX and points    1    2    3    4    5
 DE= -1.83D-04 DEPred=-1.64D-04 R= 1.12D+00
 TightC=F SS=  1.41D+00  RLast= 6.09D-02 DXNew= 8.4853D-01 1.8272D-01
 Trust test= 1.12D+00 RLast= 6.09D-02 DXMaxT set to 5.05D-01
 The second derivative matrix:
                          R1        R2        R3        R4        R5
           R1           0.35069
           R2          -0.00335   0.28851
           R3           0.00886  -0.00368   0.35073
           R4          -0.01611   0.04385  -0.01619   0.29630
           R5           0.00163   0.00221   0.00156  -0.03118   0.82899
           A1          -0.00201   0.01424  -0.00208  -0.05049  -0.00622
           A2          -0.01179  -0.02132  -0.01168   0.03110   0.00057
           A3           0.00850  -0.00722   0.00854   0.02115   0.00241
           A4           0.00439   0.01316   0.00437  -0.05975  -0.00449
           A5          -0.00202   0.00870  -0.00207   0.03240   0.00771
           A6           0.00512  -0.00571   0.00511   0.02625   0.00182
           A7          -0.00356  -0.00196  -0.00348   0.03977  -0.02742
           A8          -0.00009   0.00003  -0.00009  -0.00001  -0.00005
           D1           0.02385  -0.00290   0.02404  -0.03478   0.00678
           D2           0.00457   0.00567   0.00459  -0.00872  -0.00037
           D3           0.00296   0.01266   0.00296  -0.00841  -0.00245
           D4          -0.00160   0.00699  -0.00163   0.00031  -0.00208
                          A1        A2        A3        A4        A5
           A1           0.13676
           A2           0.00188   0.15981
           A3           0.01562  -0.01024   0.15638
           A4          -0.02020  -0.00066   0.01736   0.14494
           A5           0.01433   0.01980  -0.01535   0.00619   0.14043
           A6           0.01367  -0.00901  -0.00423   0.01436  -0.01087
           A7          -0.00001  -0.00920   0.00971  -0.00108  -0.00994
           A8          -0.00001   0.00002  -0.00005  -0.00006   0.00012
           D1           0.01434  -0.00936   0.00405   0.02110  -0.03172
           D2           0.00269  -0.00126   0.00137   0.00338  -0.00818
           D3           0.00162  -0.00008   0.00178   0.00122  -0.00824
           D4          -0.00107   0.00118   0.00040  -0.00216  -0.00006
                          A6        A7        A8        D1        D2
           A6           0.15570
           A7           0.00950   0.14191
           A8          -0.00002   0.00003   0.03245
           D1           0.00088  -0.00516  -0.00015   0.02295
           D2           0.00103   0.00041   0.00000   0.00236   0.02131
           D3           0.00193   0.00207   0.00003  -0.00069   0.00356
           D4           0.00091   0.00166   0.00004  -0.00305   0.00149
                          D3        D4
           D3           0.02663
           D4           0.00382   0.02157
 ITU=  1  1  1  0  0
 Use linear search instead of GDIIS.
     Eigenvalues ---    0.03245   0.04547   0.07028   0.08600   0.12078
     Eigenvalues ---    0.15943   0.18482   0.26560   0.33139   0.34185
     Eigenvalues ---    0.38742   0.83219
 RFO step:  Lambda=-2.20379203D-05 EMin= 3.24521922D-02
 Quartic linear search produced a step of  0.13880.
 Iteration  1 RMS(Cart)=  0.00275249 RMS(Int)=  0.00001701
 Iteration  2 RMS(Cart)=  0.00000844 RMS(Int)=  0.00001452
 Iteration  3 RMS(Cart)=  0.00000000 RMS(Int)=  0.00001452
 Variable       Old X    -DE/DX   Delta X   Delta X   Delta X     New X
                                 (Linear)    (Quad)   (Total)
    R1        2.04405  -0.00025   0.00045  -0.00107  -0.00062   2.04343
    R2        2.06306   0.00015   0.00092  -0.00157  -0.00065   2.06241
    R3        2.04399  -0.00023   0.00042  -0.00101  -0.00058   2.04341
    R4        2.79031   0.00191   0.00343   0.00506   0.00850   2.79880
    R5        2.37323  -0.00011   0.00034  -0.00022   0.00013   2.37336
    A1        1.94390  -0.00015   0.00263  -0.00166   0.00092   1.94483
    A2        1.95797   0.00056  -0.00080   0.00693   0.00611   1.96407
    A3        1.88116  -0.00003  -0.00076  -0.00065  -0.00141   1.87975
    A4        1.94416  -0.00012   0.00261  -0.00181   0.00076   1.94492
    A5        1.84972  -0.00023  -0.00332  -0.00232  -0.00565   1.84407
    A6        1.88136  -0.00007  -0.00069  -0.00098  -0.00168   1.87969
    A7        2.32109  -0.00015  -0.00190  -0.00126  -0.00316   2.31793
    A8        3.14118   0.00001   0.00006   0.00023   0.00029   3.14147
    D1        2.19260   0.00014   0.00484   0.00173   0.00660   2.19920
    D2       -2.08293   0.00031  -0.00090   0.00350   0.00260  -2.08033
    D3        2.11692   0.00061  -0.00181   0.00735   0.00553   2.12245
    D4       -2.08334   0.00030  -0.00091   0.00385   0.00293  -2.08041
         Item               Value     Threshold  Converged?
 Maximum Force            0.001915     0.000450     NO 
 RMS     Force            0.000532     0.000300     NO 
 Maximum Displacement     0.004752     0.001800     NO 
 RMS     Displacement     0.002753     0.001200     NO 
 Predicted change in Energy=-1.368778D-05
 GradGradGradGradGradGradGradGradGradGradGradGradGradGradGradGradGradGrad

                          Input orientation:                          
 ---------------------------------------------------------------------
 Center     Atomic      Atomic             Coordinates (Angstroms)
 Number     Number       Type             X           Y           Z
 ---------------------------------------------------------------------
      1          6           0       -0.042582    0.023666    0.018273
      2          1           0        0.078203   -0.000446    1.092571
      3          1           0        0.900299   -0.176514   -0.493601
      4          1           0       -0.492329    0.944189   -0.327596
      5          7           0       -0.945774   -1.088043   -0.358412
      6          7           0       -0.796976   -2.098103   -1.089844
 ---------------------------------------------------------------------
                    Distance matrix (angstroms):
                    1          2          3          4          5
     1  C    0.000000
     2  H    1.081336   0.000000
     3  H    1.091380   1.795211   0.000000
     4  H    1.081324   1.798532   1.795256   0.000000
     5  N    1.481062   2.082485   2.063285   2.082434   0.000000
     6  N    2.509769   3.151037   2.632252   3.151091   1.255928
                    6
     6  N    0.000000
 Stoichiometry    CH3N2(1+,3)
 Framework group  C1[X(CH3N2)]
 Deg. of freedom    12
 Full point group                 C1      NOp   1
 Largest Abelian subgroup         C1      NOp   1
 Largest concise Abelian subgroup C1      NOp   1
                         Standard orientation:                         
 ---------------------------------------------------------------------
 Center     Atomic      Atomic             Coordinates (Angstroms)
 Number     Number       Type             X           Y           Z
 ---------------------------------------------------------------------
      1          6           0       -1.149870   -0.108011    0.000010
      2          1           0       -1.627613    0.255531   -0.899370
      3          1           0       -1.076343   -1.196912    0.000238
      4          1           0       -1.627668    0.255990    0.899162
      5          7           0        0.246064    0.386877   -0.000021
      6          7           0        1.358342   -0.196383    0.000008
 ---------------------------------------------------------------------
 Rotational constants (GHZ):     84.7280883     10.0543694      9.5409790
 Standard basis: 3-21G* (6D, 7F)
 There are    33 symmetry adapted cartesian basis functions of A   symmetry.
 There are    33 symmetry adapted basis functions of A   symmetry.
    33 basis functions,    54 primitive gaussians,    33 cartesian basis functions
    12 alpha electrons       10 beta electrons
       nuclear repulsion energy        63.2845625558 Hartrees.
 NAtoms=    6 NActive=    6 NUniq=    6 SFac= 1.00D+00 NAtFMM=   60 NAOKFM=F Big=F
 Integral buffers will be    131072 words long.
 Raffenetti 2 integral format.
 Two-electron integral symmetry is turned on.
 One-electron integrals computed using PRISM.
 NBasis=    33 RedAO= T EigKep=  2.42D-02  NBF=    33
 NBsUse=    33 1.00D-06 EigRej= -1.00D+00 NBFU=    33
 Initial guess from the checkpoint file:  "H3CN2cbs4m.chk"
 B after Tr=     0.000000    0.000000    0.000000
         Rot=    1.000000   -0.000172   -0.000017    0.000025 Ang=  -0.02 deg.
 Initial guess <Sx>= 0.0000 <Sy>= 0.0000 <Sz>= 1.0000 <S**2>= 2.0059 S= 1.0020
 Keep R1 and R2 ints in memory in canonical form, NReq=1145167.
 Requested convergence on RMS density matrix=1.00D-08 within 128 cycles.
 Requested convergence on MAX density matrix=1.00D-06.
 Requested convergence on             energy=1.00D-06.
 No special actions if energy rises.
 SCF Done:  E(UHF) =  -147.197952234     A.U. after   25 cycles
            NFock= 25  Conv=0.98D-08     -V/T= 2.0033
 <Sx>= 0.0000 <Sy>= 0.0000 <Sz>= 1.0000 <S**2>= 2.0059 S= 1.0020
 <L.S>= 0.000000000000E+00
 Annihilation of the first spin contaminant:
 S**2 before annihilation     2.0059,   after     2.0000
 Calling FoFJK, ICntrl=      2127 FMM=F ISym2X=0 I1Cent= 0 IOpClX= 1 NMat=1 NMatS=1 NMatT=0.
 ***** Axes restored to original set *****
 -------------------------------------------------------------------
 Center     Atomic                   Forces (Hartrees/Bohr)
 Number     Number              X              Y              Z
 -------------------------------------------------------------------
      1        6          -0.000345674    0.001039212    0.000840584
      2        1           0.000275028   -0.000273175   -0.000240240
      3        1           0.000339509    0.000115817   -0.000066332
      4        1           0.000255766   -0.000219626   -0.000309763
      5        7          -0.000474065   -0.000810422   -0.000342027
      6        7          -0.000050564    0.000148193    0.000117778
 -------------------------------------------------------------------
 Cartesian Forces:  Max     0.001039212 RMS     0.000440555

 GradGradGradGradGradGradGradGradGradGradGradGradGradGradGradGradGradGrad
 Berny optimization.
 Using GEDIIS/GDIIS optimizer.
 FormGI is forming the generalized inverse of G from B-inverse, IUseBI=4.
 Internal  Forces:  Max     0.000874047 RMS     0.000273527
 Search for a local minimum.
 Step number   6 out of a maximum of   27
 All quantities printed in internal units (Hartrees-Bohrs-Radians)
 Mixed Optimization -- En-DIIS/RFO-DIIS
 Swapping is turned off.
 Update second derivatives using D2CorX and points    1    2    3    4    5
                                                      6
 DE= -1.85D-05 DEPred=-1.37D-05 R= 1.35D+00
 TightC=F SS=  1.41D+00  RLast= 1.58D-02 DXNew= 8.4853D-01 4.7279D-02
 Trust test= 1.35D+00 RLast= 1.58D-02 DXMaxT set to 5.05D-01
 The second derivative matrix:
                          R1        R2        R3        R4        R5
           R1           0.35018
           R2          -0.00118   0.28981
           R3           0.00841  -0.00171   0.35034
           R4          -0.00353   0.02585  -0.00422   0.22414
           R5           0.00202   0.00318   0.00199  -0.02006   0.83055
           A1          -0.00367   0.01812  -0.00364  -0.02806  -0.00623
           A2          -0.00573  -0.03104  -0.00600  -0.03320   0.00291
           A3           0.00951  -0.00843   0.00955   0.02244   0.00371
           A4           0.00303   0.01661   0.00314  -0.03232  -0.00368
           A5          -0.00734   0.01425  -0.00720   0.05119   0.00227
           A6           0.00562  -0.00569   0.00560   0.02625   0.00235
           A7          -0.00578   0.00099  -0.00569   0.03883  -0.03021
           A8          -0.00003  -0.00007  -0.00003  -0.00020   0.00001
           D1           0.02568  -0.00614   0.02594  -0.02309   0.01007
           D2           0.00552   0.00316   0.00557  -0.00078   0.00148
           D3           0.00453   0.00852   0.00456   0.00517   0.00065
           D4          -0.00099   0.00535  -0.00101   0.00595  -0.00083
                          A1        A2        A3        A4        A5
           A1           0.13392
           A2           0.01171   0.12359
           A3           0.01702  -0.01153   0.15654
           A4          -0.02294   0.01020   0.01932   0.14282
           A5           0.00656   0.04101  -0.01728  -0.00426   0.13825
           A6           0.01441  -0.00936  -0.00439   0.01519  -0.01165
           A7          -0.00184  -0.00497   0.00803  -0.00465  -0.00708
           A8           0.00009  -0.00023  -0.00004   0.00008   0.00015
           D1           0.01612  -0.00945   0.00573   0.02483  -0.03933
           D2           0.00417  -0.00178   0.00208   0.00592  -0.01227
           D3           0.00430  -0.00131   0.00291   0.00564  -0.01492
           D4           0.00013   0.00046   0.00082  -0.00029  -0.00266
                          A6        A7        A8        D1        D2
           A6           0.15556
           A7           0.00886   0.14469
           A8          -0.00002   0.00001   0.03245
           D1           0.00098  -0.01082  -0.00008   0.02989
           D2           0.00095  -0.00145   0.00003   0.00587   0.02290
[...]
      6          7           0        1.358635   -0.197009    0.000000
 ---------------------------------------------------------------------
 Rotational constants (GHZ):     84.5620667     10.0414175      9.5288153
 Standard basis: CBSB1 (5D, 7F)
 There are   135 symmetry adapted cartesian basis functions of A   symmetry.
 There are   120 symmetry adapted basis functions of A   symmetry.
   120 basis functions,   180 primitive gaussians,   135 cartesian basis functions
    12 alpha electrons       10 beta electrons
       nuclear repulsion energy        63.2504635147 Hartrees.
 NAtoms=    6 NActive=    6 NUniq=    6 SFac= 1.00D+00 NAtFMM=   60 NAOKFM=F Big=F
 Integral buffers will be    131072 words long.
 Raffenetti 2 integral format.
 Two-electron integral symmetry is turned on.
 One-electron integrals computed using PRISM.
 NBasis=   120 RedAO= T EigKep=  1.76D-04  NBF=   120
 NBsUse=   120 1.00D-06 EigRej= -1.00D+00 NBFU=   120
 Initial guess from the checkpoint file:  "H3CN2cbs4m.chk"
 B after Tr=     0.000000    0.000000    0.000000
         Rot=    1.000000    0.000000    0.000000    0.000000 Ang=   0.00 deg.
 Initial guess <Sx>= 0.0000 <Sy>= 0.0000 <Sz>= 1.0000 <S**2>= 2.0121 S= 1.0040
 Keep R1 and R2 ints in memory in canonical form, NReq=54772592.
 Requested convergence on RMS density matrix=1.00D-08 within 128 cycles.
 Requested convergence on MAX density matrix=1.00D-06.
 Requested convergence on             energy=1.00D-06.
 No special actions if energy rises.
 SCF Done:  E(UHF) =  -148.090087125     A.U. after   17 cycles
            NFock= 17  Conv=0.35D-08     -V/T= 2.0012
 <Sx>= 0.0000 <Sy>= 0.0000 <Sz>= 1.0000 <S**2>= 2.0153 S= 1.0051
 <L.S>= 0.000000000000E+00
 Annihilation of the first spin contaminant:
 S**2 before annihilation     2.0153,   after     2.0001

 **********************************************************************

            Population analysis using the SCF density.

 **********************************************************************

 Orbital symmetries:
 Alpha Orbitals:
       Occupied  (A) (A) (A) (A) (A) (A) (A) (A) (A) (A) (A) (A)
       Virtual   (A) (A) (A) (A) (A) (A) (A) (A) (A) (A) (A) (A)
                 (A) (A) (A) (A) (A) (A) (A) (A) (A) (A) (A) (A)
                 (A) (A) (A) (A) (A) (A) (A) (A) (A) (A) (A) (A)
                 (A) (A) (A) (A) (A) (A) (A) (A) (A) (A) (A) (A)
                 (A) (A) (A) (A) (A) (A) (A) (A) (A) (A) (A) (A)
                 (A) (A) (A) (A) (A) (A) (A) (A) (A) (A) (A) (A)
                 (A) (A) (A) (A) (A) (A) (A) (A) (A) (A) (A) (A)
                 (A) (A) (A) (A) (A) (A) (A) (A) (A) (A) (A) (A)
                 (A) (A) (A) (A) (A) (A) (A) (A) (A) (A) (A) (A)
 Beta  Orbitals:
       Occupied  (A) (A) (A) (A) (A) (A) (A) (A) (A) (A)
       Virtual   (A) (A) (A) (A) (A) (A) (A) (A) (A) (A) (A) (A)
                 (A) (A) (A) (A) (A) (A) (A) (A) (A) (A) (A) (A)
                 (A) (A) (A) (A) (A) (A) (A) (A) (A) (A) (A) (A)
                 (A) (A) (A) (A) (A) (A) (A) (A) (A) (A) (A) (A)
                 (A) (A) (A) (A) (A) (A) (A) (A) (A) (A) (A) (A)
                 (A) (A) (A) (A) (A) (A) (A) (A) (A) (A) (A) (A)
                 (A) (A) (A) (A) (A) (A) (A) (A) (A) (A) (A) (A)
                 (A) (A) (A) (A) (A) (A) (A) (A) (A) (A) (A) (A)
                 (A) (A) (A) (A) (A) (A) (A) (A) (A) (A) (A) (A)
                 (A) (A)
 The electronic state is 3-A.
 Alpha  occ. eigenvalues --  -16.04817 -16.02802 -11.55048  -1.74582  -1.36751
 Alpha  occ. eigenvalues --   -1.14855  -1.04467  -0.95550  -0.92744  -0.85170
 Alpha  occ. eigenvalues --   -0.80733  -0.76637
 Alpha virt. eigenvalues --   -0.21304  -0.10530  -0.07037  -0.06505  -0.06318
 Alpha virt. eigenvalues --   -0.01909  -0.00953  -0.00482   0.00918   0.02739
 Alpha virt. eigenvalues --    0.03424   0.07818   0.07903   0.08240   0.08862
 Alpha virt. eigenvalues --    0.10701   0.13881   0.15896   0.20002   0.23655
 Alpha virt. eigenvalues --    0.30897   0.45788   0.47368   0.48407   0.54625
 Alpha virt. eigenvalues --    0.57540   0.63559   0.64926   0.65270   0.68567
 Alpha virt. eigenvalues --    0.69921   0.70887   0.73869   0.75343   0.79319
 Alpha virt. eigenvalues --    0.84015   0.88494   0.96661   1.00709   1.02837
 Alpha virt. eigenvalues --    1.10808   1.16582   1.28759   1.39529   1.43065
 Alpha virt. eigenvalues --    1.47646   1.48881   1.52392   1.63905   1.69004
 Alpha virt. eigenvalues --    1.83414   1.85450   1.86496   1.87469   1.99181
 Alpha virt. eigenvalues --    2.29062   2.30889   2.37389   2.38760   2.49090
 Alpha virt. eigenvalues --    2.89361   3.00600   3.17731   3.21329   3.27369
 Alpha virt. eigenvalues --    3.27714   3.35310   3.37491   3.38656   3.40915
 Alpha virt. eigenvalues --    3.48779   3.52548   3.54378   3.55838   3.59469
 Alpha virt. eigenvalues --    3.60180   3.70523   3.77004   3.79882   3.83891
 Alpha virt. eigenvalues --    3.89161   3.90471   4.00444   4.12152   4.14398
 Alpha virt. eigenvalues --    4.18261   4.37378   4.43249   4.55950   4.63411
 Alpha virt. eigenvalues --    4.75241   4.79429   4.82263   4.89773   4.94501
 Alpha virt. eigenvalues --    5.01920   5.02698   5.07212   5.22003   5.54348
 Alpha virt. eigenvalues --    5.58804   5.77710   5.91755   6.06684   6.74137
 Alpha virt. eigenvalues --   25.08494  36.50535  36.96523
  Beta  occ. eigenvalues --  -16.01714 -15.99001 -11.54835  -1.61842  -1.31008
  Beta  occ. eigenvalues --   -1.02955  -0.91320  -0.89601  -0.85303  -0.78722
  Beta virt. eigenvalues --   -0.33035  -0.17362  -0.13247  -0.08449  -0.06434
  Beta virt. eigenvalues --   -0.06424  -0.05880  -0.00917  -0.00726   0.00243
  Beta virt. eigenvalues --    0.02445   0.02955   0.04410   0.08095   0.08896
  Beta virt. eigenvalues --    0.09368   0.10648   0.11528   0.14220   0.19358
  Beta virt. eigenvalues --    0.20983   0.25840   0.35251   0.47325   0.47665
  Beta virt. eigenvalues --    0.50436   0.57776   0.58385   0.65458   0.65568
  Beta virt. eigenvalues --    0.69897   0.71820   0.74031   0.76647   0.77580
  Beta virt. eigenvalues --    0.77966   0.83233   0.88199   0.93036   0.99259
  Beta virt. eigenvalues --    1.04347   1.05878   1.15405   1.22099   1.31841
  Beta virt. eigenvalues --    1.40640   1.43453   1.48132   1.52989   1.54893
  Beta virt. eigenvalues --    1.65121   1.69676   1.84077   1.86568   1.89186
  Beta virt. eigenvalues --    1.92197   2.01536   2.29912   2.31037   2.38671
  Beta virt. eigenvalues --    2.39297   2.49765   2.90762   3.02502   3.18796
  Beta virt. eigenvalues --    3.23713   3.30297   3.31430   3.36996   3.39029
  Beta virt. eigenvalues --    3.39333   3.42567   3.51671   3.53443   3.56146
  Beta virt. eigenvalues --    3.58899   3.61965   3.65140   3.74953   3.78602
  Beta virt. eigenvalues --    3.86032   3.87422   3.90843   3.96774   4.03114
  Beta virt. eigenvalues --    4.14984   4.17551   4.21201   4.40537   4.46837
  Beta virt. eigenvalues --    4.56303   4.65233   4.83241   4.86161   4.88597
  Beta virt. eigenvalues --    4.94270   4.99356   5.05214   5.09777   5.14242
  Beta virt. eigenvalues --    5.23980   5.57078   5.63937   5.78926   5.95853
  Beta virt. eigenvalues --    6.09996   6.76793  25.08654  36.52795  36.98664
          Condensed to atoms (all electrons):
               1          2          3          4          5          6
     1  C    4.950055   0.410334   0.373516   0.410333   0.231981  -0.027549
     2  H    0.410334   0.448365  -0.016688  -0.033026  -0.032370  -0.006148
     3  H    0.373516  -0.016688   0.429284  -0.016687  -0.050891   0.040442
     4  H    0.410333  -0.033026  -0.016687   0.448365  -0.032370  -0.006148
     5  N    0.231981  -0.032370  -0.050891  -0.032370   6.041561   0.547698
     6  N   -0.027549  -0.006148   0.040442  -0.006148   0.547698   6.097519
          Atomic-Atomic Spin Densities.
               1          2          3          4          5          6
     1  C    0.054866   0.002548   0.005947   0.002549  -0.001298  -0.023093
     2  H    0.002548  -0.004117  -0.001953   0.001700  -0.000906  -0.000402
     3  H    0.005947  -0.001953   0.067311  -0.001953  -0.004463   0.006057
     4  H    0.002549   0.001700  -0.001953  -0.004116  -0.000906  -0.000402
     5  N   -0.001298  -0.000906  -0.004463  -0.000906   0.857944  -0.039548
     6  N   -0.023093  -0.000402   0.006057  -0.000402  -0.039548   1.140357
 Mulliken charges and spin densities:
               1          2
     1  C   -0.348669   0.041518
     2  H    0.229533  -0.003129
     3  H    0.241025   0.070946
     4  H    0.229534  -0.003128
     5  N    0.294390   0.810824
     6  N    0.354188   1.082969
 Sum of Mulliken charges =   1.00000   2.00000
 Mulliken charges and spin densities with hydrogens summed into heavy atoms:
               1          2
     1  C    0.351422   0.106208
     5  N    0.294390   0.810824
     6  N    0.354188   1.082969
 Electronic spatial extent (au):  <R**2>=            144.2267
 Charge=              1.0000 electrons
 Dipole moment (field-independent basis, Debye):
    X=             -1.4704    Y=              0.2559    Z=              0.0000  Tot=              1.4925
 Quadrupole moment (field-independent basis, Debye-Ang):
   XX=             -9.3285   YY=            -14.4264   ZZ=            -14.9199
   XY=              1.0134   XZ=              0.0000   YZ=              0.0000
 Traceless Quadrupole moment (field-independent basis, Debye-Ang):
   XX=              3.5631   YY=             -1.5347   ZZ=             -2.0283
   XY=              1.0134   XZ=              0.0000   YZ=              0.0000
 Octapole moment (field-independent basis, Debye-Ang**2):
  XXX=             -4.4556  YYY=             -0.8190  ZZZ=              0.0000  XYY=             -0.8999
  XXY=              0.8766  XXZ=              0.0000  XZZ=             -1.7333  YZZ=              0.9017
  YYZ=              0.0000  XYZ=              0.0000
 Hexadecapole moment (field-independent basis, Debye-Ang**3):
 XXXX=           -115.9689 YYYY=            -21.5451 ZZZZ=            -17.9176 XXXY=              1.3464
 XXXZ=              0.0000 YYYX=              3.1517 YYYZ=              0.0000 ZZZX=              0.0000
 ZZZY=              0.0000 XXYY=            -24.5871 XXZZ=            -20.0780 YYZZ=             -7.3594
 XXYZ=              0.0000 YYXZ=              0.0000 ZZXY=             -1.2628
 N-N= 6.325046351472D+01 E-N=-4.663819087247D+02  KE= 1.479053790694D+02
                          Isotropic Fermi Contact Couplings
        Atom                 a.u.       MegaHertz       Gauss      10(-4) cm-1
     1  C(13)              0.01406       7.90054       2.81911       2.63534
     2  H(1)              -0.00045      -1.00428      -0.35835      -0.33499
     3  H(1)               0.03722      83.18078      29.68097      27.74612
     4  H(1)              -0.00045      -1.00369      -0.35814      -0.33479
     5  N(14)              0.43303      69.95758      24.96260      23.33534
     6  N(14)              0.15384      24.85368       8.86841       8.29030
 --------------------------------------------------------
       Center         ----  Spin Dipole Couplings  ----
                      3XX-RR        3YY-RR        3ZZ-RR
 --------------------------------------------------------
     1   Atom        0.065163      0.034112     -0.099275
     2   Atom        0.022081     -0.017808     -0.004273
     3   Atom        0.012531      0.015380     -0.027912
     4   Atom        0.022081     -0.017808     -0.004272
     5   Atom       -0.969958      2.279243     -1.309285
     6   Atom       -0.274086      1.596942     -1.322856
 --------------------------------------------------------
                        XY            XZ            YZ
 --------------------------------------------------------
     1   Atom        0.097765      0.000001      0.000002
     2   Atom        0.001408      0.024301     -0.000557
     3   Atom        0.008955      0.000000      0.000000
     4   Atom        0.001408     -0.024301      0.000557
     5   Atom        0.382896      0.000005      0.000031
     6   Atom        1.687240      0.000019      0.000023
 --------------------------------------------------------


 ---------------------------------------------------------------------------------
              Anisotropic Spin Dipole Couplings in Principal Axis System
 ---------------------------------------------------------------------------------

       Atom             a.u.   MegaHertz   Gauss  10(-4) cm-1        Axes

              Baa    -0.0993   -13.322    -4.754    -4.444  0.0000  0.0000  1.0000
     1 C(13)  Bbb    -0.0494    -6.623    -2.363    -2.209 -0.6493  0.7605  0.0000
              Bcc     0.1486    19.944     7.117     6.653  0.7605  0.6493  0.0000
 
              Baa    -0.0196   -10.439    -3.725    -3.482 -0.4294  0.5670  0.7030
     2 H(1)   Bbb    -0.0170    -9.070    -3.236    -3.025  0.2778  0.8236 -0.4945
              Bcc     0.0366    19.508     6.961     6.507  0.8593  0.0170  0.5111
 
              Baa    -0.0279   -14.892    -5.314    -4.968  0.0000  0.0000  1.0000
     3 H(1)   Bbb     0.0049     2.608     0.931     0.870  0.7606 -0.6492  0.0000
              Bcc     0.0230    12.284     4.383     4.098  0.6492  0.7606  0.0000
 
              Baa    -0.0196   -10.439    -3.725    -3.482  0.4294 -0.5670  0.7030
     4 H(1)   Bbb    -0.0170    -9.070    -3.236    -3.025  0.2779  0.8235  0.4946
              Bcc     0.0366    19.508     6.961     6.507  0.8593  0.0170 -0.5111
 
              Baa    -1.3093   -50.496   -18.018   -16.844  0.0000  0.0000  1.0000
     5 N(14)  Bbb    -1.0145   -39.126   -13.961   -13.051  0.9933 -0.1155  0.0000
              Bcc     2.3238    89.622    31.979    29.895  0.1155  0.9933  0.0000
 
              Baa    -1.3229   -51.020   -18.205   -17.018 -0.0001  0.0000  1.0000
     6 N(14)  Bbb    -1.2678   -48.897   -17.448   -16.310  0.8617 -0.5075  0.0001
              Bcc     2.5907    99.916    35.653    33.328  0.5075  0.8617  0.0000
 

 ---------------------------------------------------------------------------------

 1\1\GINC-TC-NODE158\SP\UHF\CBSB1\C1H3N2(1+,3)\MAXB2\21-Oct-2016\0\\#N 
 Geom=AllCheck Guess=TCheck SCRF=Check HF/CBSB1 SCF=Tight\\ired\\1,3\C,
 0,-0.0428026241,0.0250074645,0.0192742677\H,0,0.0792183574,-0.00143814
 77,1.0930460203\H,0,0.9002486732,-0.175998423,-0.4932524332\H,0,-0.492
 059867,0.9444622418,-0.3290963608\N,0,-0.9469197499,-1.088882349,-0.35
 84178299\N,0,-0.7968430721,-2.0984011608,-1.0901642984\\Version=ES64L-
 G09RevD.01\State=3-A\HF=-148.0900871\S2=2.01533\S2-1=0.\S2A=2.000129\R
 MSD=3.454e-09\Dipole=0.1026498,0.4995612,0.2910318\Quadrupole=-0.31553
 41,1.2801763,-0.9646421,1.6515419,0.6194591,1.1910684\PG=C01 [X(C1H3N2
 )]\\@


          EVOLUTION
 IN THE BEGINNING GOD MADE MAN.
 HE WORKED THE DIRT WITH HIS HANDS.
 THEN GOD DECIDED TO GIVE MAN SCIENCE,
 MAN SHOULD BE USEFUL (LIKE AN APPLIANCE.)
 BUT SOON MAN'S KNOWLEDGE GREW TOO GREAT,
 TO THE HEADING SCIENCE HE COULDN'T RELATE
 SO GOD SAID "LETS HAVE DIFFERENT FIELDS,
 WE'LL DIVIDE THEM UP, SEE WHAT IT YIELDS."
 ENTER PHYSICS, CHEMISTRY, BIO
 THEY SPRANG UP AROUND THE NILE.
 BUT CHEMISTRY SURPASSED THE REST
 FAR AND AWAY IT WAS THE BEST.
 EXPERIMENT WAS GOD'S DECREE
 EXPERIMENT DID CHEMISTS WITH LOTS OF GLEE
 BUT SOON THEIR TESTS BEGAN TO BOG,
 THEY FOUND THEMSELVES DEEP IN A FOG.
 "GIVE US SOME HELP" THEY CRIED TO GOD.
 GOD LOOKED AROUND, THEN GAVE THE NOD.
 ENTER EINSTEIN, HEISENBERG, BOHR,
 REACTION PATHS WERE CLEAR ONCE MORE.
 WITH THEORISTS GOD SEND DIRECTION
 AND THEN HE STOPPED, HE'D MADE PERFECTION.
          -- THOMAS A. HOLME, 1981
 Diagonal vibrational polarizability:
        0.0000000       0.0000000       0.0000000

 Complete Basis Set (CBS) Extrapolation:
 M. R. Nyden and G. A. Petersson, JCP 75, 1843 (1981)
 G. A. Petersson and M. A. Al-Laham, JCP 94, 6081 (1991)
 G. A. Petersson, T. Tensfeldt, and J. A. Montgomery, JCP 94, 6091 (1991)
 J. A. Montgomery, J. W. Ochterski, and G. A. Petersson, JCP 101, 5900 (1994)

 Temperature=               298.150000 Pressure=                       1.000000
 E(ZPE)=                      0.040851 E(Thermal)=                     0.044931
 E(SCF)=                   -148.090087 DE(MP2)=                       -0.403027
 DE(CBS)=                    -0.105391 DE(MP34)=                      -0.028735
 DE(Int)=                     0.027809 DE(Empirical)=                 -0.098696
 CBS-4 (0 K)=              -148.657275 CBS-4 Energy=                -148.653195
 CBS-4 Enthalpy=           -148.652251 CBS-4 Free Energy=           -148.683201
 1\1\GINC-TC-NODE158\Mixed\CBS-4M\CBS-4M\C1H3N2(1+,3)\MAXB2\21-Oct-2016
 \0\\# cbs-4m geom=allcheck\\ired\\1,3\C,0,-0.0428026241,0.0250074645,0
 .0192742677\H,0,0.0792183574,-0.0014381477,1.0930460203\H,0,0.90024867
 32,-0.175998423,-0.4932524332\H,0,-0.492059867,0.9444622418,-0.3290963
 608\N,0,-0.9469197499,-1.088882349,-0.3584178299\N,0,-0.7968430721,-2.
 0984011608,-1.0901642984\\Version=ES64L-G09RevD.01\State=3-A\HF/CbsB1=
 -148.0900871\HF/CbsB2=-148.0494314\MP2/CbsB2=-148.4524586\E2(CBS)/CbsB
 2=-0.5084178\CBS-Int/CbsB2=0.0278093\OIii/CbsB2=4.2318844\MP2/6-31G=-1
 48.2277127\MP4(SDQ)/6-31G=-148.2564477\CBS4M=-148.6572754\FreqCoord=-0
 .0808852373,0.0472572591,0.0364230874,0.1497010001,-0.0027177053,2.065
 5576289,1.7012234439,-0.3325888192,-0.9321120132,-0.9298583896,1.78477
 49799,-0.6219019933,-1.7894189971,-2.0576894306,-0.6773115397,-1.50581
 51771,-3.9654035108,-2.0601119638\PG=C01 [X(C1H3N2)]\NImag=0\\0.449120
 68,-0.16184218,0.44986564,-0.04549885,-0.03738678,0.59725795,-0.050239
 85,0.00503332,-0.02315008,0.06004635,-0.00110888,-0.05225248,0.0151327
 2,0.00656040,0.06094770,-0.02831361,0.01159386,-0.34957932,0.03600575,
 -0.00773869,0.37690591,-0.23675441,0.05360459,0.11469236,0.00555477,0.
 00077147,-0.00360841,0.27805678,0.04726307,-0.05911530,-0.03170255,0.0
 0156979,-0.00005300,0.00186062,-0.04078660,0.06710883,0.11047450,-0.03
 425004,-0.10715664,0.03179396,-0.00454031,-0.01382303,-0.12068958,0.03
 099168,0.11424259,-0.10840527,0.11671875,-0.04268404,-0.00095969,0.003
 43535,0.00095308,-0.01013895,0.02785661,-0.01061637,0.11692226,0.10914
 611,-0.26027516,0.08220425,0.00058078,0.00451756,-0.00008327,0.0015011
 2,-0.00176160,0.00281154,-0.11099730,0.29432072,-0.04664326,0.08023272
 ,-0.08337656,-0.01396046,0.03171607,-0.00734245,0.00672551,-0.01449692
 ,0.00357852,0.04849933,-0.08664920,0.08664314,-0.07110409,0.00087517,0
 .01484904,-0.01289129,-0.00567924,-0.00520626,-0.03863097,-0.03985573,
 -0.01363506,0.00569138,0.00196728,0.00682749,0.16516183,-0.00728119,-0
 .08123262,-0.02743674,-0.01061315,-0.01534312,-0.00662275,-0.00883170,
 -0.00712013,0.00319087,-0.03555954,-0.03764374,-0.01205453,-0.02035278
 ,0.56750994,0.00942479,-0.03071222,-0.05980116,-0.03117018,-0.03611137
 ,-0.00690519,0.00699964,0.01565316,0.00101666,0.00454915,0.00037644,-0
 .00318716,-0.06318904,0.35800057,0.30505815,0.01738295,-0.01438965,-0.
 01820842,-0.00151029,-0.00397909,0.00016944,0.00191277,0.00395286,0.00
 267256,-0.00310973,-0.00219799,-0.00144861,-0.04822686,0.08263836,0.07
 338564,0.03355116,0.01382307,0.00300992,-0.00081090,-0.00313115,0.0021
 8334,0.00099022,-0.00625887,0.00094120,0.00179626,-0.00145386,0.000842
 21,0.00125185,0.06304530,-0.42617034,-0.30720658,-0.06602449,0.4191936
 6,0.00055644,0.01052245,0.00265572,0.00048101,0.00154157,0.00074408,-0
 .00411952,-0.00230600,0.00214189,-0.00070114,0.00134025,0.00368451,0.0
 6035383,-0.31507742,-0.23618130,-0.05657061,0.30397915,0.22695510\\-0.
 00001887,-0.00005016,-0.00001902,-0.00004223,0.00000573,0.00007653,0.0
 0005415,-0.00009705,-0.00008687,-0.00007224,0.00005630,0.00000480,0.00
 004306,0.00013674,0.00007344,0.00003613,-0.00005155,-0.00004888\\\@
 Job cpu time:       0 days  0 hours  0 minutes 19.7 seconds.
 File lengths (MBytes):  RWF=     46 Int=      0 D2E=      0 Chk=      3 Scr=      1
 Normal termination of Gaussian 09 at Fri Oct 21 11:35:38 2016.
