 Entering Gaussian System, Link 0=g09
 Initial command:
 /cluster/software/gaussian/gaussian-09-D.01/g09/l1.exe "/local/scratch/maxb2/Gau-31756.inp" -scrdir="/local/scratch/maxb2/"
 Entering Link 1 = /cluster/software/gaussian/gaussian-09-D.01/g09/l1.exe PID=     31757.
  
 Copyright (c) 1988,1990,1992,1993,1995,1998,2003,2009,2013,
            Gaussian, Inc.  All Rights Reserved.
  
 This is part of the Gaussian(R) 09 program.  It is based on
 the Gaussian(R) 03 system (copyright 2003, Gaussian, Inc.),
 the Gaussian(R) 98 system (copyright 1998, Gaussian, Inc.),
 the Gaussian(R) 94 system (copyright 1995, Gaussian, Inc.),
 the Gaussian 92(TM) system (copyright 1992, Gaussian, Inc.),
 the Gaussian 90(TM) system (copyright 1990, Gaussian, Inc.),
 the Gaussian 88(TM) system (copyright 1988, Gaussian, Inc.),
 the Gaussian 86(TM) system (copyright 1986, Carnegie Mellon
 University), and the Gaussian 82(TM) system (copyright 1983,
 Carnegie Mellon University). Gaussian is a federally registered
 trademark of Gaussian, Inc.
  
 This software contains proprietary and confidential information,
 including trade secrets, belonging to Gaussian, Inc.
  
 This software is provided under written license and may be
 used, copied, transmitted, or stored only in accord with that
 written license.
  
 The following legend is applicable only to US Government
 contracts under FAR:
  
                    RESTRICTED RIGHTS LEGEND
  
 Use, reproduction and disclosure by the US Government is
 subject to restrictions as set forth in subparagraphs (a)
 and (c) of the Commercial Computer Software - Restricted
 Rights clause in FAR 52.227-19.
  
 Gaussian, Inc.
 340 Quinnipiac St., Bldg. 40, Wallingford CT 06492
  
  
 ---------------------------------------------------------------
 Warning -- This program may not be used in any manner that
 competes with the business of Gaussian, Inc. or will provide
 assistance to any competitor of Gaussian, Inc.  The licensee
 of this program is prohibited from giving any competitor of
 Gaussian, Inc. access to this program.  By using this program,
 the user acknowledges that Gaussian, Inc. is engaged in the
 business of creating and licensing software in the field of
 computational chemistry and represents and warrants to the
 licensee that it is not a competitor of Gaussian, Inc. and that
 it will not use this program in any manner prohibited above.
 ---------------------------------------------------------------
  

 Cite this work as:
 Gaussian 09, Revision D.01,
 M. J. Frisch, G. W. Trucks, H. B. Schlegel, G. E. Scuseria, 
 M. A. Robb, J. R. Cheeseman, G. Scalmani, V. Barone, B. Mennucci, 
 G. A. Petersson, H. Nakatsuji, M. Caricato, X. Li, H. P. Hratchian, 
 A. F. Izmaylov, J. Bloino, G. Zheng, J. L. Sonnenberg, M. Hada, 
 M. Ehara, K. Toyota, R. Fukuda, J. Hasegawa, M. Ishida, T. Nakajima, 
 Y. Honda, O. Kitao, H. Nakai, T. Vreven, J. A. Montgomery, Jr., 
 J. E. Peralta, F. Ogliaro, M. Bearpark, J. J. Heyd, E. Brothers, 
 K. N. Kudin, V. N. Staroverov, T. Keith, R. Kobayashi, J. Normand, 
 K. Raghavachari, A. Rendell, J. C. Burant, S. S. Iyengar, J. Tomasi, 
 M. Cossi, N. Rega, J. M. Millam, M. Klene, J. E. Knox, J. B. Cross, 
 V. Bakken, C. Adamo, J. Jaramillo, R. Gomperts, R. E. Stratmann, 
 O. Yazyev, A. J. Austin, R. Cammi, C. Pomelli, J. W. Ochterski, 
 R. L. Martin, K. Morokuma, V. G. Zakrzewski, G. A. Voth, 
 P. Salvador, J. J. Dannenberg, S. Dapprich, A. D. Daniels, 
 O. Farkas, J. B. Foresman, J. V. Ortiz, J. Cioslowski, 
 and D. J. Fox, Gaussian, Inc., Wallingford CT, 2013.
 
 ******************************************
 Gaussian 09:  ES64L-G09RevD.01 24-Apr-2013
                25-Oct-2016 
 ******************************************
 %nprocshared=8
 Will use up to    8 processors via shared memory.
 %mem=4gb
 %chk=H3CN2cbs4m
 %oldchk=H3CN2opt.chk
 Copying data from "H3CN2opt.chk" to current chk file "H3CN2cbs4m.chk".
 ------------------
 # g4 geom=allcheck
 ------------------
 1/14=-1,18=20,19=15,26=3,29=7,38=1/1,3;
 2/9=110,12=2,40=1/2;
 3/5=35,7=104,11=2,14=-4,16=1,25=1,30=1,71=1,74=-5/1,2,3;
 4//1;
 5/5=2,38=5/2;
 6/7=2,8=2,9=2,10=2,28=1/1;
 7//1,2,3,16;
 1/14=-1,18=20,19=15,26=3/3(2);
 2/9=110/2;
 99//99;
 2/9=110/2;
 3/5=35,7=104,11=2,14=-2,16=1,25=1,30=1,71=1,74=-5/1,2,3;
 4/5=5,16=3,69=1/1;
 5/5=2,38=5/2;
 7//1,2,3,16;
 1/14=-1,18=20,19=15,26=3/3(-5);
 2/9=110/2;
 6/7=2,8=2,9=2,10=2,19=2,28=1/1;
 99/9=1/99;
 Structure from the checkpoint file:  "H3CN2cbs4m.chk"
 -------------------
 Title Card Required
 -------------------
 Charge =  1 Multiplicity = 1
 Redundant internal coordinates found in file.
 C,0,0.0130118632,0.0225372208,0.0092007927
 H,0,-0.020286015,-0.0351369171,1.0981152523
 H,0,1.0285505784,-0.0351375747,-0.3851651427
 H,0,-0.5447051605,0.8731824737,-0.3851646856
 N,0,-0.6748985965,-1.1689578454,-0.4772243512
 N,0,-1.2022150489,-2.0822961187,-0.8500926187
 Recover connectivity data from disk.

 GradGradGradGradGradGradGradGradGradGradGradGradGradGradGradGradGradGrad
 Berny optimization.
 Initialization pass.
                           ----------------------------
                           !    Initial Parameters    !
                           ! (Angstroms and Degrees)  !
 --------------------------                            --------------------------
 ! Name  Definition              Value          Derivative Info.                !
 --------------------------------------------------------------------------------
 ! R1    R(1,2)                  1.0909         estimate D2E/DX2                !
 ! R2    R(1,3)                  1.0909         estimate D2E/DX2                !
 ! R3    R(1,4)                  1.0909         estimate D2E/DX2                !
 ! R4    R(1,5)                  1.4593         estimate D2E/DX2                !
 ! R5    R(5,6)                  1.1186         estimate D2E/DX2                !
 ! A1    A(2,1,3)              112.7327         estimate D2E/DX2                !
 ! A2    A(2,1,4)              112.7327         estimate D2E/DX2                !
 ! A3    A(2,1,5)              105.9714         estimate D2E/DX2                !
 ! A4    A(3,1,4)              112.7327         estimate D2E/DX2                !
 ! A5    A(3,1,5)              105.9714         estimate D2E/DX2                !
 ! A6    A(4,1,5)              105.9714         estimate D2E/DX2                !
 ! A7    L(1,5,6,2,-1)         180.0            estimate D2E/DX2                !
 ! A8    L(1,5,6,2,-2)         180.0            estimate D2E/DX2                !
 ! D1    D(2,1,4,3)            129.0362         estimate D2E/DX2                !
 ! D2    D(2,1,5,3)           -120.0            estimate D2E/DX2                !
 ! D3    D(2,1,5,4)            120.0            estimate D2E/DX2                !
 ! D4    D(3,1,5,4)           -120.0            estimate D2E/DX2                !
 --------------------------------------------------------------------------------
 Trust Radius=3.00D-01 FncErr=1.00D-07 GrdErr=1.00D-06
 Number of steps in this run=     27 maximum allowed number of steps=    100.
 GradGradGradGradGradGradGradGradGradGradGradGradGradGradGradGradGradGrad

                          Input orientation:                          
 ---------------------------------------------------------------------
 Center     Atomic      Atomic             Coordinates (Angstroms)
 Number     Number       Type             X           Y           Z
 ---------------------------------------------------------------------
      1          6           0        0.013012    0.022537    0.009201
      2          1           0       -0.020286   -0.035137    1.098115
      3          1           0        1.028551   -0.035138   -0.385165
      4          1           0       -0.544705    0.873182   -0.385165
      5          7           0       -0.674899   -1.168958   -0.477224
      6          7           0       -1.202215   -2.082296   -0.850093
 ---------------------------------------------------------------------
                    Distance matrix (angstroms):
                    1          2          3          4          5
     1  C    0.000000
     2  H    1.090949   0.000000
     3  H    1.090949   1.816639   0.000000
     4  H    1.090949   1.816639   1.816639   0.000000
     5  N    1.459277   2.048356   2.048356   2.048356   0.000000
     6  N    2.577884   3.063222   3.063222   3.063222   1.118606
                    6
     6  N    0.000000
 Stoichiometry    CH3N2(1+)
 Framework group  C3V[C3(CNN),3SGV(H)]
 Deg. of freedom     4
 Full point group                 C3V     NOp   6
 Largest Abelian subgroup         CS      NOp   2
 Largest concise Abelian subgroup CS      NOp   2
                         Standard orientation:                         
 ---------------------------------------------------------------------
 Center     Atomic      Atomic             Coordinates (Angstroms)
 Number     Number       Type             X           Y           Z
 ---------------------------------------------------------------------
      1          6           0        0.000000    0.000000   -1.189547
      2          1           0        0.000000    1.048837   -1.489730
      3          1           0        0.908320   -0.524419   -1.489730
      4          1           0       -0.908320   -0.524419   -1.489730
      5          7           0        0.000000    0.000000    0.269731
      6          7           0        0.000000    0.000000    1.388337
 ---------------------------------------------------------------------
 Rotational constants (GHZ):    151.9478522      9.5526338      9.5526338
 Standard basis: GTBas3 (6D, 7F)
 There are    72 symmetry adapted cartesian basis functions of A'  symmetry.
 There are    36 symmetry adapted cartesian basis functions of A"  symmetry.
 There are    66 symmetry adapted basis functions of A'  symmetry.
 There are    33 symmetry adapted basis functions of A"  symmetry.
    99 basis functions,   153 primitive gaussians,   108 cartesian basis functions
    11 alpha electrons       11 beta electrons
       nuclear repulsion energy        65.6903409458 Hartrees.
 NAtoms=    6 NActive=    6 NUniq=    4 SFac= 2.25D+00 NAtFMM=   60 NAOKFM=F Big=F
 Integral buffers will be    131072 words long.
 Raffenetti 2 integral format.
 Two-electron integral symmetry is turned on.
 One-electron integrals computed using PRISM.
 NBasis=    99 RedAO= T EigKep=  4.77D-04  NBF=    66    33
 NBsUse=    99 1.00D-06 EigRej= -1.00D+00 NBFU=    66    33
 ExpMin= 1.61D-01 ExpMax= 4.17D+03 ExpMxC= 6.27D+02 IAcc=1 IRadAn=         1 AccDes= 0.00D+00
 Harris functional with IExCor=  402 and IRadAn=       1 diagonalized for initial guess.
 HarFok:  IExCor=  402 AccDes= 0.00D+00 IRadAn=         1 IDoV= 1 UseB2=F ITyADJ=14
 ICtDFT=  3500011 ScaDFX=  1.000000  1.000000  1.000000  1.000000
 FoFCou: FMM=F IPFlag=           0 FMFlag=      100000 FMFlg1=           0
         NFxFlg=           0 DoJE=T BraDBF=F KetDBF=T FulRan=T
         wScrn=  0.000000 ICntrl=     500 IOpCl=  0 I1Cent=   200000004 NGrid=           0
         NMat0=    1 NMatS0=      1 NMatT0=    0 NMatD0=    1 NMtDS0=    0 NMtDT0=    0
 Petite list used in FoFCou.
 Initial guess orbital symmetries:
       Occupied  (A1) (A1) (A1) (A1) (A1) (A1) (E) (E) (A1) (E)
                 (E)
       Virtual   (E) (E) (A1) (A1) (E) (E) (A1) (A1) (E) (E) (A1)
                 (E) (E) (E) (E) (E) (E) (A1) (A1) (E) (E) (E)
                 (E) (A1) (E) (E) (A1) (E) (E) (A1) (A1) (E) (E)
                 (E) (E) (A1) (A2) (A1) (E) (E) (A1) (A1) (E) (E)
                 (E) (E) (A1) (A1) (E) (E) (A2) (A1) (A1) (E) (E)
                 (E) (E) (A2) (E) (E) (A1) (A2) (E) (E) (E) (E)
                 (A1) (E) (E) (E) (E) (A1) (E) (E) (E) (E) (A1)
                 (E) (E) (A1) (A1) (E) (E) (A1) (A1) (A1) (A1)
                 (A1)
 The electronic state of the initial guess is 1-A1.
 Keep R1 ints in memory in symmetry-blocked form, NReq=18536690.
 Requested convergence on RMS density matrix=1.00D-08 within 128 cycles.
 Requested convergence on MAX density matrix=1.00D-06.
 Requested convergence on             energy=1.00D-06.
 No special actions if energy rises.
 Integral accuracy reduced to 1.0D-05 until final iterations.
 Initial convergence to 1.0D-05 achieved.  Increase integral accuracy.
 SCF Done:  E(RB3LYP) =  -149.093993607     A.U. after   13 cycles
            NFock= 13  Conv=0.33D-08     -V/T= 2.0091

 **********************************************************************

            Population analysis using the SCF density.

 **********************************************************************

 Orbital symmetries:
       Occupied  (A1) (A1) (A1) (A1) (A1) (A1) (E) (E) (A1) (E)
                 (E)
       Virtual   (E) (E) (A1) (A1) (E) (E) (A1) (A1) (E) (E) (A1)
                 (E) (E) (E) (E) (E) (E) (E) (E) (A1) (A1) (E)
                 (E) (A1) (E) (E) (E) (E) (A1) (A1) (A1) (E) (E)
                 (E) (E) (A1) (A2) (A1) (E) (E) (A1) (A1) (E) (E)
                 (E) (E) (A1) (A1) (E) (E) (A2) (A1) (A1) (E) (E)
                 (E) (E) (A2) (A1) (E) (E) (A2) (E) (E) (E) (E)
                 (E) (E) (A1) (A1) (E) (E) (E) (E) (E) (E) (E)
                 (E) (A1) (A1) (A1) (E) (E) (A1) (A1) (A1) (A1)
                 (A1)
 The electronic state is 1-A1.
 Alpha  occ. eigenvalues --  -14.78410 -14.76217 -10.52991  -1.42812  -1.11565
 Alpha  occ. eigenvalues --   -0.85257  -0.79352  -0.79352  -0.74546  -0.68429
 Alpha  occ. eigenvalues --   -0.68429
 Alpha virt. eigenvalues --   -0.33043  -0.33043  -0.16652  -0.12641  -0.07280
 Alpha virt. eigenvalues --   -0.07280   0.05041   0.21159   0.23506   0.23506
 Alpha virt. eigenvalues --    0.31558   0.33064   0.33064   0.41723   0.41723
 Alpha virt. eigenvalues --    0.47210   0.47210   0.47361   0.47361   0.48142
 Alpha virt. eigenvalues --    0.54424   0.61928   0.61928   0.75458   0.83621
 Alpha virt. eigenvalues --    0.83621   1.04021   1.04021   1.04286   1.06900
 Alpha virt. eigenvalues --    1.24127   1.40452   1.40452   1.47884   1.47884
 Alpha virt. eigenvalues --    1.51231   1.64020   1.86193   2.03426   2.03426
 Alpha virt. eigenvalues --    2.08356   2.42611   2.50844   2.50844   2.61595
 Alpha virt. eigenvalues --    2.61595   2.61774   2.81492   2.94324   2.94324
 Alpha virt. eigenvalues --    2.97387   2.98814   3.19798   3.21234   3.21234
 Alpha virt. eigenvalues --    3.23531   3.23531   3.38828   3.45328   3.48082
 Alpha virt. eigenvalues --    3.48082   3.57054   3.69294   3.69294   3.76518
 Alpha virt. eigenvalues --    3.76518   3.85882   3.85882   3.87938   4.04869
 Alpha virt. eigenvalues --    4.11568   4.11568   4.38147   4.38147   4.46806
 Alpha virt. eigenvalues --    4.46806   4.63762   4.63762   4.63794   4.88780
 Alpha virt. eigenvalues --    5.19045   5.26023   5.26023   6.09728   9.20541
 Alpha virt. eigenvalues --   10.77430  11.26943  11.97815
          Condensed to atoms (all electrons):
               1          2          3          4          5          6
     1  C    4.939568   0.366682   0.366682   0.366682   0.294321  -0.030512
     2  H    0.366682   0.394476  -0.015967  -0.015967  -0.014893  -0.000129
     3  H    0.366682  -0.015967   0.394476  -0.015967  -0.014893  -0.000129
     4  H    0.366682  -0.015967  -0.015967   0.394476  -0.014893  -0.000129
     5  N    0.294321  -0.014893  -0.014893  -0.014893   5.588482   0.796850
     6  N   -0.030512  -0.000129  -0.000129  -0.000129   0.796850   6.153046
 Mulliken charges:
               1
     1  C   -0.303422
     2  H    0.285798
     3  H    0.285798
     4  H    0.285798
     5  N    0.365026
     6  N    0.081003
 Sum of Mulliken charges =   1.00000
 Mulliken charges with hydrogens summed into heavy atoms:
               1
     1  C    0.553971
     5  N    0.365026
     6  N    0.081003
 Electronic spatial extent (au):  <R**2>=            143.5098
 Charge=              1.0000 electrons
 Dipole moment (field-independent basis, Debye):
    X=              0.0000    Y=              0.0000    Z=             -2.2422  Tot=              2.2422
 Quadrupole moment (field-independent basis, Debye-Ang):
   XX=            -14.1424   YY=            -14.1424   ZZ=             -8.8777
   XY=              0.0000   XZ=              0.0000   YZ=              0.0000
 Traceless Quadrupole moment (field-independent basis, Debye-Ang):
   XX=             -1.7549   YY=             -1.7549   ZZ=              3.5098
   XY=              0.0000   XZ=              0.0000   YZ=              0.0000
 Octapole moment (field-independent basis, Debye-Ang**2):
  XXX=              0.0000  YYY=              1.3042  ZZZ=             -6.1871  XYY=              0.0000
  XXY=             -1.3042  XXZ=             -1.6353  XZZ=              0.0000  YZZ=              0.0000
  YYZ=             -1.6353  XYZ=              0.0000
 Hexadecapole moment (field-independent basis, Debye-Ang**3):
 XXXX=            -16.4797 YYYY=            -16.4797 ZZZZ=           -121.6472 XXXY=              0.0000
 XXXZ=              0.0000 YYYX=              0.0000 YYYZ=             -2.0682 ZZZX=              0.0000
 ZZZY=              0.0000 XXYY=             -5.4932 XXZZ=            -21.2826 YYZZ=            -21.2826
 XXYZ=              2.0682 YYXZ=              0.0000 ZZXY=              0.0000
 N-N= 6.569034094576D+01 E-N=-4.713890046295D+02  KE= 1.477540142489D+02
 Symmetry A'   KE= 1.420587792362D+02
 Symmetry A"   KE= 5.695235012754D+00
 Calling FoFJK, ICntrl=      2127 FMM=F ISym2X=1 I1Cent= 0 IOpClX= 0 NMat=1 NMatS=1 NMatT=0.
 ***** Axes restored to original set *****
 -------------------------------------------------------------------
 Center     Atomic                   Forces (Hartrees/Bohr)
 Number     Number              X              Y              Z
 -------------------------------------------------------------------
      1        6          -0.003490565   -0.006045831   -0.002468197
      2        1           0.000246741    0.000427367    0.002374671
      3        1           0.002321108    0.000427365   -0.000558930
      4        1          -0.000790444    0.002223821   -0.000558929
      5        7          -0.025745759   -0.044592933   -0.018204963
      6        7           0.027458919    0.047560211    0.019416348
 -------------------------------------------------------------------
 Cartesian Forces:  Max     0.047560211 RMS     0.018927098

 GradGradGradGradGradGradGradGradGradGradGradGradGradGradGradGradGradGrad
 Berny optimization.
 FormGI is forming the generalized inverse of G from B-inverse, IUseBI=4.
 Internal  Forces:  Max     0.058249124 RMS     0.014191736
 Search for a local minimum.
 Step number   1 out of a maximum of   27
 All quantities printed in internal units (Hartrees-Bohrs-Radians)
 Mixed Optimization -- RFO/linear search
 Second derivative matrix not updated -- first step.
 The second derivative matrix:
                          R1        R2        R3        R4        R5
           R1           0.34703
           R2           0.00000   0.34703
           R3           0.00000   0.00000   0.34703
           R4           0.00000   0.00000   0.00000   0.37055
           R5           0.00000   0.00000   0.00000   0.00000   1.59214
           A1           0.00000   0.00000   0.00000   0.00000   0.00000
           A2           0.00000   0.00000   0.00000   0.00000   0.00000
           A3           0.00000   0.00000   0.00000   0.00000   0.00000
           A4           0.00000   0.00000   0.00000   0.00000   0.00000
           A5           0.00000   0.00000   0.00000   0.00000   0.00000
           A6           0.00000   0.00000   0.00000   0.00000   0.00000
           A7           0.00000   0.00000   0.00000   0.00000   0.00000
           A8           0.00000   0.00000   0.00000   0.00000   0.00000
           D1           0.00000   0.00000   0.00000   0.00000   0.00000
           D2           0.00000   0.00000   0.00000   0.00000   0.00000
           D3           0.00000   0.00000   0.00000   0.00000   0.00000
           D4           0.00000   0.00000   0.00000   0.00000   0.00000
                          A1        A2        A3        A4        A5
           A1           0.16000
           A2           0.00000   0.16000
           A3           0.00000   0.00000   0.16000
           A4           0.00000   0.00000   0.00000   0.16000
           A5           0.00000   0.00000   0.00000   0.00000   0.16000
           A6           0.00000   0.00000   0.00000   0.00000   0.00000
           A7           0.00000   0.00000   0.00000   0.00000   0.00000
           A8           0.00000   0.00000   0.00000   0.00000   0.00000
           D1           0.00000   0.00000   0.00000   0.00000   0.00000
           D2           0.00000   0.00000   0.00000   0.00000   0.00000
           D3           0.00000   0.00000   0.00000   0.00000   0.00000
           D4           0.00000   0.00000   0.00000   0.00000   0.00000
                          A6        A7        A8        D1        D2
           A6           0.16000
           A7           0.00000   0.05017
           A8           0.00000   0.00000   0.05017
           D1           0.00000   0.00000   0.00000   0.00230
           D2           0.00000   0.00000   0.00000   0.00000   0.00908
           D3           0.00000   0.00000   0.00000   0.00000   0.00000
           D4           0.00000   0.00000   0.00000   0.00000   0.00000
                          D3        D4
           D3           0.00908
           D4           0.00000   0.00908
 ITU=  0
     Eigenvalues ---    0.05017   0.05017   0.05579   0.06772   0.07955
     Eigenvalues ---    0.16000   0.16000   0.34703   0.34703   0.34703
     Eigenvalues ---    0.37055   1.59214
 RFO step:  Lambda=-2.22821553D-03 EMin= 5.01710329D-02
 Linear search not attempted -- first point.
 Iteration  1 RMS(Cart)=  0.00884918 RMS(Int)=  0.00002323
 Iteration  2 RMS(Cart)=  0.00001575 RMS(Int)=  0.00001413
 Iteration  3 RMS(Cart)=  0.00000000 RMS(Int)=  0.00001413
 ClnCor:  largest displacement from symmetrization is 7.98D-05 for atom     4.
 Variable       Old X    -DE/DX   Delta X   Delta X   Delta X     New X
                                 (Linear)    (Quad)   (Total)
    R1        2.06159   0.00234   0.00000   0.00670   0.00672   2.06832
    R2        2.06159   0.00234   0.00000   0.00670   0.00672   2.06832
    R3        2.06159   0.00234   0.00000   0.00670   0.00672   2.06832
    R4        2.75763  -0.00363   0.00000  -0.00975  -0.00975   2.74789
    R5        2.11386  -0.05825   0.00000  -0.03653  -0.03653   2.07733
    A1        1.96756  -0.00015   0.00000  -0.00375  -0.00387   1.96368
    A2        1.96756  -0.00035   0.00000  -0.00391  -0.00387   1.96368
    A3        1.84955   0.00030   0.00000   0.00448   0.00447   1.85403
    A4        1.96756  -0.00035   0.00000  -0.00391  -0.00387   1.96368
    A5        1.84955   0.00030   0.00000   0.00448   0.00447   1.85403
    A6        1.84955   0.00039   0.00000   0.00448   0.00447   1.85403
    A7        3.14159   0.00000   0.00000   0.00000   0.00000   3.14159
    A8        3.14159   0.00000   0.00000   0.00000   0.00000   3.14159
    D1        2.25211  -0.00082   0.00000  -0.01210  -0.01210   2.24001
    D2       -2.09440  -0.00013   0.00000  -0.00012   0.00000  -2.09440
    D3        2.09440  -0.00006   0.00000  -0.00006   0.00000   2.09440
    D4       -2.09440   0.00006   0.00000   0.00006   0.00000  -2.09440
         Item               Value     Threshold  Converged?
 Maximum Force            0.058249     0.000450     NO 
 RMS     Force            0.014192     0.000300     NO 
 Maximum Displacement     0.025775     0.001800     NO 
 RMS     Displacement     0.008847     0.001200     NO 
 Predicted change in Energy=-1.116076D-03
 GradGradGradGradGradGradGradGradGradGradGradGradGradGradGradGradGradGrad

                          Input orientation:                          
 ---------------------------------------------------------------------
 Center     Atomic      Atomic             Coordinates (Angstroms)
 Number     Number       Type             X           Y           Z
 ---------------------------------------------------------------------
      1          6           0        0.009341    0.016179    0.006605
      2          1           0       -0.021621   -0.037449    1.099357
      3          1           0        1.029277   -0.037449   -0.386838
      4          1           0       -0.547070    0.872655   -0.386837
      5          7           0       -0.676137   -1.171104   -0.478100
      6          7           0       -1.194340   -2.068656   -0.844524
 ---------------------------------------------------------------------
                    Distance matrix (angstroms):
                    1          2          3          4          5
     1  C    0.000000
     2  H    1.094505   0.000000
     3  H    1.094505   1.820209   0.000000
     4  H    1.094505   1.820209   1.820209   0.000000
     5  N    1.454119   2.049863   2.049863   2.049863   0.000000
     6  N    2.553392   3.046268   3.046268   3.046268   1.099273
                    6
     6  N    0.000000
 Stoichiometry    CH3N2(1+)
 Framework group  C3V[C3(CNN),3SGV(H)]
 Deg. of freedom     4
 Full point group                 C3V     NOp   6
 Largest Abelian subgroup         CS      NOp   2
 Largest concise Abelian subgroup CS      NOp   2
                         Standard orientation:                         
 ---------------------------------------------------------------------
 Center     Atomic      Atomic             Coordinates (Angstroms)
 Number     Number       Type             X           Y           Z
 ---------------------------------------------------------------------
      1          6           0        0.000000    0.000000   -1.179781
      2          1           0        0.000000    1.050898   -1.485649
      3          1           0        0.910104   -0.525449   -1.485649
      4          1           0       -0.910104   -0.525449   -1.485649
      5          7           0        0.000000    0.000000    0.274337
      6          7           0        0.000000    0.000000    1.373611
 ---------------------------------------------------------------------
 Rotational constants (GHZ):    151.3524933      9.7067127      9.7067127
 Standard basis: GTBas3 (6D, 7F)
 There are    72 symmetry adapted cartesian basis functions of A'  symmetry.
 There are    36 symmetry adapted cartesian basis functions of A"  symmetry.
 There are    66 symmetry adapted basis functions of A'  symmetry.
 There are    33 symmetry adapted basis functions of A"  symmetry.
    99 basis functions,   153 primitive gaussians,   108 cartesian basis functions
    11 alpha electrons       11 beta electrons
       nuclear repulsion energy        66.2208695592 Hartrees.
 NAtoms=    6 NActive=    6 NUniq=    4 SFac= 2.25D+00 NAtFMM=   60 NAOKFM=F Big=F
 Integral buffers will be    131072 words long.
 Raffenetti 2 integral format.
 Two-electron integral symmetry is turned on.
 One-electron integrals computed using PRISM.
 NBasis=    99 RedAO= T EigKep=  4.47D-04  NBF=    66    33
 NBsUse=    99 1.00D-06 EigRej= -1.00D+00 NBFU=    66    33
 Initial guess from the checkpoint file:  "H3CN2cbs4m.chk"
 B after Tr=     0.000000    0.000000    0.000000
         Rot=    1.000000    0.000000    0.000000    0.000000 Ang=   0.00 deg.
 Initial guess orbital symmetries:
       Occupied  (A1) (A1) (A1) (A1) (A1) (A1) (E) (E) (A1) (E)
                 (E)
       Virtual   (?A) (?A) (?A) (?A) (?A) (?A) (?A) (?A) (?A) (?A)
                 (?A) (?A) (?A) (?A) (?A) (?A) (?A) (?A) (?A) (?A)
                 (?A) (?A) (?A) (?A) (?A) (?A) (?A) (?A) (?A) (?A)
                 (?A) (?A) (?A) (?A) (?A) (?A) (?A) (?A) (?A) (?A)
                 (?A) (?A) (?A) (?A) (?A) (?A) (?A) (?A) (?A) (?A)
                 (?A) (?A) (?A) (?A) (?A) (?A) (?A) (?A) (?A) (?A)
                 (?A) (?A) (?A) (?A) (?A) (?A) (?A) (?A) (?A) (?A)
                 (?A) (?A) (?A) (?A) (?A) (?A) (?A) (?A) (?A) (?A)
                 (?A) (?A) (?A) (?A) (?A) (?A) (?A) (?A)
 ExpMin= 1.61D-01 ExpMax= 4.17D+03 ExpMxC= 6.27D+02 IAcc=1 IRadAn=         1 AccDes= 0.00D+00
 Harris functional with IExCor=  402 and IRadAn=       1 diagonalized for initial guess.
 HarFok:  IExCor=  402 AccDes= 0.00D+00 IRadAn=         1 IDoV= 1 UseB2=F ITyADJ=14
 ICtDFT=  3500011 ScaDFX=  1.000000  1.000000  1.000000  1.000000
 FoFCou: FMM=F IPFlag=           0 FMFlag=      100000 FMFlg1=           0
         NFxFlg=           0 DoJE=T BraDBF=F KetDBF=T FulRan=T
         wScrn=  0.000000 ICntrl=     500 IOpCl=  0 I1Cent=   200000004 NGrid=           0
         NMat0=    1 NMatS0=      1 NMatT0=    0 NMatD0=    1 NMtDS0=    0 NMtDT0=    0
 Petite list used in FoFCou.
 Keep R1 ints in memory in symmetry-blocked form, NReq=18536690.
 Requested convergence on RMS density matrix=1.00D-08 within 128 cycles.
 Requested convergence on MAX density matrix=1.00D-06.
 Requested convergence on             energy=1.00D-06.
 No special actions if energy rises.
 Integral accuracy reduced to 1.0D-05 until final iterations.
 Initial convergence to 1.0D-05 achieved.  Increase integral accuracy.
 SCF Done:  E(RB3LYP) =  -149.095241397     A.U. after   11 cycles
            NFock= 11  Conv=0.91D-09     -V/T= 2.0084
 Calling FoFJK, ICntrl=      2127 FMM=F ISym2X=1 I1Cent= 0 IOpClX= 0 NMat=1 NMatS=1 NMatT=0.
 ***** Axes restored to original set *****
 -------------------------------------------------------------------
 Center     Atomic                   Forces (Hartrees/Bohr)
 Number     Number              X              Y              Z
 -------------------------------------------------------------------
      1        6          -0.001195004   -0.002069807   -0.000844994
      2        1           0.000156494    0.000271056   -0.000092857
      3        1          -0.000035382    0.000271056    0.000178497
      4        1           0.000252433    0.000104887    0.000178497
      5        7          -0.001752725   -0.003035806   -0.001239361
      6        7           0.002574184    0.004458614    0.001820219
 -------------------------------------------------------------------
 Cartesian Forces:  Max     0.004458614 RMS     0.001673136

 GradGradGradGradGradGradGradGradGradGradGradGradGradGradGradGradGradGrad
 Berny optimization.
 Using GEDIIS/GDIIS optimizer.
 FormGI is forming the generalized inverse of G from B-inverse, IUseBI=4.
 Internal  Forces:  Max     0.005460664 RMS     0.001397396
 Search for a local minimum.
 Step number   2 out of a maximum of   27
 All quantities printed in internal units (Hartrees-Bohrs-Radians)
 Mixed Optimization -- RFO/linear search
 Update second derivatives using D2CorX and points    1    2
 DE= -1.25D-03 DEPred=-1.12D-03 R= 1.12D+00
 TightC=F SS=  1.41D+00  RLast= 4.26D-02 DXNew= 5.0454D-01 1.2787D-01
 Trust test= 1.12D+00 RLast= 4.26D-02 DXMaxT set to 3.00D-01
 The second derivative matrix:
                          R1        R2        R3        R4        R5
           R1           0.34758
           R2           0.00055   0.34758
           R3           0.00055   0.00055   0.34758
           R4           0.00148   0.00148   0.00148   0.36647
           R5          -0.00352  -0.00352  -0.00352  -0.04467   1.46061
           A1           0.00056   0.00056   0.00056  -0.00094  -0.01428
           A2           0.00043   0.00043   0.00043  -0.00084  -0.01151
           A3          -0.00056  -0.00056  -0.00056   0.00102   0.01469
           A4           0.00043   0.00043   0.00043  -0.00084  -0.01151
           A5          -0.00056  -0.00056  -0.00056   0.00102   0.01469
           A6          -0.00051  -0.00051  -0.00051   0.00097   0.01344
           A7           0.00000   0.00000   0.00000   0.00000   0.00000
           A8           0.00000   0.00000   0.00000   0.00000   0.00000
           D1          -0.00049  -0.00049  -0.00049   0.00036   0.01048
           D2          -0.00008  -0.00008  -0.00008   0.00006   0.00171
           D3          -0.00004  -0.00004  -0.00004   0.00003   0.00086
           D4           0.00004   0.00004   0.00004  -0.00003  -0.00086
                          A1        A2        A3        A4        A5
           A1           0.15983
           A2          -0.00017   0.15984
           A3           0.00019   0.00019   0.15978
           A4          -0.00017  -0.00016   0.00019   0.15984
           A5           0.00019   0.00019  -0.00022   0.00019   0.15978
           A6           0.00019   0.00018  -0.00022   0.00018  -0.00022
           A7           0.00000   0.00000   0.00000   0.00000   0.00000
           A8           0.00000   0.00000   0.00000   0.00000   0.00000
           D1           0.00001   0.00003  -0.00002   0.00003  -0.00002
           D2           0.00000   0.00001   0.00000   0.00001   0.00000
           D3           0.00000   0.00000   0.00000   0.00000   0.00000
           D4           0.00000   0.00000   0.00000   0.00000   0.00000
                          A6        A7        A8        D1        D2
           A6           0.15979
           A7           0.00000   0.05017
           A8           0.00000   0.00000   0.05017
           D1          -0.00003   0.00000   0.00000   0.00239
           D2          -0.00001   0.00000   0.00000   0.00001   0.00908
           D3           0.00000   0.00000   0.00000   0.00001   0.00000
           D4           0.00000   0.00000   0.00000  -0.00001   0.00000
                          D3        D4
           D3           0.00908
           D4           0.00000   0.00908
 ITU=  1  0
 Use linear search instead of GDIIS.
     Eigenvalues ---    0.05017   0.05017   0.05568   0.06728   0.07963
     Eigenvalues ---    0.15998   0.16000   0.34703   0.34703   0.34832
     Eigenvalues ---    0.36498   1.46259
 RFO step:  Lambda=-9.11798296D-06 EMin= 5.01710329D-02
 Quartic linear search produced a step of  0.10341.
 Iteration  1 RMS(Cart)=  0.00166819 RMS(Int)=  0.00000438
 Iteration  2 RMS(Cart)=  0.00000163 RMS(Int)=  0.00000404
 Iteration  3 RMS(Cart)=  0.00000000 RMS(Int)=  0.00000404
 ClnCor:  largest displacement from symmetrization is 1.81D-04 for atom     4.
 Variable       Old X    -DE/DX   Delta X   Delta X   Delta X     New X
                                 (Linear)    (Quad)   (Total)
    R1        2.06832  -0.00011   0.00069  -0.00118  -0.00044   2.06787
    R2        2.06832  -0.00011   0.00069  -0.00118  -0.00044   2.06787
    R3        2.06832  -0.00011   0.00069  -0.00118  -0.00044   2.06787
    R4        2.74789  -0.00174  -0.00101  -0.00399  -0.00500   2.74288
    R5        2.07733  -0.00546  -0.00378   0.00003  -0.00374   2.07358
    A1        1.96368  -0.00007  -0.00040  -0.00102  -0.00164   1.96204
    A2        1.96368  -0.00017  -0.00040  -0.00137  -0.00164   1.96204
    A3        1.85403   0.00014   0.00046   0.00143   0.00188   1.85591
    A4        1.96368  -0.00017  -0.00040  -0.00137  -0.00164   1.96204
    A5        1.85403   0.00014   0.00046   0.00143   0.00188   1.85591
    A6        1.85403   0.00019   0.00046   0.00144   0.00188   1.85591
    A7        3.14159   0.00000   0.00000   0.00000   0.00000   3.14159
    A8        3.14159   0.00000   0.00000   0.00000   0.00000   3.14159
    D1        2.24001  -0.00039  -0.00125  -0.00375  -0.00506   2.23494
    D2       -2.09440  -0.00006   0.00000  -0.00026   0.00000  -2.09440
    D3        2.09440  -0.00003   0.00000  -0.00013   0.00000   2.09440
    D4       -2.09440   0.00003   0.00000   0.00013   0.00000  -2.09440
         Item               Value     Threshold  Converged?
 Maximum Force            0.005461     0.000450     NO 
 RMS     Force            0.001397     0.000300     NO 
 Maximum Displacement     0.003786     0.001800     NO 
 RMS     Displacement     0.001660     0.001200     NO 
 Predicted change in Energy=-1.766294D-05
 GradGradGradGradGradGradGradGradGradGradGradGradGradGradGradGradGradGrad

                          Input orientation:                          
 ---------------------------------------------------------------------
 Center     Atomic      Atomic             Coordinates (Angstroms)
 Number     Number       Type             X           Y           Z
 ---------------------------------------------------------------------
      1          6           0        0.008316    0.014404    0.005880
      2          1           0       -0.021612   -0.037433    1.098512
      3          1           0        1.028483   -0.037434   -0.386547
      4          1           0       -0.546660    0.871976   -0.386547
      5          7           0       -0.675915   -1.170718   -0.477943
      6          7           0       -1.193183   -2.066653   -0.843706
 ---------------------------------------------------------------------
                    Distance matrix (angstroms):
                    1          2          3          4          5
     1  C    0.000000
     2  H    1.094270   0.000000
     3  H    1.094270   1.818819   0.000000
     4  H    1.094270   1.818819   1.818819   0.000000
     5  N    1.451472   2.048818   2.048818   2.048818   0.000000
     6  N    2.548764   3.043440   3.043440   3.043440   1.097292
                    6
     6  N    0.000000
 Stoichiometry    CH3N2(1+)
 Framework group  C3V[C3(CNN),3SGV(H)]
 Deg. of freedom     4
 Full point group                 C3V     NOp   6
 Largest Abelian subgroup         CS      NOp   2
 Largest concise Abelian subgroup CS      NOp   2
                         Standard orientation:                         
 ---------------------------------------------------------------------
 Center     Atomic      Atomic             Coordinates (Angstroms)
 Number     Number       Type             X           Y           Z
 ---------------------------------------------------------------------
      1          6           0        0.000000    0.000000   -1.177318
      2          1           0        0.000000    1.050095   -1.485095
      3          1           0        0.909409   -0.525048   -1.485095
      4          1           0       -0.909409   -0.525048   -1.485095
      5          7           0        0.000000    0.000000    0.274154
      6          7           0        0.000000    0.000000    1.371446
 ---------------------------------------------------------------------
 Rotational constants (GHZ):    151.5839578      9.7369128      9.7369128
 Standard basis: GTBas3 (6D, 7F)
 There are    72 symmetry adapted cartesian basis functions of A'  symmetry.
 There are    36 symmetry adapted cartesian basis functions of A"  symmetry.
 There are    66 symmetry adapted basis functions of A'  symmetry.
 There are    33 symmetry adapted basis functions of A"  symmetry.
    99 basis functions,   153 primitive gaussians,   108 cartesian basis functions
    11 alpha electrons       11 beta electrons
       nuclear repulsion energy        66.3158287842 Hartrees.
 NAtoms=    6 NActive=    6 NUniq=    4 SFac= 2.25D+00 NAtFMM=   60 NAOKFM=F Big=F
 Integral buffers will be    131072 words long.
 Raffenetti 2 integral format.
 Two-electron integral symmetry is turned on.
 One-electron integrals computed using PRISM.
 NBasis=    99 RedAO= T EigKep=  4.44D-04  NBF=    66    33
 NBsUse=    99 1.00D-06 EigRej= -1.00D+00 NBFU=    66    33
 Initial guess from the checkpoint file:  "H3CN2cbs4m.chk"
 B after Tr=     0.000000    0.000000    0.000000
         Rot=    1.000000    0.000000    0.000000    0.000000 Ang=   0.00 deg.
 Initial guess orbital symmetries:
       Occupied  (A1) (A1) (A1) (A1) (A1) (A1) (E) (E) (A1) (E)
                 (E)
       Virtual   (?A) (?A) (?A) (?A) (?A) (?A) (?A) (?A) (?A) (?A)
                 (?A) (?A) (?A) (?A) (?A) (?A) (?A) (?A) (?A) (?A)
                 (?A) (?A) (?A) (?A) (?A) (?A) (?A) (?A) (?A) (?A)
                 (?A) (?A) (?A) (?A) (?A) (?A) (?A) (?A) (?A) (?A)
                 (?A) (?A) (?A) (?A) (?A) (?A) (?A) (?A) (?A) (?A)
                 (?A) (?A) (?A) (?A) (?A) (?A) (?A) (?A) (?A) (?A)
                 (?A) (?A) (?A) (?A) (?A) (?A) (?A) (?A) (?A) (?A)
                 (?A) (?A) (?A) (?A) (?A) (?A) (?A) (?A) (?A) (?A)
                 (?A) (?A) (?A) (?A) (?A) (?A) (?A) (?A)
 Keep R1 ints in memory in symmetry-blocked form, NReq=18536690.
 Requested convergence on RMS density matrix=1.00D-08 within 128 cycles.
 Requested convergence on MAX density matrix=1.00D-06.
 Requested convergence on             energy=1.00D-06.
 No special actions if energy rises.
 SCF Done:  E(RB3LYP) =  -149.095260187     A.U. after    8 cycles
            NFock=  8  Conv=0.21D-08     -V/T= 2.0083
 Calling FoFJK, ICntrl=      2127 FMM=F ISym2X=1 I1Cent= 0 IOpClX= 0 NMat=1 NMatS=1 NMatT=0.
 ***** Axes restored to original set *****
 -------------------------------------------------------------------
 Center     Atomic                   Forces (Hartrees/Bohr)
 Number     Number              X              Y              Z
 -------------------------------------------------------------------
      1        6          -0.000673707   -0.001166894   -0.000476382
      2        1           0.000089051    0.000154241    0.000089443
      3        1           0.000114011    0.000154241    0.000054144
      4        1           0.000076571    0.000175857    0.000054144
      5        7           0.000594613    0.001029900    0.000420454
      6        7          -0.000200540   -0.000347345   -0.000141803
 -------------------------------------------------------------------
 Cartesian Forces:  Max     0.001166894 RMS     0.000467478

 GradGradGradGradGradGradGradGradGradGradGradGradGradGradGradGradGradGrad
 Berny optimization.
 Using GEDIIS/GDIIS optimizer.
 FormGI is forming the generalized inverse of G from B-inverse, IUseBI=4.
 Internal  Forces:  Max     0.000835956 RMS     0.000243326
 Search for a local minimum.
 Step number   3 out of a maximum of   27
 All quantities printed in internal units (Hartrees-Bohrs-Radians)
 Mixed Optimization -- En-DIIS/RFO-DIIS
 Update second derivatives using D2CorX and points    1    2    3
 DE= -1.88D-05 DEPred=-1.77D-05 R= 1.06D+00
 TightC=F SS=  1.41D+00  RLast= 9.16D-03 DXNew= 5.0454D-01 2.7486D-02
 Trust test= 1.06D+00 RLast= 9.16D-03 DXMaxT set to 3.00D-01
 The second derivative matrix:
                          R1        R2        R3        R4        R5
           R1           0.34793
           R2           0.00090   0.34793
           R3           0.00090   0.00090   0.34793
           R4          -0.00008  -0.00008  -0.00008   0.30984
           R5           0.00924   0.00924   0.00924  -0.14520   1.82993
           A1          -0.00007  -0.00007  -0.00007  -0.01016  -0.04443
           A2          -0.00002  -0.00002  -0.00002  -0.00949  -0.03486
           A3           0.00005   0.00005   0.00005   0.01120   0.04488
           A4          -0.00002  -0.00002  -0.00002  -0.00949  -0.03486
           A5           0.00005   0.00005   0.00005   0.01120   0.04488
           A6           0.00003   0.00003   0.00003   0.01089   0.04048
           A7           0.00000   0.00000   0.00000   0.00000   0.00000
           A8           0.00000   0.00000   0.00000   0.00000   0.00000
           D1           0.00017   0.00017   0.00017   0.00218   0.03584
           D2           0.00003   0.00003   0.00003   0.00041   0.00590
           D3           0.00001   0.00001   0.00001   0.00021   0.00295
           D4          -0.00001  -0.00001  -0.00001  -0.00021  -0.00295
                          A1        A2        A3        A4        A5
           A1           0.15867
           A2          -0.00138   0.15864
           A3           0.00155   0.00157   0.15821
           A4          -0.00138  -0.00136   0.00157   0.15864
           A5           0.00155   0.00157  -0.00179   0.00157   0.15821
           A6           0.00157   0.00156  -0.00179   0.00156  -0.00179
           A7           0.00000   0.00000   0.00000   0.00000   0.00000
           A8           0.00000   0.00000   0.00000   0.00000   0.00000
           D1          -0.00025  -0.00001   0.00013  -0.00001   0.00013
           D2          -0.00003   0.00001   0.00001   0.00001   0.00001
           D3          -0.00001   0.00000   0.00000   0.00000   0.00000
           D4           0.00001   0.00000   0.00000   0.00000   0.00000
                          A6        A7        A8        D1        D2
           A6           0.15821
           A7           0.00000   0.05017
           A8           0.00000   0.00000   0.05017
           D1           0.00003   0.00000   0.00000   0.00322
           D2          -0.00001   0.00000   0.00000   0.00015   0.00910
           D3           0.00000   0.00000   0.00000   0.00007   0.00001
           D4           0.00000   0.00000   0.00000  -0.00007  -0.00001
                          D3        D4
           D3           0.00908
           D4          -0.00001   0.00908
 ITU=  1  1  0
 Use linear search instead of GDIIS.
     Eigenvalues ---    0.05017   0.05017   0.05365   0.06709   0.07641
     Eigenvalues ---    0.15969   0.16000   0.29766   0.34703   0.34703
     Eigenvalues ---    0.34959   1.84462
 RFO step:  Lambda=-3.56142278D-06 EMin= 5.01710329D-02
 Quartic linear search produced a step of  0.16178.
 Iteration  1 RMS(Cart)=  0.00076080 RMS(Int)=  0.00000251
 Iteration  2 RMS(Cart)=  0.00000124 RMS(Int)=  0.00000216
 Iteration  3 RMS(Cart)=  0.00000000 RMS(Int)=  0.00000216
 ClnCor:  largest displacement from symmetrization is 1.55D-05 for atom     4.
 Variable       Old X    -DE/DX   Delta X   Delta X   Delta X     New X
                                 (Linear)    (Quad)   (Total)
    R1        2.06787   0.00008  -0.00007   0.00030   0.00024   2.06811
    R2        2.06787   0.00008  -0.00007   0.00030   0.00024   2.06811
    R3        2.06787   0.00008  -0.00007   0.00030   0.00024   2.06811
    R4        2.74288  -0.00084  -0.00081  -0.00221  -0.00302   2.73986
    R5        2.07358   0.00043  -0.00061   0.00048  -0.00013   2.07346
    A1        1.96204  -0.00004  -0.00027  -0.00110  -0.00139   1.96065
    A2        1.96204  -0.00010  -0.00027  -0.00113  -0.00139   1.96065
    A3        1.85591   0.00009   0.00030   0.00128   0.00159   1.85749
    A4        1.96204  -0.00010  -0.00027  -0.00113  -0.00139   1.96065
    A5        1.85591   0.00009   0.00030   0.00128   0.00159   1.85749
    A6        1.85591   0.00011   0.00030   0.00128   0.00159   1.85749
    A7        3.14159   0.00000   0.00000   0.00000   0.00000   3.14159
    A8        3.14159   0.00000   0.00000   0.00000   0.00000   3.14159
    D1        2.23494  -0.00023  -0.00082  -0.00344  -0.00426   2.23069
    D2       -2.09440  -0.00004   0.00000  -0.00002   0.00000  -2.09440
    D3        2.09440  -0.00002   0.00000  -0.00001   0.00000   2.09440
    D4       -2.09440   0.00002   0.00000   0.00001   0.00000  -2.09440
         Item               Value     Threshold  Converged?
 Maximum Force            0.000836     0.000450     NO 
 RMS     Force            0.000243     0.000300     YES
 Maximum Displacement     0.002152     0.001800     NO 
 RMS     Displacement     0.000760     0.001200     YES
 Predicted change in Energy=-2.173785D-06
 GradGradGradGradGradGradGradGradGradGradGradGradGradGradGradGradGradGrad

                          Input orientation:                          
 ---------------------------------------------------------------------
 Center     Atomic      Atomic             Coordinates (Angstroms)
 Number     Number       Type             X           Y           Z
 ---------------------------------------------------------------------
      1          6           0        0.007658    0.013265    0.005415
      2          1           0       -0.021406   -0.037077    1.098265
      3          1           0        1.028319   -0.037077   -0.386271
      4          1           0       -0.546269    0.872012   -0.386271
      5          7           0       -0.675819   -1.170552   -0.477875
      6          7           0       -1.193056   -2.066432   -0.843616
 ---------------------------------------------------------------------
                    Distance matrix (angstroms):
                    1          2          3          4          5
     1  C    0.000000
     2  H    1.094395   0.000000
     3  H    1.094395   1.818178   0.000000
     4  H    1.094395   1.818178   1.818178   0.000000
     5  N    1.449873   2.048717   2.048717   2.048717   0.000000
     6  N    2.547099   3.043346   3.043346   3.043346   1.097225
                    6
     6  N    0.000000
 Stoichiometry    CH3N2(1+)
 Framework group  C3V[C3(CNN),3SGV(H)]
 Deg. of freedom     4
 Full point group                 C3V     NOp   6
 Largest Abelian subgroup         CS      NOp   2
 Largest concise Abelian subgroup CS      NOp   2
                         Standard orientation:                         
 ---------------------------------------------------------------------
 Center     Atomic      Atomic             Coordinates (Angstroms)
 Number     Number       Type             X           Y           Z
 ---------------------------------------------------------------------
      1          6           0        0.000000    0.000000   -1.176103
      2          1           0        0.000000    1.049725   -1.485581
      3          1           0        0.909089   -0.524863   -1.485581
      4          1           0       -0.909089   -0.524863   -1.485581
      5          7           0        0.000000    0.000000    0.273770
      6          7           0        0.000000    0.000000    1.370996
 ---------------------------------------------------------------------
 Rotational constants (GHZ):    151.6908316      9.7466096      9.7466096
 Standard basis: GTBas3 (6D, 7F)
 There are    72 symmetry adapted cartesian basis functions of A'  symmetry.
 There are    36 symmetry adapted cartesian basis functions of A"  symmetry.
 There are    66 symmetry adapted basis functions of A'  symmetry.
 There are    33 symmetry adapted basis functions of A"  symmetry.
    99 basis functions,   153 primitive gaussians,   108 cartesian basis functions
    11 alpha electrons       11 beta electrons
       nuclear repulsion energy        66.3395395260 Hartrees.
 NAtoms=    6 NActive=    6 NUniq=    4 SFac= 2.25D+00 NAtFMM=   60 NAOKFM=F Big=F
 Integral buffers will be    131072 words long.
 Raffenetti 2 integral format.
 Two-electron integral symmetry is turned on.
 One-electron integrals computed using PRISM.
 NBasis=    99 RedAO= T EigKep=  4.43D-04  NBF=    66    33
 NBsUse=    99 1.00D-06 EigRej= -1.00D+00 NBFU=    66    33
 Initial guess from the checkpoint file:  "H3CN2cbs4m.chk"
 B after Tr=     0.000000    0.000000    0.000000
         Rot=    1.000000    0.000000    0.000000    0.000000 Ang=   0.00 deg.
 Initial guess orbital symmetries:
       Occupied  (A1) (A1) (A1) (A1) (A1) (A1) (E) (E) (A1) (E)
                 (E)
       Virtual   (?A) (?A) (?A) (?A) (?A) (?A) (?A) (?A) (?A) (?A)
                 (?A) (?A) (?A) (?A) (?A) (?A) (?A) (?A) (?A) (?A)
                 (?A) (?A) (?A) (?A) (?A) (?A) (?A) (?A) (?A) (?A)
                 (?A) (?A) (?A) (?A) (?A) (?A) (?A) (?A) (?A) (?A)
                 (?A) (?A) (?A) (?A) (?A) (?A) (?A) (?A) (?A) (?A)
                 (?A) (?A) (?A) (?A) (?A) (?A) (?A) (?A) (?A) (?A)
                 (?A) (?A) (?A) (?A) (?A) (?A) (?A) (?A) (?A) (?A)
                 (?A) (?A) (?A) (?A) (?A) (?A) (?A) (?A) (?A) (?A)
                 (?A) (?A) (?A) (?A) (?A) (?A) (?A) (?A)
 Keep R1 ints in memory in symmetry-blocked form, NReq=18536690.
 Requested convergence on RMS density matrix=1.00D-08 within 128 cycles.
 Requested convergence on MAX density matrix=1.00D-06.
 Requested convergence on             energy=1.00D-06.
 No special actions if energy rises.
 SCF Done:  E(RB3LYP) =  -149.095263160     A.U. after    7 cycles
            NFock=  7  Conv=0.77D-08     -V/T= 2.0083
 Calling FoFJK, ICntrl=      2127 FMM=F ISym2X=1 I1Cent= 0 IOpClX= 0 NMat=1 NMatS=1 NMatT=0.
 ***** Axes restored to original set *****
 -------------------------------------------------------------------
 Center     Atomic                   Forces (Hartrees/Bohr)
 Number     Number              X              Y              Z
 -------------------------------------------------------------------
      1        6          -0.000267736   -0.000463732   -0.000189318
      2        1           0.000020697    0.000035849    0.000036062
      3        1           0.000040899    0.000035849    0.000007493
      4        1           0.000010597    0.000053344    0.000007493
      5        7           0.000517251    0.000895905    0.000365751
      6        7          -0.000321708   -0.000557214   -0.000227482
 -------------------------------------------------------------------
 Cartesian Forces:  Max     0.000895905 RMS     0.000333443

 GradGradGradGradGradGradGradGradGradGradGradGradGradGradGradGradGradGrad
 Berny optimization.
 Using GEDIIS/GDIIS optimizer.
 FormGI is forming the generalized inverse of G from B-inverse, IUseBI=4.
 Internal  Forces:  Max     0.000682446 RMS     0.000195128
 Search for a local minimum.
 Step number   4 out of a maximum of   27
 All quantities printed in internal units (Hartrees-Bohrs-Radians)
 Mixed Optimization -- En-DIIS/RFO-DIIS
 Swapping is turned off.
 Update second derivatives using D2CorX and points    1    2    3    4
 DE= -2.97D-06 DEPred=-2.17D-06 R= 1.37D+00
 TightC=F SS=  1.41D+00  RLast= 6.39D-03 DXNew= 5.0454D-01 1.9162D-02
 Trust test= 1.37D+00 RLast= 6.39D-03 DXMaxT set to 3.00D-01
 The second derivative matrix:
                          R1        R2        R3        R4        R5
           R1           0.34799
           R2           0.00096   0.34799
           R3           0.00096   0.00096   0.34799
           R4           0.00701   0.00701   0.00701   0.21248
           R5           0.01066   0.01066   0.01066  -0.02449   1.85116
           A1           0.00145   0.00145   0.00145  -0.03845  -0.03447
           A2           0.00145   0.00145   0.00145  -0.03133  -0.01529
           A3          -0.00166  -0.00166  -0.00166   0.03947   0.02766
           A4           0.00145   0.00145   0.00145  -0.03133  -0.01529
           A5          -0.00166  -0.00166  -0.00166   0.03947   0.02766
           A6          -0.00166  -0.00166  -0.00166   0.03615   0.01876
           A7           0.00000   0.00000   0.00000   0.00000   0.00000
           A8           0.00000   0.00000   0.00000   0.00000   0.00000
           D1           0.00006   0.00006   0.00006   0.02603   0.07370
           D2           0.00000   0.00000   0.00000   0.00437   0.01180
           D3           0.00000   0.00000   0.00000   0.00219   0.00590
           D4           0.00000   0.00000   0.00000  -0.00219  -0.00590
                          A1        A2        A3        A4        A5
           A1           0.15277
           A2          -0.00712   0.15388
           A3           0.00817   0.00750   0.15110
           A4          -0.00712  -0.00612   0.00750   0.15388
           A5           0.00817   0.00750  -0.00890   0.00750   0.15110
           A6           0.00812   0.00703  -0.00859   0.00703  -0.00859
           A7           0.00000   0.00000   0.00000   0.00000   0.00000
           A8           0.00000   0.00000   0.00000   0.00000   0.00000
           D1           0.00010   0.00359  -0.00225   0.00359  -0.00225
           D2           0.00007   0.00062  -0.00041   0.00062  -0.00041
           D3           0.00003   0.00031  -0.00021   0.00031  -0.00021
           D4          -0.00003  -0.00031   0.00021  -0.00031   0.00021
                          A6        A7        A8        D1        D2
           A6           0.15192
           A7           0.00000   0.05017
           A8           0.00000   0.00000   0.05017
           D1          -0.00388   0.00000   0.00000   0.01590
           D2          -0.00067   0.00000   0.00000   0.00214   0.00941
           D3          -0.00033   0.00000   0.00000   0.00107   0.00017
           D4           0.00033   0.00000   0.00000  -0.00107  -0.00017
                          D3        D4
           D3           0.00916
           D4          -0.00008   0.00916
 ITU=  1  1  1  0
     Eigenvalues ---    0.04907   0.05017   0.05017   0.06694   0.07199
     Eigenvalues ---    0.15886   0.16000   0.22137   0.34703   0.34703
     Eigenvalues ---    0.35079   1.85198
 En-DIIS/RFO-DIIS IScMMF=        0 using points:     4    3
 RFO step:  Lambda=-7.85055630D-07.
 DidBck=F Rises=F RFO-DIIS coefs:    1.59695   -0.59695
 Iteration  1 RMS(Cart)=  0.00046587 RMS(Int)=  0.00000150
 Iteration  2 RMS(Cart)=  0.00000030 RMS(Int)=  0.00000147
 ClnCor:  largest displacement from symmetrization is 1.55D-06 for atom     4.
 Variable       Old X    -DE/DX   Delta X   Delta X   Delta X     New X
                                 (Linear)    (Quad)   (Total)
    R1        2.06811   0.00003   0.00014   0.00001   0.00015   2.06826
    R2        2.06811   0.00003   0.00014   0.00001   0.00015   2.06826
    R3        2.06811   0.00003   0.00014   0.00001   0.00015   2.06826
    R4        2.73986  -0.00041  -0.00180  -0.00061  -0.00242   2.73745
    R5        2.07346   0.00068  -0.00008   0.00044   0.00036   2.07382
    A1        1.96065  -0.00001  -0.00083   0.00015  -0.00068   1.95996
    A2        1.96065  -0.00002  -0.00083   0.00015  -0.00068   1.95996
    A3        1.85749   0.00002   0.00095  -0.00017   0.00078   1.85827
    A4        1.96065  -0.00002  -0.00083   0.00015  -0.00068   1.95996
    A5        1.85749   0.00002   0.00095  -0.00017   0.00078   1.85827
    A6        1.85749   0.00003   0.00095  -0.00017   0.00078   1.85827
    A7        3.14159   0.00000   0.00000   0.00000   0.00000   3.14159
    A8        3.14159   0.00000   0.00000   0.00000   0.00000   3.14159
    D1        2.23069  -0.00006  -0.00254   0.00046  -0.00208   2.22861
    D2       -2.09440  -0.00001   0.00000   0.00000   0.00000  -2.09440
    D3        2.09440   0.00000   0.00000   0.00000   0.00000   2.09440
    D4       -2.09440   0.00000   0.00000   0.00000   0.00000  -2.09440
         Item               Value     Threshold  Converged?
 Maximum Force            0.000682     0.000450     NO 
 RMS     Force            0.000195     0.000300     YES
 Maximum Displacement     0.001255     0.001800     YES
 RMS     Displacement     0.000466     0.001200     YES
 Predicted change in Energy=-7.366439D-07
 GradGradGradGradGradGradGradGradGradGradGradGradGradGradGradGradGradGrad

                          Input orientation:                          
 ---------------------------------------------------------------------
 Center     Atomic      Atomic             Coordinates (Angstroms)
 Number     Number       Type             X           Y           Z
 ---------------------------------------------------------------------
      1          6           0        0.007275    0.012601    0.005144
      2          1           0       -0.021367   -0.037009    1.098120
      3          1           0        1.028195   -0.037009   -0.386186
      4          1           0       -0.546148    0.871939   -0.386185
      5          7           0       -0.675600   -1.170172   -0.477720
      6          7           0       -1.192927   -2.066210   -0.843525
 ---------------------------------------------------------------------
                    Distance matrix (angstroms):
                    1          2          3          4          5
     1  C    0.000000
     2  H    1.094476   0.000000
     3  H    1.094476   1.817896   0.000000
     4  H    1.094476   1.817896   1.817896   0.000000
     5  N    1.448595   2.048256   2.048256   2.048256   0.000000
     6  N    2.546012   3.043057   3.043057   3.043057   1.097417
                    6
     6  N    0.000000
 Stoichiometry    CH3N2(1+)
 Framework group  C3V[C3(CNN),3SGV(H)]
 Deg. of freedom     4
 Full point group                 C3V     NOp   6
 Largest Abelian subgroup         CS      NOp   2
 Largest concise Abelian subgroup CS      NOp   2
                         Standard orientation:                         
 ---------------------------------------------------------------------
 Center     Atomic      Atomic             Coordinates (Angstroms)
 Number     Number       Type             X           Y           Z
 ---------------------------------------------------------------------
      1          6           0        0.000000    0.000000   -1.175274
      2          1           0        0.000000    1.049562   -1.485591
      3          1           0        0.908948   -0.524781   -1.485591
      4          1           0       -0.908948   -0.524781   -1.485591
      5          7           0        0.000000    0.000000    0.273321
      6          7           0        0.000000    0.000000    1.370738
 ---------------------------------------------------------------------
 Rotational constants (GHZ):    151.7379415      9.7535983      9.7535983
 Standard basis: GTBas3 (6D, 7F)
 There are    72 symmetry adapted cartesian basis functions of A'  symmetry.
 There are    36 symmetry adapted cartesian basis functions of A"  symmetry.
 There are    66 symmetry adapted basis functions of A'  symmetry.
 There are    33 symmetry adapted basis functions of A"  symmetry.
    99 basis functions,   153 primitive gaussians,   108 cartesian basis functions
    11 alpha electrons       11 beta electrons
       nuclear repulsion energy        66.3537194078 Hartrees.
 NAtoms=    6 NActive=    6 NUniq=    4 SFac= 2.25D+00 NAtFMM=   60 NAOKFM=F Big=F
 Integral buffers will be    131072 words long.
 Raffenetti 2 integral format.
 Two-electron integral symmetry is turned on.
 One-electron integrals computed using PRISM.
 NBasis=    99 RedAO= T EigKep=  4.43D-04  NBF=    66    33
 NBsUse=    99 1.00D-06 EigRej= -1.00D+00 NBFU=    66    33
 Initial guess from the checkpoint file:  "H3CN2cbs4m.chk"
 B after Tr=     0.000000    0.000000    0.000000
         Rot=    1.000000    0.000000    0.000000    0.000000 Ang=   0.00 deg.
 Initial guess orbital symmetries:
       Occupied  (A1) (A1) (A1) (A1) (A1) (A1) (E) (E) (A1) (E)
                 (E)
       Virtual   (?A) (?A) (?A) (?A) (?A) (?A) (?A) (?A) (?A) (?A)
                 (?A) (?A) (?A) (?A) (?A) (?A) (?A) (?A) (?A) (?A)
                 (?A) (?A) (?A) (?A) (?A) (?A) (?A) (?A) (?A) (?A)
                 (?A) (?A) (?A) (?A) (?A) (?A) (?A) (?A) (?A) (?A)
                 (?A) (?A) (?A) (?A) (?A) (?A) (?A) (?A) (?A) (?A)
                 (?A) (?A) (?A) (?A) (?A) (?A) (?A) (?A) (?A) (?A)
                 (?A) (?A) (?A) (?A) (?A) (?A) (?A) (?A) (?A) (?A)
                 (?A) (?A) (?A) (?A) (?A) (?A) (?A) (?A) (?A) (?A)
                 (?A) (?A) (?A) (?A) (?A) (?A) (?A) (?A)
 Keep R1 ints in memory in symmetry-blocked form, NReq=18536690.
 Requested convergence on RMS density matrix=1.00D-08 within 128 cycles.
 Requested convergence on MAX density matrix=1.00D-06.
 Requested convergence on             energy=1.00D-06.
 No special actions if energy rises.
 SCF Done:  E(RB3LYP) =  -149.095263927     A.U. after    7 cycles
            NFock=  7  Conv=0.30D-08     -V/T= 2.0083
 Calling FoFJK, ICntrl=      2127 FMM=F ISym2X=1 I1Cent= 0 IOpClX= 0 NMat=1 NMatS=1 NMatT=0.
 ***** Axes restored to original set *****
 -------------------------------------------------------------------
 Center     Atomic                   Forces (Hartrees/Bohr)
 Number     Number              X              Y              Z
 -------------------------------------------------------------------
      1        6          -0.000003218   -0.000005573   -0.000002275
      2        1           0.000000501    0.000000867    0.000010241
      3        1           0.000009822    0.000000867   -0.000002942
      4        1          -0.000004160    0.000008940   -0.000002942
      5        7           0.000075917    0.000131493    0.000053682
      6        7          -0.000078862   -0.000136593   -0.000055764
 -------------------------------------------------------------------
 Cartesian Forces:  Max     0.000136593 RMS     0.000054917

 GradGradGradGradGradGradGradGradGradGradGradGradGradGradGradGradGradGrad
 Berny optimization.
 Using GEDIIS/GDIIS optimizer.
 FormGI is forming the generalized inverse of G from B-inverse, IUseBI=4.
 Internal  Forces:  Max     0.000167292 RMS     0.000040832
 Search for a local minimum.
 Step number   5 out of a maximum of   27
 All quantities printed in internal units (Hartrees-Bohrs-Radians)
 Mixed Optimization -- En-DIIS/RFO-DIIS
 Swapping is turned off.
 Update second derivatives using D2CorX and points    1    2    3    4    5
 DE= -7.66D-07 DEPred=-7.37D-07 R= 1.04D+00
 Trust test= 1.04D+00 RLast= 3.69D-03 DXMaxT set to 3.00D-01
 The second derivative matrix:
                          R1        R2        R3        R4        R5
           R1           0.34891
           R2           0.00188   0.34891
           R3           0.00188   0.00188   0.34891
           R4           0.00820   0.00820   0.00820   0.22329
           R5          -0.00133  -0.00133  -0.00133   0.01495   1.53720
           A1           0.00041   0.00041   0.00041  -0.03028  -0.00216
           A2           0.00114   0.00114   0.00114  -0.02706  -0.00088
           A3          -0.00091  -0.00091  -0.00091   0.03247   0.00185
           A4           0.00114   0.00114   0.00114  -0.02706  -0.00088
           A5          -0.00091  -0.00091  -0.00091   0.03247   0.00185
           A6          -0.00125  -0.00125  -0.00125   0.03096   0.00130
           A7           0.00000   0.00000   0.00000   0.00000   0.00000
           A8           0.00000   0.00000   0.00000   0.00000   0.00000
           D1           0.00287   0.00287   0.00287   0.01118   0.00537
           D2           0.00045   0.00045   0.00045   0.00198   0.00081
           D3           0.00022   0.00022   0.00022   0.00099   0.00040
           D4          -0.00022  -0.00022  -0.00022  -0.00099  -0.00040
                          A1        A2        A3        A4        A5
           A1           0.15228
           A2          -0.00682   0.15429
           A3           0.00825   0.00709   0.15131
           A4          -0.00682  -0.00571   0.00709   0.15429
           A5           0.00825   0.00709  -0.00869   0.00709   0.15131
           A6           0.00783   0.00657  -0.00815   0.00657  -0.00815
           A7           0.00000   0.00000   0.00000   0.00000   0.00000
           A8           0.00000   0.00000   0.00000   0.00000   0.00000
           D1           0.00315   0.00401  -0.00414   0.00401  -0.00414
           D2           0.00055   0.00068  -0.00071   0.00068  -0.00071
           D3           0.00028   0.00034  -0.00036   0.00034  -0.00036
           D4          -0.00028  -0.00034   0.00036  -0.00034   0.00036
                          A6        A7        A8        D1        D2
           A6           0.15244
           A7           0.00000   0.05017
           A8           0.00000   0.00000   0.05017
           D1          -0.00454   0.00000   0.00000   0.00580
           D2          -0.00077   0.00000   0.00000   0.00053   0.00916
           D3          -0.00039   0.00000   0.00000   0.00027   0.00004
           D4           0.00039   0.00000   0.00000  -0.00027  -0.00004
                          D3        D4
           D3           0.00910
           D4          -0.00002   0.00910
 ITU=  0  1  1  1  0
     Eigenvalues ---    0.04796   0.05017   0.05017   0.06686   0.07124
     Eigenvalues ---    0.15883   0.16000   0.23229   0.34703   0.34703
     Eigenvalues ---    0.35423   1.53738
 En-DIIS/RFO-DIIS IScMMF=        0 using points:     5    4    3
 RFO step:  Lambda=-2.31822715D-08.
 DidBck=F Rises=F RFO-DIIS coefs:    1.14678   -0.23968    0.09290
 Iteration  1 RMS(Cart)=  0.00003708 RMS(Int)=  0.00000026
 Iteration  2 RMS(Cart)=  0.00000000 RMS(Int)=  0.00000026
 ClnCor:  largest displacement from symmetrization is 4.51D-07 for atom     4.
 Variable       Old X    -DE/DX   Delta X   Delta X   Delta X     New X
                                 (Linear)    (Quad)   (Total)
    R1        2.06826   0.00001   0.00000   0.00003   0.00003   2.06829
    R2        2.06826   0.00001   0.00000   0.00003   0.00003   2.06829
    R3        2.06826   0.00001   0.00000   0.00003   0.00003   2.06829
    R4        2.73745   0.00001  -0.00007   0.00009   0.00002   2.73746
    R5        2.07382   0.00017   0.00006   0.00004   0.00011   2.07393
    A1        1.95996   0.00000   0.00003  -0.00005  -0.00002   1.95994
    A2        1.95996   0.00000   0.00003  -0.00005  -0.00002   1.95994
    A3        1.85827   0.00000  -0.00003   0.00005   0.00002   1.85829
    A4        1.95996   0.00000   0.00003  -0.00005  -0.00002   1.95994
    A5        1.85827   0.00000  -0.00003   0.00005   0.00002   1.85829
    A6        1.85827   0.00000  -0.00003   0.00005   0.00002   1.85829
    A7        3.14159   0.00000   0.00000   0.00000   0.00000   3.14159
    A8        3.14159   0.00000   0.00000   0.00000   0.00000   3.14159
    D1        2.22861   0.00000   0.00009  -0.00014  -0.00005   2.22856
    D2       -2.09440   0.00000   0.00000   0.00000   0.00000  -2.09440
    D3        2.09440   0.00000   0.00000   0.00000   0.00000   2.09440
    D4       -2.09440   0.00000   0.00000   0.00000   0.00000  -2.09440
         Item               Value     Threshold  Converged?
 Maximum Force            0.000167     0.000450     YES
 RMS     Force            0.000041     0.000300     YES
 Maximum Displacement     0.000102     0.001800     YES
 RMS     Displacement     0.000037     0.001200     YES
 Predicted change in Energy=-9.619254D-09
 Optimization completed.
    -- Stationary point found.
                           ----------------------------
                           !   Optimized Parameters   !
                           ! (Angstroms and Degrees)  !
 --------------------------                            --------------------------
 ! Name  Definition              Value          Derivative Info.                !
 --------------------------------------------------------------------------------
 ! R1    R(1,2)                  1.0945         -DE/DX =    0.0                 !
 ! R2    R(1,3)                  1.0945         -DE/DX =    0.0                 !
 ! R3    R(1,4)                  1.0945         -DE/DX =    0.0                 !
 ! R4    R(1,5)                  1.4486         -DE/DX =    0.0                 !
 ! R5    R(5,6)                  1.0974         -DE/DX =    0.0002              !
 ! A1    A(2,1,3)              112.2975         -DE/DX =    0.0                 !
 ! A2    A(2,1,4)              112.2975         -DE/DX =    0.0                 !
 ! A3    A(2,1,5)              106.471          -DE/DX =    0.0                 !
 ! A4    A(3,1,4)              112.2975         -DE/DX =    0.0                 !
 ! A5    A(3,1,5)              106.471          -DE/DX =    0.0                 !
 ! A6    A(4,1,5)              106.471          -DE/DX =    0.0                 !
 ! A7    L(1,5,6,2,-1)         180.0            -DE/DX =    0.0                 !
 ! A8    L(1,5,6,2,-2)         180.0            -DE/DX =    0.0                 !
 ! D1    D(2,1,4,3)            127.6897         -DE/DX =    0.0                 !
 ! D2    D(2,1,5,3)           -120.0            -DE/DX =    0.0                 !
 ! D3    D(2,1,5,4)            120.0            -DE/DX =    0.0                 !
 ! D4    D(3,1,5,4)           -120.0            -DE/DX =    0.0                 !
 --------------------------------------------------------------------------------
 GradGradGradGradGradGradGradGradGradGradGradGradGradGradGradGradGradGrad

                          Input orientation:                          
 ---------------------------------------------------------------------
 Center     Atomic      Atomic             Coordinates (Angstroms)
 Number     Number       Type             X           Y           Z
 ---------------------------------------------------------------------
      1          6           0        0.007275    0.012601    0.005144
      2          1           0       -0.021367   -0.037009    1.098120
      3          1           0        1.028195   -0.037009   -0.386186
      4          1           0       -0.546148    0.871939   -0.386185
      5          7           0       -0.675600   -1.170172   -0.477720
      6          7           0       -1.192927   -2.066210   -0.843525
 ---------------------------------------------------------------------
                    Distance matrix (angstroms):
                    1          2          3          4          5
     1  C    0.000000
     2  H    1.094476   0.000000
     3  H    1.094476   1.817896   0.000000
     4  H    1.094476   1.817896   1.817896   0.000000
     5  N    1.448595   2.048256   2.048256   2.048256   0.000000
     6  N    2.546012   3.043057   3.043057   3.043057   1.097417
                    6
     6  N    0.000000
 Stoichiometry    CH3N2(1+)
 Framework group  C3V[C3(CNN),3SGV(H)]
 Deg. of freedom     4
 Full point group                 C3V     NOp   6
 Largest Abelian subgroup         CS      NOp   2
 Largest concise Abelian subgroup CS      NOp   2
                         Standard orientation:                         
 ---------------------------------------------------------------------
 Center     Atomic      Atomic             Coordinates (Angstroms)
 Number     Number       Type             X           Y           Z
 ---------------------------------------------------------------------
      1          6           0        0.000000    0.000000   -1.175274
      2          1           0        0.000000    1.049562   -1.485591
      3          1           0        0.908948   -0.524781   -1.485591
      4          1           0       -0.908948   -0.524781   -1.485591
      5          7           0        0.000000    0.000000    0.273321
      6          7           0        0.000000    0.000000    1.370738
 ---------------------------------------------------------------------
 Rotational constants (GHZ):    151.7379415      9.7535983      9.7535983

 **********************************************************************

            Population analysis using the SCF density.

 **********************************************************************

 Orbital symmetries:
       Occupied  (A1) (A1) (A1) (A1) (A1) (A1) (E) (E) (A1) (E)
                 (E)
       Virtual   (E) (E) (A1) (A1) (E) (E) (A1) (A1) (E) (E) (A1)
                 (E) (E) (E) (E) (E) (E) (E) (E) (A1) (A1) (E)
                 (E) (A1) (E) (E) (A1) (E) (E) (A1) (A1) (E) (E)
                 (E) (E) (A1) (A2) (A1) (E) (E) (A1) (A1) (E) (E)
                 (E) (E) (A1) (A1) (E) (E) (A2) (A1) (E) (E) (A1)
                 (E) (E) (A2) (A1) (E) (E) (A2) (E) (E) (E) (E)
                 (E) (E) (A1) (A1) (E) (E) (E) (E) (E) (E) (A1)
                 (E) (E) (A1) (A1) (E) (E) (A1) (A1) (A1) (A1)
                 (A1)
 The electronic state is 1-A1.
 Alpha  occ. eigenvalues --  -14.78294 -14.75761 -10.52955  -1.44259  -1.11946
 Alpha  occ. eigenvalues --   -0.85138  -0.80073  -0.80073  -0.74533  -0.68484
 Alpha  occ. eigenvalues --   -0.68484
 Alpha virt. eigenvalues --   -0.32260  -0.32260  -0.15760  -0.12680  -0.07321
 Alpha virt. eigenvalues --   -0.07321   0.04982   0.21381   0.23458   0.23458
 Alpha virt. eigenvalues --    0.32000   0.32657   0.32657   0.41502   0.41502
 Alpha virt. eigenvalues --    0.46952   0.46952   0.47233   0.47233   0.50023
 Alpha virt. eigenvalues --    0.54492   0.62636   0.62636   0.76822   0.84083
 Alpha virt. eigenvalues --    0.84083   1.04354   1.05453   1.05453   1.06991
 Alpha virt. eigenvalues --    1.24420   1.41317   1.41317   1.48074   1.48074
 Alpha virt. eigenvalues --    1.50794   1.63971   1.87230   2.03392   2.03392
 Alpha virt. eigenvalues --    2.08983   2.43066   2.50280   2.50280   2.61769
 Alpha virt. eigenvalues --    2.61769   2.65988   2.81513   2.94698   2.94698
 Alpha virt. eigenvalues --    2.96128   2.97675   3.19544   3.19544   3.20134
 Alpha virt. eigenvalues --    3.24293   3.24293   3.38441   3.46593   3.47273
 Alpha virt. eigenvalues --    3.47273   3.56966   3.68908   3.68908   3.77342
 Alpha virt. eigenvalues --    3.77342   3.85985   3.85985   3.90229   4.09032
 Alpha virt. eigenvalues --    4.11572   4.11572   4.38521   4.38521   4.50471
 Alpha virt. eigenvalues --    4.50471   4.66074   4.67902   4.67902   4.88983
 Alpha virt. eigenvalues --    5.16763   5.31268   5.31268   6.18560   9.47176
 Alpha virt. eigenvalues --   10.78112  11.28790  12.12859
          Condensed to atoms (all electrons):
               1          2          3          4          5          6
     1  C    4.943903   0.365919   0.365919   0.365919   0.303870  -0.033565
     2  H    0.365919   0.394795  -0.015876  -0.015876  -0.014783  -0.000083
     3  H    0.365919  -0.015876   0.394795  -0.015876  -0.014783  -0.000083
     4  H    0.365919  -0.015876  -0.015876   0.394795  -0.014783  -0.000083
     5  N    0.303870  -0.014783  -0.014783  -0.014783   5.526538   0.826912
     6  N   -0.033565  -0.000083  -0.000083  -0.000083   0.826912   6.139676
 Mulliken charges:
               1
     1  C   -0.311965
     2  H    0.285903
     3  H    0.285903
     4  H    0.285903
     5  N    0.387029
     6  N    0.067226
 Sum of Mulliken charges =   1.00000
 Mulliken charges with hydrogens summed into heavy atoms:
               1
     1  C    0.545745
     5  N    0.387029
     6  N    0.067226
 Electronic spatial extent (au):  <R**2>=            141.5495
 Charge=              1.0000 electrons
 Dipole moment (field-independent basis, Debye):
    X=              0.0000    Y=              0.0000    Z=             -2.2487  Tot=              2.2487
 Quadrupole moment (field-independent basis, Debye-Ang):
   XX=            -14.0840   YY=            -14.0840   ZZ=             -9.0530
   XY=              0.0000   XZ=              0.0000   YZ=              0.0000
 Traceless Quadrupole moment (field-independent basis, Debye-Ang):
   XX=             -1.6770   YY=             -1.6770   ZZ=              3.3540
   XY=              0.0000   XZ=              0.0000   YZ=              0.0000
 Octapole moment (field-independent basis, Debye-Ang**2):
  XXX=              0.0000  YYY=              1.3058  ZZZ=             -6.2782  XYY=              0.0000
  XXY=             -1.3058  XXZ=             -1.5875  XZZ=              0.0000  YZZ=              0.0000
  YYZ=             -1.5875  XYZ=              0.0000
 Hexadecapole moment (field-independent basis, Debye-Ang**3):
 XXXX=            -16.4304 YYYY=            -16.4304 ZZZZ=           -119.9289 XXXY=              0.0000
 XXXZ=              0.0000 YYYX=              0.0000 YYYZ=             -2.0707 ZZZX=              0.0000
 ZZZY=              0.0000 XXYY=             -5.4768 XXZZ=            -20.8627 YYZZ=            -20.8627
 XXYZ=              2.0707 YYXZ=              0.0000 ZZXY=              0.0000
 N-N= 6.635371940784D+01 E-N=-4.727644881757D+02  KE= 1.478670768131D+02
 Symmetry A'   KE= 1.421552102750D+02
 Symmetry A"   KE= 5.711866538082D+00
 1\1\GINC-TC-NODE161\FOpt\RB3LYP\GTBas3\C1H3N2(1+)\MAXB2\25-Oct-2016\0\
 \# g4 geom=allcheck\\Title Card Required\\1,1\C,0.0072750144,0.0126007
 139,0.0051442364\H,-0.0213667113,-0.0370087371,1.0981202954\H,1.028195
 0992,-0.0370093951,-0.3861857125\H,-0.5461484658,0.8719387103,-0.38618
 52551\N,-0.6755997646,-1.1701723035,-0.477720151\N,-1.192927439,-2.066
 2095172,-0.8435253004\\Version=ES64L-G09RevD.01\State=1-A1\HF=-149.095
 2639\RMSD=3.006e-09\RMSF=5.492e-05\Dipole=0.4170527,0.7223559,0.294900
 2\Quadrupole=-0.4155972,1.246795,-0.8311978,1.4396758,0.5877444,1.0180
 024\PG=C03V [C3(C1N1N1),3SGV(H1)]\\@


 There are more things in heaven and earth, Horatio,
 than are dreamt of in your philosophy.
                   -- Hamlet, Act I, Scene 5
 Job cpu time:       0 days  0 hours  1 minutes 53.1 seconds.
 File lengths (MBytes):  RWF=      7 Int=      0 D2E=      0 Chk=      3 Scr=      1
 Normal termination of Gaussian 09 at Tue Oct 25 12:09:55 2016.
[...]
      1          6           0        0.000000    0.000000   -1.175274
      2          1           0        0.000000    1.049562   -1.485591
      3          1           0        0.908948   -0.524781   -1.485591
      4          1           0       -0.908948   -0.524781   -1.485591
      5          7           0        0.000000    0.000000    0.273321
      6          7           0        0.000000    0.000000    1.370738
 ---------------------------------------------------------------------
 Rotational constants (GHZ):    151.7379415      9.7535983      9.7535983
 Standard basis: GFHFB2 (5D, 7F)
 There are   294 symmetry adapted cartesian basis functions of A'  symmetry.
 There are   174 symmetry adapted cartesian basis functions of A"  symmetry.
 There are   218 symmetry adapted basis functions of A'  symmetry.
 There are   139 symmetry adapted basis functions of A"  symmetry.
   357 basis functions,   546 primitive gaussians,   468 cartesian basis functions
    11 alpha electrons       11 beta electrons
       nuclear repulsion energy        66.3537194078 Hartrees.
 NAtoms=    6 NActive=    6 NUniq=    4 SFac= 2.25D+00 NAtFMM=   60 NAOKFM=F Big=F
 Integral buffers will be    131072 words long.
 Raffenetti 1 integral format.
 Two-electron integral symmetry is turned on.
 One-electron integrals computed using PRISM.
 NBasis=   357 RedAO= T EigKep=  1.49D-05  NBF=   218   139
 NBsUse=   357 1.00D-06 EigRej= -1.00D+00 NBFU=   218   139
 Initial guess from the checkpoint file:  "H3CN2cbs4m.chk"
 B after Tr=     0.000000    0.000000    0.000000
         Rot=    1.000000    0.000000    0.000000    0.000000 Ang=   0.00 deg.
 Initial guess orbital symmetries:
       Occupied  (A1) (A1) (A1) (A1) (A1) (A1) (E) (E) (A1) (E)
                 (E)
       Virtual   (E) (E) (A1) (A1) (E) (E) (A1) (E) (E) (A1) (E)
                 (E) (E) (E) (A1) (A1) (A1) (A1) (E) (E) (A1) (E)
                 (E) (A1) (E) (E) (A1) (E) (E) (E) (E) (A1) (A1)
                 (E) (E) (A1) (E) (E) (A1) (A2) (A1) (E) (E) (A1)
                 (E) (E) (E) (E) (A1) (E) (E) (A1) (A1) (E) (E)
                 (E) (E) (A1) (E) (E) (A1) (E) (E) (A1) (E) (E)
                 (A2) (A1) (E) (E) (A1) (E) (E) (A2) (E) (E) (A1)
                 (A1) (E) (E) (E) (E) (A1) (A1) (A2) (E) (E) (A1)
                 (E) (E) (E) (E) (E) (E) (A1) (E) (E) (A1) (A2)
                 (A1) (E) (E) (E) (E) (A1) (E) (E) (A2) (A1) (E)
                 (E) (E) (E) (A1) (E) (E) (A1) (A1) (E) (E) (E)
                 (E) (A2) (E) (E) (A1) (A1) (E) (E) (A1) (E) (E)
                 (A1) (E) (E) (A2) (A1) (E) (E) (A1) (E) (E) (A2)
                 (A1) (E) (E) (E) (E) (E) (E) (A1) (E) (E) (E)
                 (E) (A1) (E) (E) (A2) (E) (E) (E) (E) (A1) (A1)
                 (E) (E) (A2) (E) (E) (A1) (A1) (E) (E) (E) (E)
                 (A2) (A1) (E) (E) (A2) (A1) (A1) (E) (E) (A1)
                 (E) (E) (E) (E) (E) (E) (A1) (A1) (E) (E) (E)
                 (E) (A1) (E) (E) (E) (E) (A1) (E) (E) (A1) (A1)
                 (A1) (A1) (A1) (?A) (?A) (?A) (?A) (?A) (?A) (?A)
                 (?A) (?A) (?A) (?A) (?A) (?A) (?A) (?A) (?A) (?A)
                 (?A) (?A) (?A) (?A) (?A) (?A) (?A) (?A) (?A) (?A)
                 (?A) (?A) (?A) (?A) (?A) (?A) (?A) (?A) (?A) (?A)
                 (?A) (?A) (?A) (?A) (?A) (?A) (?A) (?A) (?A) (?A)
                 (?A) (?A) (?A) (?A) (?A) (?A) (?A) (?A) (?A) (?A)
                 (?A) (?A) (?A) (?A) (?A) (?A) (?A) (?A) (?A) (?A)
                 (?A) (?A) (?A) (?A) (?A) (?A) (?A) (?A) (?A) (?A)
                 (?A) (?A) (?A) (?A) (?A) (?A) (?A) (?A) (?A) (?A)
                 (?A) (?A) (?A) (?A) (?A) (?A) (?A) (?A) (?A) (?A)
                 (?A) (?A) (?A) (?A) (?A) (?A) (?A) (?A) (?A) (?A)
                 (?A) (?A) (?A) (?A) (?A) (?A) (?A) (?A) (?A) (?A)
                 (?A) (?A) (?A) (?A) (?A) (?A) (?A) (?A) (?A) (?A)
                 (?A) (?A) (?A) (?A) (?A) (?A) (?A) (?A)
 Requested convergence on RMS density matrix=1.00D-08 within 128 cycles.
 Requested convergence on MAX density matrix=1.00D-06.
 Requested convergence on             energy=1.00D-06.
 No special actions if energy rises.
 SCF Done:  E(RHF) =  -148.282622756     A.U. after    7 cycles
            NFock=  7  Conv=0.56D-08     -V/T= 2.0019

 **********************************************************************

            Population analysis using the SCF density.

 **********************************************************************

 Orbital symmetries:
       Occupied  (A1) (A1) (A1) (A1) (A1) (A1) (E) (E) (A1) (E)
                 (E)
       Virtual   (E) (E) (A1) (A1) (E) (E) (A1) (E) (E) (E) (E)
                 (A1) (E) (E) (A1) (A1) (A1) (E) (E) (A1) (A1)
                 (E) (E) (E) (E) (A1) (E) (E) (A1) (E) (E) (A1)
                 (A1) (E) (E) (A1) (E) (E) (A1) (A2) (E) (E) (A1)
                 (A1) (E) (E) (E) (E) (A1) (E) (E) (A1) (E) (E)
                 (A1) (E) (E) (A1) (E) (E) (E) (E) (A1) (E) (E)
                 (A1) (A2) (E) (E) (A1) (A1) (E) (E) (E) (E) (A2)
                 (A1) (A1) (E) (E) (A1) (E) (E) (A2) (A1) (E) (E)
                 (E) (E) (A1) (E) (E) (A2) (A1) (E) (E) (E) (E)
                 (A1) (A1) (E) (E) (E) (E) (A1) (E) (E) (E) (E)
                 (A1) (E) (E) (A2) (A1) (A1) (E) (E) (A1) (E) (E)
                 (A2) (A1) (E) (E) (E) (E) (A1) (E) (E) (E) (E)
                 (A1) (E) (E) (A1) (A1) (A2) (E) (E) (E) (E) (E)
                 (E) (A1) (E) (E) (A1) (E) (E) (A1) (A2) (E) (E)
                 (A1) (E) (E) (A1) (E) (E) (A1) (E) (E) (E) (E)
                 (E) (E) (A2) (A1) (E) (E) (A2) (A1) (A1) (E) (E)
                 (A2) (E) (E) (A1) (A1) (E) (E) (A2) (E) (E) (A1)
                 (E) (E) (A1) (E) (E) (A1) (E) (E) (E) (E) (A1)
                 (A1) (E) (E) (E) (E) (A2) (A1) (A1) (E) (E) (E)
                 (E) (E) (E) (A1) (A1) (E) (E) (A2) (E) (E) (A1)
                 (E) (E) (E) (E) (A1) (E) (E) (A2) (A1) (E) (E)
                 (E) (E) (A2) (A1) (E) (E) (A1) (E) (E) (A1) (E)
                 (E) (A1) (E) (E) (E) (E) (A2) (E) (E) (A1) (E)
                 (E) (A1) (E) (E) (A2) (E) (E) (A2) (E) (E) (A1)
                 (E) (E) (A1) (E) (E) (E) (E) (E) (E) (A1) (E)
                 (E) (E) (E) (A1) (A1) (E) (E) (E) (E) (A1) (E)
                 (E) (E) (E) (A2) (A1) (A1) (E) (E) (E) (E) (E)
                 (E) (A2) (A1) (E) (E) (A1) (A2) (A1) (E) (E) (A1)
                 (A2) (E) (E) (A1) (A2) (A1) (A1) (E) (E) (A1)
                 (E) (E) (E) (E) (A1) (A1) (E) (E) (E) (E) (A1)
                 (E) (E) (E) (E) (E) (E) (E) (E) (A1) (E) (E) (E)
                 (E) (A1) (A1) (A1) (A1) (A1)
 The electronic state is 1-A1.
 Alpha  occ. eigenvalues --  -16.01842 -16.00557 -11.56562  -1.78505  -1.37564
 Alpha  occ. eigenvalues --   -1.05025  -0.96213  -0.96213  -0.95104  -0.82728
 Alpha  occ. eigenvalues --   -0.82728
 Alpha virt. eigenvalues --   -0.13680  -0.13680  -0.11356  -0.07602  -0.07601
 Alpha virt. eigenvalues --   -0.07601  -0.04738  -0.02948  -0.02948   0.00380
 Alpha virt. eigenvalues --    0.00380   0.01046   0.02024   0.02024   0.02449
 Alpha virt. eigenvalues --    0.03627   0.08618   0.09180   0.09180   0.10482
 Alpha virt. eigenvalues --    0.17333   0.21609   0.21609   0.23723   0.23723
 Alpha virt. eigenvalues --    0.25924   0.30769   0.30769   0.30867   0.35352
 Alpha virt. eigenvalues --    0.35352   0.37286   0.37814   0.40527   0.40527
 Alpha virt. eigenvalues --    0.40880   0.50266   0.50266   0.52657   0.54877
 Alpha virt. eigenvalues --    0.62720   0.62720   0.62894   0.73065   0.73409
 Alpha virt. eigenvalues --    0.73409   0.78849   0.78849   0.87602   0.89459
 Alpha virt. eigenvalues --    0.89459   0.90631   0.95040   0.95040   0.95232
 Alpha virt. eigenvalues --    0.99695   0.99695   1.06411   1.09321   1.09321
 Alpha virt. eigenvalues --    1.10381   1.10381   1.13907   1.22566   1.22566
 Alpha virt. eigenvalues --    1.29216   1.29330   1.29621   1.29621   1.31108
 Alpha virt. eigenvalues --    1.33916   1.44488   1.44488   1.49925   1.49925
 Alpha virt. eigenvalues --    1.53638   1.56691   1.58693   1.68829   1.68829
 Alpha virt. eigenvalues --    1.72878   1.83940   1.83940   1.90392   1.95509
 Alpha virt. eigenvalues --    1.98064   1.98064   2.05107   2.05107   2.06518
 Alpha virt. eigenvalues --    2.10891   2.10891   2.15948   2.18374   2.19793
 Alpha virt. eigenvalues --    2.19793   2.27091   2.27091   2.27768   2.39533
 Alpha virt. eigenvalues --    2.40992   2.40992   2.48856   2.48856   2.56430
 Alpha virt. eigenvalues --    2.60005   2.60005   2.63197   2.63197   2.66562
 Alpha virt. eigenvalues --    2.70418   2.70418   2.72077   2.75005   2.88994
 Alpha virt. eigenvalues --    2.89086   2.89086   2.97393   3.04753   3.04753
 Alpha virt. eigenvalues --    3.09955   3.12854   3.14449   3.14449   3.20112
 Alpha virt. eigenvalues --    3.20112   3.23971   3.37775   3.37775   3.44235
 Alpha virt. eigenvalues --    3.44235   3.45971   3.54351   3.54351   3.56127
 Alpha virt. eigenvalues --    3.67522   3.78144   3.78168   3.78168   3.96067
 Alpha virt. eigenvalues --    3.96067   4.02472   4.02472   4.02517   4.15396
 Alpha virt. eigenvalues --    4.15396   4.28003   4.37942   4.37942   4.43571
 Alpha virt. eigenvalues --    4.44610   4.46117   4.46117   4.51980   4.58180
 Alpha virt. eigenvalues --    4.58180   4.70712   4.76157   4.76157   4.82966
 Alpha virt. eigenvalues --    4.87504   4.87504   4.94183   4.94183   5.03301
 Alpha virt. eigenvalues --    5.03301   5.06542   5.14635   5.19454   5.19454
 Alpha virt. eigenvalues --    5.19968   5.22421   5.33278   5.37958   5.37958
 Alpha virt. eigenvalues --    5.39178   5.47629   5.47629   5.51206   5.60169
 Alpha virt. eigenvalues --    5.69976   5.69976   5.73316   5.75272   5.75272
 Alpha virt. eigenvalues --    5.82316   5.82612   5.82612   6.02118   6.09644
 Alpha virt. eigenvalues --    6.09644   6.23852   6.29965   6.29965   6.47182
 Alpha virt. eigenvalues --    6.47182   6.71832   7.05731   7.08510   7.08510
 Alpha virt. eigenvalues --    7.36703   7.36703   7.49413   7.56746   7.63211
 Alpha virt. eigenvalues --    7.65107   7.65107   7.70251   7.70251   7.90007
 Alpha virt. eigenvalues --    7.90007   7.96044   8.14976   8.15459   8.15459
 Alpha virt. eigenvalues --    8.15985   8.39024   8.39024   8.55147   8.58316
 Alpha virt. eigenvalues --    8.58316   8.60217   8.60217   8.75723   8.95130
 Alpha virt. eigenvalues --    8.95130   9.06659   9.08469   9.11862   9.11862
 Alpha virt. eigenvalues --    9.16014   9.16014   9.40054   9.51956   9.54712
 Alpha virt. eigenvalues --    9.54712   9.65672   9.69383   9.69383   9.80672
 Alpha virt. eigenvalues --    9.93292   9.93292  10.08685  10.30496  10.30496
 Alpha virt. eigenvalues --   10.34055  10.34055  10.42349  10.44840  10.44840
 Alpha virt. eigenvalues --   10.53080  10.53754  10.53754  10.59946  10.62967
 Alpha virt. eigenvalues --   10.62967  10.67109  10.73457  10.73457  11.01100
 Alpha virt. eigenvalues --   11.05585  11.05585  11.09983  11.22848  11.22848
 Alpha virt. eigenvalues --   11.25970  11.37566  11.37566  11.57576  11.57576
 Alpha virt. eigenvalues --   11.64273  11.64273  11.69080  11.75651  11.75651
 Alpha virt. eigenvalues --   11.83589  11.83589  12.04349  12.14413  12.38297
 Alpha virt. eigenvalues --   12.38297  12.46161  12.46161  12.58933  12.73522
 Alpha virt. eigenvalues --   12.73522  12.89438  12.89438  12.90077  12.90087
 Alpha virt. eigenvalues --   12.94746  12.98511  12.98511  13.31964  13.31964
 Alpha virt. eigenvalues --   13.61729  13.61729  13.73551  13.75782  13.80975
 Alpha virt. eigenvalues --   13.80975  13.82257  13.89682  13.91129  14.07182
 Alpha virt. eigenvalues --   14.07182  14.10184  14.23489  14.23961  14.23961
 Alpha virt. eigenvalues --   14.29638  14.34664  14.37104  14.40026  14.66695
 Alpha virt. eigenvalues --   14.66695  14.86559  15.10864  15.10864  16.03115
 Alpha virt. eigenvalues --   16.03115  16.04492  16.63195  16.70112  16.70112
 Alpha virt. eigenvalues --   16.85848  16.85848  16.98066  17.14615  17.14615
 Alpha virt. eigenvalues --   17.29106  17.29106  17.50619  17.50619  17.67136
 Alpha virt. eigenvalues --   17.67136  19.03701  19.27221  19.27221  21.18218
 Alpha virt. eigenvalues --   21.18218  21.82726  23.12490  40.10041  49.15046
 Alpha virt. eigenvalues --   54.46633
          Condensed to atoms (all electrons):
               1          2          3          4          5          6
     1  C    5.092554   0.391229   0.391229   0.391229   0.310129  -0.060733
     2  H    0.391229   0.353473  -0.009961  -0.009961  -0.020546  -0.000032
     3  H    0.391229  -0.009961   0.353473  -0.009961  -0.020546  -0.000032
     4  H    0.391229  -0.009961  -0.009961   0.353473  -0.020546  -0.000032
     5  N    0.310129  -0.020546  -0.020546  -0.020546   5.571077   0.719444
     6  N   -0.060733  -0.000032  -0.000032  -0.000032   0.719444   6.174130
 Mulliken charges:
               1
     1  C   -0.515636
     2  H    0.295798
     3  H    0.295798
     4  H    0.295798
     5  N    0.460988
     6  N    0.167254
 Sum of Mulliken charges =   1.00000
 Mulliken charges with hydrogens summed into heavy atoms:
               1
     1  C    0.371757
     5  N    0.460988
     6  N    0.167254
 Electronic spatial extent (au):  <R**2>=            141.7764
 Charge=              1.0000 electrons
 Dipole moment (field-independent basis, Debye):
    X=              0.0000    Y=              0.0000    Z=             -2.0188  Tot=              2.0188
 Quadrupole moment (field-independent basis, Debye-Ang):
   XX=            -14.2846   YY=            -14.2846   ZZ=             -8.9570
   XY=              0.0000   XZ=              0.0000   YZ=              0.0000
 Traceless Quadrupole moment (field-independent basis, Debye-Ang):
   XX=             -1.7759   YY=             -1.7759   ZZ=              3.5517
   XY=              0.0000   XZ=              0.0000   YZ=              0.0000
 Octapole moment (field-independent basis, Debye-Ang**2):
  XXX=              0.0000  YYY=              1.2790  ZZZ=             -5.6565  XYY=              0.0000
  XXY=             -1.2790  XXZ=             -1.4877  XZZ=              0.0000  YZZ=              0.0000
  YYZ=             -1.4877  XYZ=              0.0000
 Hexadecapole moment (field-independent basis, Debye-Ang**3):
 XXXX=            -16.6214 YYYY=            -16.6214 ZZZZ=           -118.8252 XXXY=              0.0000
 XXXZ=              0.0000 YYYX=              0.0000 YYYZ=             -2.0750 ZZZX=              0.0000
 ZZZY=              0.0000 XXYY=             -5.5405 XXZZ=            -21.0409 YYZZ=            -21.0409
 XXYZ=              2.0750 YYXZ=              0.0000 ZZXY=              0.0000
 N-N= 6.635371940784D+01 E-N=-4.726104970608D+02  KE= 1.479986163676D+02
 Symmetry A'   KE= 1.424645078398D+02
 Symmetry A"   KE= 5.534108527755D+00
 1\1\GINC-TC-NODE161\SP\RHF\GFHFB2\C1H3N2(1+)\MAXB2\25-Oct-2016\0\\#N G
 eom=AllCheck Guess=TCheck SCRF=Check HF/GFHFB2 SCF=Tight\\Title Card R
 equired\\1,1\C,0,0.0072750144,0.0126007139,0.0051442364\H,0,-0.0213667
 113,-0.0370087371,1.0981202954\H,0,1.0281950992,-0.0370093951,-0.38618
 57125\H,0,-0.5461484658,0.8719387103,-0.3861852551\N,0,-0.6755997646,-
 1.1701723035,-0.477720151\N,0,-1.192927439,-2.0662095172,-0.8435253004
 \\Version=ES64L-G09RevD.01\State=1-A1\HF=-148.2826228\RMSD=5.590e-09\D
 ipole=0.3744129,0.6485016,0.2647493\Quadrupole=-0.4401024,1.3203107,-0
 .8802083,1.5245645,0.6224,1.0780277\PG=C03V [C3(C1N1N1),3SGV(H1)]\\@


 THOSE WHO ASPIRE NOT TO GUESS AND DIVINE,
 BUT TO DISCOVER AND KNOW, WHO PROPOSE NOT TO DEVISE 
 MIMIC AND FABULOUS WORLDS OF THEIR OWN, BUT TO 
 EXAMINE AND DISSECT THE NATURE OF THIS VERY WORLD 
 ITSELF, MUST GO TO THE FACTS THEMSELVES FOR EVERYTHING.

                               -- FRANCIS BACON, 1620
 Diagonal vibrational polarizability:
        0.0000000       0.0000000       0.0000000

 Temperature=              298.150000 Pressure=                      1.000000
 E(ZPE)=                     0.044564 E(Thermal)=                    0.048251
 E(CCSD(T))=              -148.685357 E(Empiric)=                   -0.055576
 DE(Plus)=                  -0.004138 DE(2DF)=                      -0.102967
 E(Delta-G3XP)=             -0.191673 DE(HF)=                       -0.015739
 G4(0 K)=                 -149.010886 G4 Energy=                  -149.007199
 G4 Enthalpy=             -149.006255 G4 Free Energy=             -149.033950
 1\1\GINC-TC-NODE161\Mixed\G4\G4\C1H3N2(1+)\MAXB2\25-Oct-2016\0\\# g4 g
 eom=allcheck\\Title Card Required\\1,1\C,0,0.0072750144,0.0126007139,0
 .0051442364\H,0,-0.0213667113,-0.0370087371,1.0981202954\H,0,1.0281950
 992,-0.0370093951,-0.3861857125\H,0,-0.5461484658,0.8719387103,-0.3861
 852551\N,0,-0.6755997646,-1.1701723035,-0.477720151\N,0,-1.192927439,-
 2.0662095172,-0.8435253004\\Version=ES64L-G09RevD.01\State=1-A1\MP2/GT
 Bas1=-148.6522667\MP4/GTBas1=-148.6886254\CCSD(T)/G3Bas1=-148.6853568\
 MP2/GTBas2=-148.656009\MP4/GTBas2=-148.6927634\MP2/GTBas3=-148.749484\
 MP4/GTBas3=-148.7915924\HF/GTLargeXP=-148.2674434\MP2/GTLargeXP=-148.9
 448992\HF/GFHFB1=-148.2803248\HF/GFHFB2=-148.2826228\G4=-149.0108858\F
 reqCoord=0.0137477848,0.0238118983,0.009721198,-0.0403772327,-0.069936
 3776,2.0751466193,1.9430071488,-0.069937621,-0.7297852331,-1.032071028
 3,1.6477253672,-0.7297843686,-1.2766985306,-2.2113051818,-0.9027602535
 ,-2.2543061561,-3.9045701208,-1.5940318038\PG=C03V [C3(C1N1N1),3SGV(H1
 )]\NImag=0\\0.52471477,-0.09808036,0.41146148,-0.04004033,-0.06935183,
 0.55302755,-0.04269822,-0.00133023,0.01499739,0.04489497,-0.00133023,-
 0.04423425,0.02597636,0.00650701,0.05240862,0.00995189,0.01723731,-0.3
 2088971,-0.00661427,-0.01145640,0.34363726,-0.28213810,0.01580834,0.09
 460665,0.00323090,0.00151360,-0.00092651,0.30628615,0.02404764,-0.0442
 3339,-0.00991304,-0.00008315,0.00019530,0.00163482,-0.00863235,0.05240
 864,0.09965307,-0.00700005,-0.08144873,0.02777980,-0.00062335,-0.00626
 320,-0.09903028,0.00995373,0.08224606,-0.12096767,0.11709942,-0.055888
 19,0.00033479,-0.00175520,0.00187905,-0.00947438,0.02180320,-0.0109616
 7,0.12335381,0.10886012,-0.20540391,0.07697519,-0.00015846,0.00309140,
 0.00001502,-0.00003865,0.00309138,-0.00015440,-0.11424837,0.23534107,-
 0.05588868,0.08280200,-0.08144864,-0.01442973,0.02374635,-0.00626319,0
 .00534712,-0.00957029,0.00354599,0.05813525,-0.08078580,0.08224597,-0.
 08938855,-0.01633430,-0.00666818,-0.00646818,-0.00321000,-0.00714541,-
 0.02096233,-0.04028724,-0.01889145,0.01008863,0.00518919,0.01039722,0.
 47892703,-0.01633430,-0.10824975,-0.01154962,-0.00320999,-0.01017475,-
 0.01237621,-0.01273807,-0.01017522,0.00109870,-0.02235999,-0.04122618,
 -0.01581113,0.63179117,1.20845566,-0.00666954,-0.01155197,-0.08467293,
 -0.02401553,-0.04159609,-0.01175689,-0.00202046,0.01083888,0.00273658,
 0.01039697,0.00366965,0.00273656,0.25792827,0.44674457,0.29654486,0.01
 047665,-0.01716324,-0.00700711,0.00070556,-0.00172522,0.00285543,0.003
 05856,0.00315206,0.00145059,-0.00333524,0.00039619,-0.00356161,-0.3721
 9599,-0.57714884,-0.23561987,0.36129041,-0.01716324,-0.00934173,-0.012
 13667,-0.00172522,-0.00128656,0.00494575,0.00408765,-0.00128665,-0.003
 27510,-0.00053939,0.00510714,-0.00038130,-0.57714884,-1.03862917,-0.40
 810531,0.59248930,1.04543721,-0.00700663,-0.01213582,0.01543121,0.0022
 8247,0.00395335,0.00153616,0.00202334,-0.00294440,-0.00081671,-0.00356
 159,0.00028006,-0.00081671,-0.23561998,-0.40810551,-0.20558707,0.24188
 253,0.41895254,0.19025287\\0.00000323,0.00000559,0.00000228,-0.0000005
 0,-0.00000087,-0.00001025,-0.00000983,-0.00000087,0.00000294,0.0000041
 6,-0.00000895,0.00000294,-0.00007586,-0.00013139,-0.00005364,0.0000788
 0,0.00013649,0.00005572\\\@
 Job cpu time:       0 days  0 hours 16 minutes 46.4 seconds.
 File lengths (MBytes):  RWF=    188 Int=      0 D2E=      0 Chk=      8 Scr=      1
 Normal termination of Gaussian 09 at Tue Oct 25 12:12:45 2016.
