 Entering Gaussian System, Link 0=g09
 Initial command:
 /cluster/software/gaussian/gaussian-09-D.01/g09/l1.exe "/local/scratch/maxb2/Gau-370.inp" -scrdir="/local/scratch/maxb2/"
 Entering Link 1 = /cluster/software/gaussian/gaussian-09-D.01/g09/l1.exe PID=       371.
  
 Copyright (c) 1988,1990,1992,1993,1995,1998,2003,2009,2013,
            Gaussian, Inc.  All Rights Reserved.
  
 This is part of the Gaussian(R) 09 program.  It is based on
 the Gaussian(R) 03 system (copyright 2003, Gaussian, Inc.),
 the Gaussian(R) 98 system (copyright 1998, Gaussian, Inc.),
 the Gaussian(R) 94 system (copyright 1995, Gaussian, Inc.),
 the Gaussian 92(TM) system (copyright 1992, Gaussian, Inc.),
 the Gaussian 90(TM) system (copyright 1990, Gaussian, Inc.),
 the Gaussian 88(TM) system (copyright 1988, Gaussian, Inc.),
 the Gaussian 86(TM) system (copyright 1986, Carnegie Mellon
 University), and the Gaussian 82(TM) system (copyright 1983,
 Carnegie Mellon University). Gaussian is a federally registered
 trademark of Gaussian, Inc.
  
 This software contains proprietary and confidential information,
 including trade secrets, belonging to Gaussian, Inc.
  
 This software is provided under written license and may be
 used, copied, transmitted, or stored only in accord with that
 written license.
  
 The following legend is applicable only to US Government
 contracts under FAR:
  
                    RESTRICTED RIGHTS LEGEND
  
 Use, reproduction and disclosure by the US Government is
 subject to restrictions as set forth in subparagraphs (a)
 and (c) of the Commercial Computer Software - Restricted
 Rights clause in FAR 52.227-19.
  
 Gaussian, Inc.
 340 Quinnipiac St., Bldg. 40, Wallingford CT 06492
  
  
 ---------------------------------------------------------------
 Warning -- This program may not be used in any manner that
 competes with the business of Gaussian, Inc. or will provide
 assistance to any competitor of Gaussian, Inc.  The licensee
 of this program is prohibited from giving any competitor of
 Gaussian, Inc. access to this program.  By using this program,
 the user acknowledges that Gaussian, Inc. is engaged in the
 business of creating and licensing software in the field of
 computational chemistry and represents and warrants to the
 licensee that it is not a competitor of Gaussian, Inc. and that
 it will not use this program in any manner prohibited above.
 ---------------------------------------------------------------
  

 Cite this work as:
 Gaussian 09, Revision D.01,
 M. J. Frisch, G. W. Trucks, H. B. Schlegel, G. E. Scuseria, 
 M. A. Robb, J. R. Cheeseman, G. Scalmani, V. Barone, B. Mennucci, 
 G. A. Petersson, H. Nakatsuji, M. Caricato, X. Li, H. P. Hratchian, 
 A. F. Izmaylov, J. Bloino, G. Zheng, J. L. Sonnenberg, M. Hada, 
 M. Ehara, K. Toyota, R. Fukuda, J. Hasegawa, M. Ishida, T. Nakajima, 
 Y. Honda, O. Kitao, H. Nakai, T. Vreven, J. A. Montgomery, Jr., 
 J. E. Peralta, F. Ogliaro, M. Bearpark, J. J. Heyd, E. Brothers, 
 K. N. Kudin, V. N. Staroverov, T. Keith, R. Kobayashi, J. Normand, 
 K. Raghavachari, A. Rendell, J. C. Burant, S. S. Iyengar, J. Tomasi, 
 M. Cossi, N. Rega, J. M. Millam, M. Klene, J. E. Knox, J. B. Cross, 
 V. Bakken, C. Adamo, J. Jaramillo, R. Gomperts, R. E. Stratmann, 
 O. Yazyev, A. J. Austin, R. Cammi, C. Pomelli, J. W. Ochterski, 
 R. L. Martin, K. Morokuma, V. G. Zakrzewski, G. A. Voth, 
 P. Salvador, J. J. Dannenberg, S. Dapprich, A. D. Daniels, 
 O. Farkas, J. B. Foresman, J. V. Ortiz, J. Cioslowski, 
 and D. J. Fox, Gaussian, Inc., Wallingford CT, 2013.
 
 ******************************************
 Gaussian 09:  ES64L-G09RevD.01 24-Apr-2013
                25-Oct-2016 
 ******************************************
 %nprocshared=8
 Will use up to    8 processors via shared memory.
 %mem=4gb
 %chk=H3CN2smd
 %oldchk=H3CN2opt.chk
 Copying data from "H3CN2opt.chk" to current chk file "H3CN2smd.chk".
 --------------------------------------------------------------------
 # opt freq mp2(full)/6-311g** scrf=(smd,solvent=water) geom=allcheck
 --------------------------------------------------------------------
 1/14=-1,18=20,19=15,29=7,38=1/1,3;
 2/9=110,12=2,40=1/2;
 3/5=4,6=6,7=101,11=9,14=-4,16=1,25=1,30=1,70=32201,71=1,72=1/1,2,3;
 4//1;
 5/5=2,38=5,53=1/2;
 8/6=4,10=90/1;
 9/15=2,16=-3/6;
 10/5=1/2;
 6/7=2,8=2,9=2,10=2/1;
 7/12=2/1,2,3,16;
 1/14=-1,18=20,19=15/3(2);
 2/9=110/2;
 99//99;
 2/9=110/2;
 3/5=4,6=6,7=101,11=9,14=-2,16=1,25=1,30=1,70=32205,71=1,72=1/1,2,3;
 4/5=5,16=3,69=1/1;
 5/5=2,38=5,53=1/2;
 8/6=4,10=90/1;
 9/15=2,16=-3/6;
 10/5=1/2;
 7/12=2/1,2,3,16;
 1/14=-1,18=20,19=15/3(-8);
 2/9=110/2;
 6/7=2,8=2,9=2,10=2/1;
 99//99;
 Structure from the checkpoint file:  "H3CN2smd.chk"
 -------------------
 Title Card Required
 -------------------
 Charge =  1 Multiplicity = 1
 Redundant internal coordinates found in file.
 C,0,0.0130118632,0.0225372208,0.0092007927
 H,0,-0.020286015,-0.0351369171,1.0981152523
 H,0,1.0285505784,-0.0351375747,-0.3851651427
 H,0,-0.5447051605,0.8731824737,-0.3851646856
 N,0,-0.6748985965,-1.1689578454,-0.4772243512
 N,0,-1.2022150489,-2.0822961187,-0.8500926187
 Recover connectivity data from disk.

 GradGradGradGradGradGradGradGradGradGradGradGradGradGradGradGradGradGrad
 Berny optimization.
 Initialization pass.
                           ----------------------------
                           !    Initial Parameters    !
                           ! (Angstroms and Degrees)  !
 --------------------------                            --------------------------
 ! Name  Definition              Value          Derivative Info.                !
 --------------------------------------------------------------------------------
 ! R1    R(1,2)                  1.0909         estimate D2E/DX2                !
 ! R2    R(1,3)                  1.0909         estimate D2E/DX2                !
 ! R3    R(1,4)                  1.0909         estimate D2E/DX2                !
 ! R4    R(1,5)                  1.4593         estimate D2E/DX2                !
 ! R5    R(5,6)                  1.1186         estimate D2E/DX2                !
 ! A1    A(2,1,3)              112.7327         estimate D2E/DX2                !
 ! A2    A(2,1,4)              112.7327         estimate D2E/DX2                !
 ! A3    A(2,1,5)              105.9714         estimate D2E/DX2                !
 ! A4    A(3,1,4)              112.7327         estimate D2E/DX2                !
 ! A5    A(3,1,5)              105.9714         estimate D2E/DX2                !
 ! A6    A(4,1,5)              105.9714         estimate D2E/DX2                !
 ! A7    L(1,5,6,2,-1)         180.0            estimate D2E/DX2                !
 ! A8    L(1,5,6,2,-2)         180.0            estimate D2E/DX2                !
 ! D1    D(2,1,4,3)            129.0362         estimate D2E/DX2                !
 ! D2    D(2,1,5,3)           -120.0            estimate D2E/DX2                !
 ! D3    D(2,1,5,4)            120.0            estimate D2E/DX2                !
 ! D4    D(3,1,5,4)           -120.0            estimate D2E/DX2                !
 --------------------------------------------------------------------------------
 Trust Radius=3.00D-01 FncErr=1.00D-07 GrdErr=1.00D-07
 Number of steps in this run=     27 maximum allowed number of steps=    100.
 GradGradGradGradGradGradGradGradGradGradGradGradGradGradGradGradGradGrad

                          Input orientation:                          
 ---------------------------------------------------------------------
 Center     Atomic      Atomic             Coordinates (Angstroms)
 Number     Number       Type             X           Y           Z
 ---------------------------------------------------------------------
      1          6           0        0.013012    0.022537    0.009201
      2          1           0       -0.020286   -0.035137    1.098115
      3          1           0        1.028551   -0.035138   -0.385165
      4          1           0       -0.544705    0.873182   -0.385165
      5          7           0       -0.674899   -1.168958   -0.477224
      6          7           0       -1.202215   -2.082296   -0.850093
 ---------------------------------------------------------------------
                    Distance matrix (angstroms):
                    1          2          3          4          5
     1  C    0.000000
     2  H    1.090949   0.000000
     3  H    1.090949   1.816639   0.000000
     4  H    1.090949   1.816639   1.816639   0.000000
     5  N    1.459277   2.048356   2.048356   2.048356   0.000000
     6  N    2.577884   3.063222   3.063222   3.063222   1.118606
                    6
     6  N    0.000000
 Stoichiometry    CH3N2(1+)
 Framework group  C3V[C3(CNN),3SGV(H)]
 Deg. of freedom     4
 Full point group                 C3V     NOp   6
 Largest Abelian subgroup         CS      NOp   2
 Largest concise Abelian subgroup CS      NOp   2
                         Standard orientation:                         
 ---------------------------------------------------------------------
 Center     Atomic      Atomic             Coordinates (Angstroms)
 Number     Number       Type             X           Y           Z
 ---------------------------------------------------------------------
      1          6           0        0.000000    0.000000   -1.189547
      2          1           0        0.000000    1.048837   -1.489730
      3          1           0        0.908320   -0.524419   -1.489730
      4          1           0       -0.908320   -0.524419   -1.489730
      5          7           0        0.000000    0.000000    0.269731
      6          7           0        0.000000    0.000000    1.388337
 ---------------------------------------------------------------------
 Rotational constants (GHZ):    151.9478522      9.5526338      9.5526338
 Standard basis: 6-311G(d,p) (5D, 7F)
 There are    53 symmetry adapted cartesian basis functions of A'  symmetry.
 There are    22 symmetry adapted cartesian basis functions of A"  symmetry.
 There are    50 symmetry adapted basis functions of A'  symmetry.
 There are    22 symmetry adapted basis functions of A"  symmetry.
    72 basis functions,   120 primitive gaussians,    75 cartesian basis functions
    11 alpha electrons       11 beta electrons
       nuclear repulsion energy        65.6903409458 Hartrees.
 NAtoms=    6 NActive=    6 NUniq=    4 SFac= 2.25D+00 NAtFMM=   60 NAOKFM=F Big=F
 Integral buffers will be    131072 words long.
 Raffenetti 1 integral format.
 Two-electron integral symmetry is turned on.
 ------------------------------------------------------------------------------
 Polarizable Continuum Model (PCM)
 =================================
 Model                : PCM (using non-symmetric T matrix).
 Atomic radii         : SMD-Coulomb.
 Polarization charges : Total charges.
 Charge compensation  : None.
 Solution method      : On-the-fly selection.
 Cavity type          : VdW (van der Waals Surface) (Alpha=1.000).
 Cavity algorithm     : GePol (No added spheres)
                        Default sphere list used, NSphG=    6.
                        Lebedev-Laikov grids with approx.  5.0 points / Ang**2.
                        Smoothing algorithm: Karplus/York (Gamma=1.0000).
                        Polarization charges: spherical gaussians, with
                                              point-specific exponents (IZeta= 3).
                        Self-potential: point-specific (ISelfS= 7).
                        Self-field    : sphere-specific E.n sum rule (ISelfD= 2).
 1st derivatives      : Analytical E(r).r(x)/FMM algorithm (CHGder, D1EAlg=3).
                        Cavity 1st derivative terms included.
 Solvent              : Water, Eps=  78.355300 Eps(inf)=   1.777849
 ------------------------------------------------------------------------------
 Spheres list:
 ISph  on   Nord     Re0    Alpha      Xe            Ye            Ze
    1   C      1    1.8500  1.000      0.000000      0.000000     -1.189547
    2   H      2    1.2000  1.000      0.000000      1.048837     -1.489730
    3   H      3    1.2000  1.000      0.908320     -0.524419     -1.489730
    4   H      4    1.2000  1.000     -0.908320     -0.524419     -1.489730
    5   N      5    1.8900  1.000      0.000000      0.000000      0.269731
    6   N      6    1.8900  1.000      0.000000      0.000000      1.388337
 ------------------------------------------------------------------------------
 ------------------------------------------------------------------------------
 Atomic radii for non-electrostatic terms: SMD-CDS.
 ------------------------------------------------------------------------------
 Nuclear repulsion after PCM non-electrostatic terms =       65.6900236506 Hartrees.
 One-electron integrals computed using PRISM.
 NBasis=    72 RedAO= T EigKep=  2.82D-03  NBF=    50    22
 NBsUse=    72 1.00D-06 EigRej= -1.00D+00 NBFU=    50    22
 ExpMin= 1.03D-01 ExpMax= 6.29D+03 ExpMxC= 9.49D+02 IAcc=1 IRadAn=         1 AccDes= 0.00D+00
 Harris functional with IExCor=  205 and IRadAn=       1 diagonalized for initial guess.
 HarFok:  IExCor=  205 AccDes= 0.00D+00 IRadAn=         1 IDoV= 1 UseB2=F ITyADJ=14
 ICtDFT=  3500011 ScaDFX=  1.000000  1.000000  1.000000  1.000000
 FoFCou: FMM=F IPFlag=           0 FMFlag=      100000 FMFlg1=           0
         NFxFlg=           0 DoJE=T BraDBF=F KetDBF=T FulRan=T
         wScrn=  0.000000 ICntrl=     500 IOpCl=  0 I1Cent=   200000004 NGrid=           0
         NMat0=    1 NMatS0=      1 NMatT0=    0 NMatD0=    1 NMtDS0=    0 NMtDT0=    0
 Petite list used in FoFCou.
 Initial guess orbital symmetries:
       Occupied  (A1) (A1) (A1) (A1) (A1) (A1) (E) (E) (A1) (E)
                 (E)
       Virtual   (E) (E) (A1) (A1) (E) (E) (A1) (E) (E) (A1) (A1)
                 (E) (E) (E) (E) (A1) (A1) (E) (E) (A1) (E) (E)
                 (A1) (A1) (A2) (E) (E) (E) (E) (A1) (E) (E) (E)
                 (E) (A1) (E) (E) (E) (E) (A1) (E) (E) (E) (E)
                 (A1) (A1) (E) (E) (A1) (E) (E) (E) (E) (A1) (E)
                 (E) (A1) (A1) (A1) (A1) (A1)
 The electronic state of the initial guess is 1-A1.
 Keep R1 ints in memory in symmetry-blocked form, NReq=6897696.
 Requested convergence on RMS density matrix=1.00D-08 within 128 cycles.
 Requested convergence on MAX density matrix=1.00D-06.
 Requested convergence on             energy=1.00D-06.
 No special actions if energy rises.
 Inv3:  Mode=1 IEnd=     1294947.
 Iteration    1 A*A^-1 deviation from unit magnitude is 4.00D-15 for    648.
 Iteration    1 A*A^-1 deviation from orthogonality  is 1.64D-15 for    169     22.
 Iteration    1 A^-1*A deviation from unit magnitude is 4.22D-15 for    648.
 Iteration    1 A^-1*A deviation from orthogonality  is 4.53D-15 for    652    192.
 Error on total polarization charges =  0.00947
 SCF Done:  E(RHF) =  -148.360922580     A.U. after   11 cycles
            NFock= 11  Conv=0.38D-08     -V/T= 2.0034
 SMD-CDS (non-electrostatic) energy       (kcal/mol) =      -0.20
 (included in total energy above)
 Range of M.O.s used for correlation:     1    72
 NBasis=    72 NAE=    11 NBE=    11 NFC=     0 NFV=     0
 NROrb=     72 NOA=    11 NOB=    11 NVA=    61 NVB=    61
 Fully direct method using O(ONN) memory.
 JobTyp=1 Pass  1:  I=   1 to  11 NPSUse=  8 ParTrn=T ParDer=T DoDerP=T.
 Spin components of T(2) and E(2):
     alpha-alpha T2 =       0.2097622945D-01 E2=     -0.6334847482D-01
     alpha-beta  T2 =       0.1237200750D+00 E2=     -0.4130977547D+00
     beta-beta   T2 =       0.2097622945D-01 E2=     -0.6334847482D-01
 ANorm=    0.1079663158D+01
 E2 =    -0.5397947043D+00 EUMP2 =    -0.14890071728431D+03
          IDoAtm=111111
 NEqPCM:  Using equilibrium solvation (IEInf=0, Eps=  78.3553, EpsInf=   1.7778)
          Differentiating once with respect to electric field.
                with respect to dipole field.
          Differentiating once with respect to nuclear coordinates.
 Keep R1 ints in memory in symmetry-blocked form, NReq=5927040.
          There are     1 degrees of freedom in the 1st order CPHF.  IDoFFX=0 NUNeed=     1.
 LinEq1:  Iter=  0 NonCon=     1 RMS=6.80D-03 Max=5.60D-02 NDo=     1
 AX will form     1 AO Fock derivatives at one time.
 LinEq1:  Iter=  1 NonCon=     1 RMS=1.70D-03 Max=1.80D-02 NDo=     1
 LinEq1:  Iter=  2 NonCon=     1 RMS=5.87D-04 Max=6.27D-03 NDo=     1
 LinEq1:  Iter=  3 NonCon=     1 RMS=2.81D-04 Max=2.68D-03 NDo=     1
 LinEq1:  Iter=  4 NonCon=     1 RMS=5.85D-05 Max=5.43D-04 NDo=     1
 LinEq1:  Iter=  5 NonCon=     1 RMS=9.85D-06 Max=8.52D-05 NDo=     1
 LinEq1:  Iter=  6 NonCon=     1 RMS=2.64D-06 Max=2.02D-05 NDo=     1
 LinEq1:  Iter=  7 NonCon=     1 RMS=4.05D-07 Max=3.01D-06 NDo=     1
 LinEq1:  Iter=  8 NonCon=     1 RMS=6.49D-08 Max=4.77D-07 NDo=     1
 LinEq1:  Iter=  9 NonCon=     1 RMS=1.03D-08 Max=1.12D-07 NDo=     1
 LinEq1:  Iter= 10 NonCon=     1 RMS=1.84D-09 Max=1.88D-08 NDo=     1
 LinEq1:  Iter= 11 NonCon=     1 RMS=4.43D-10 Max=4.86D-09 NDo=     1
 LinEq1:  Iter= 12 NonCon=     0 RMS=6.02D-11 Max=4.16D-10 NDo=     1
 Linear equations converged to 1.000D-10 1.000D-09 after    12 iterations.
 End of Minotr F.D. properties file   721 does not exist.
 End of Minotr F.D. properties file   722 does not exist.
 End of Minotr F.D. properties file   788 does not exist.

 **********************************************************************

            Population analysis using the SCF density.

 **********************************************************************

 Orbital symmetries:
       Occupied  (A1) (A1) (A1) (A1) (A1) (A1) (A1) (E) (E) (E)
                 (E)
       Virtual   (E) (E) (A1) (E) (E) (A1) (A1) (E) (E) (A1) (A1)
                 (E) (E) (E) (E) (A1) (?A) (?A) (?A) (A1) (E) (E)
                 (A1) (A1) (A2) (E) (E) (E) (E) (A1) (E) (E) (E)
                 (E) (A1) (E) (E) (E) (E) (A1) (E) (E) (A1) (E)
                 (E) (A1) (E) (E) (A1) (E) (E) (A1) (E) (E) (E)
                 (E) (A1) (A1) (A1) (A1) (A1)
 The electronic state is 1-A1.
 Alpha  occ. eigenvalues --  -15.81743 -15.80217 -11.34298  -1.56099  -1.15301
 Alpha  occ. eigenvalues --   -0.83610  -0.74114  -0.73712  -0.73711  -0.60393
 Alpha  occ. eigenvalues --   -0.60392
 Alpha virt. eigenvalues --    0.06845   0.06846   0.15441   0.22389   0.22392
 Alpha virt. eigenvalues --    0.24883   0.41246   0.43551   0.43551   0.57098
 Alpha virt. eigenvalues --    0.66515   0.69633   0.69634   0.74002   0.74003
 Alpha virt. eigenvalues --    0.82905   0.86265   0.86447   0.86449   1.03748
 Alpha virt. eigenvalues --    1.29817   1.29819   1.33052   1.37654   1.64826
 Alpha virt. eigenvalues --    1.65735   1.65736   1.77674   1.77674   1.85990
 Alpha virt. eigenvalues --    1.87684   1.87684   2.12971   2.12971   2.17509
 Alpha virt. eigenvalues --    2.36443   2.36443   2.40052   2.40053   2.57621
 Alpha virt. eigenvalues --    2.69901   2.69902   2.82202   2.83283   2.83283
 Alpha virt. eigenvalues --    3.06869   3.23795   3.23795   3.40688   3.88558
 Alpha virt. eigenvalues --    3.88559   4.18571   4.20041   4.20042   4.28845
 Alpha virt. eigenvalues --    4.28846   4.66866   5.12408  24.95368  36.32081
 Alpha virt. eigenvalues --   37.48618
          Condensed to atoms (all electrons):
               1          2          3          4          5          6
     1  C    4.754482   0.399996   0.399996   0.399996   0.098496  -0.021546
     2  H    0.399996   0.402962  -0.010595  -0.010595  -0.015310  -0.000243
     3  H    0.399996  -0.010595   0.402962  -0.010595  -0.015310  -0.000243
     4  H    0.399996  -0.010595  -0.010595   0.402962  -0.015310  -0.000243
     5  N    0.098496  -0.015310  -0.015310  -0.015310   6.154163   0.637689
     6  N   -0.021546  -0.000243  -0.000243  -0.000243   0.637689   6.210095
 Mulliken charges:
               1
     1  C   -0.031421
     2  H    0.233784
     3  H    0.233784
     4  H    0.233784
     5  N    0.155581
     6  N    0.174489
 Sum of Mulliken charges =   1.00000
 Mulliken charges with hydrogens summed into heavy atoms:
               1
     1  C    0.669930
     5  N    0.155581
     6  N    0.174489
 Electronic spatial extent (au):  <R**2>=            144.6861
 Charge=              1.0000 electrons
 Dipole moment (field-independent basis, Debye):
    X=              0.0000    Y=              0.0000    Z=             -2.4438  Tot=              2.4438
 Quadrupole moment (field-independent basis, Debye-Ang):
   XX=            -14.4675   YY=            -14.4675   ZZ=             -9.8095
   XY=              0.0000   XZ=              0.0000   YZ=              0.0000
 Traceless Quadrupole moment (field-independent basis, Debye-Ang):
   XX=             -1.5527   YY=             -1.5527   ZZ=              3.1053
   XY=              0.0000   XZ=              0.0000   YZ=              0.0000
 Octapole moment (field-independent basis, Debye-Ang**2):
  XXX=              0.0000  YYY=              1.3262  ZZZ=             -7.4828  XYY=              0.0000
  XXY=             -1.3262  XXZ=             -1.6945  XZZ=              0.0000  YZZ=              0.0000
  YYZ=             -1.6945  XYZ=              0.0000
 Hexadecapole moment (field-independent basis, Debye-Ang**3):
 XXXX=            -17.0010 YYYY=            -17.0010 ZZZZ=           -126.1176 XXXY=              0.0000
 XXXZ=              0.0000 YYYX=              0.0000 YYYZ=             -2.1224 ZZZX=              0.0000
 ZZZY=              0.0000 XXYY=             -5.6670 XXZZ=            -22.1023 YYZZ=            -22.1023
 XXYZ=              2.1224 YYXZ=              0.0000 ZZXY=              0.0000
 N-N= 6.569002365060D+01 E-N=-4.709951308761D+02  KE= 1.478558583201D+02
 Symmetry A'   KE= 1.423567887088D+02
 Symmetry A"   KE= 5.499069611293D+00
 Density matrix has only Abelian symmetry.
 D1PCM: PCM CHGder 1st derivatives, ID1Alg=3 FixD1E=F DoIter=F DoCFld=F I1PDM=2.
 Calling FoFJK, ICntrl=  10002127 FMM=F ISym2X=1 I1Cent= 0 IOpClX= 0 NMat=1 NMatS=1 NMatT=0.
 ***** Axes restored to original set *****
 -------------------------------------------------------------------
 Center     Atomic                   Forces (Hartrees/Bohr)
 Number     Number              X              Y              Z
 -------------------------------------------------------------------
      1        6          -0.000781323   -0.001353291   -0.000133557
      2        1          -0.000519730   -0.000900198   -0.002392306
      3        1          -0.001987868   -0.001037261    0.000043594
      4        1           0.000095639   -0.002240174    0.000043593
      5        7           0.000519357    0.000899553    0.000525237
      6        7           0.002673925    0.004631371    0.001913440
 -------------------------------------------------------------------
 Cartesian Forces:  Max     0.004631371 RMS     0.001714929

 GradGradGradGradGradGradGradGradGradGradGradGradGradGradGradGradGradGrad
 Berny optimization.
 FormGI is forming the generalized inverse of G from B-inverse, IUseBI=4.
 Internal  Forces:  Max     0.006834200 RMS     0.002378194
 Search for a local minimum.
 Step number   1 out of a maximum of   27
 All quantities printed in internal units (Hartrees-Bohrs-Radians)
 Mixed Optimization -- RFO/linear search
 Second derivative matrix not updated -- first step.
 The second derivative matrix:
                          R1        R2        R3        R4        R5
           R1           0.34703
           R2           0.00000   0.34703
           R3           0.00000   0.00000   0.34703
           R4           0.00000   0.00000   0.00000   0.37055
           R5           0.00000   0.00000   0.00000   0.00000   1.59214
           A1           0.00000   0.00000   0.00000   0.00000   0.00000
           A2           0.00000   0.00000   0.00000   0.00000   0.00000
           A3           0.00000   0.00000   0.00000   0.00000   0.00000
           A4           0.00000   0.00000   0.00000   0.00000   0.00000
           A5           0.00000   0.00000   0.00000   0.00000   0.00000
           A6           0.00000   0.00000   0.00000   0.00000   0.00000
           A7           0.00000   0.00000   0.00000   0.00000   0.00000
           A8           0.00000   0.00000   0.00000   0.00000   0.00000
           D1           0.00000   0.00000   0.00000   0.00000   0.00000
           D2           0.00000   0.00000   0.00000   0.00000   0.00000
           D3           0.00000   0.00000   0.00000   0.00000   0.00000
           D4           0.00000   0.00000   0.00000   0.00000   0.00000
                          A1        A2        A3        A4        A5
           A1           0.16000
           A2           0.00000   0.16000
           A3           0.00000   0.00000   0.16000
           A4           0.00000   0.00000   0.00000   0.16000
           A5           0.00000   0.00000   0.00000   0.00000   0.16000
           A6           0.00000   0.00000   0.00000   0.00000   0.00000
           A7           0.00000   0.00000   0.00000   0.00000   0.00000
           A8           0.00000   0.00000   0.00000   0.00000   0.00000
           D1           0.00000   0.00000   0.00000   0.00000   0.00000
           D2           0.00000   0.00000   0.00000   0.00000   0.00000
           D3           0.00000   0.00000   0.00000   0.00000   0.00000
           D4           0.00000   0.00000   0.00000   0.00000   0.00000
                          A6        A7        A8        D1        D2
           A6           0.16000
           A7           0.00000   0.05017
           A8           0.00000   0.00000   0.05017
           D1           0.00000   0.00000   0.00000   0.00230
           D2           0.00000   0.00000   0.00000   0.00000   0.00908
           D3           0.00000   0.00000   0.00000   0.00000   0.00000
           D4           0.00000   0.00000   0.00000   0.00000   0.00000
                          D3        D4
           D3           0.00908
           D4           0.00000   0.00908
 ITU=  0
     Eigenvalues ---    0.05017   0.05017   0.05579   0.06772   0.07955
     Eigenvalues ---    0.16000   0.16000   0.34703   0.34703   0.34703
     Eigenvalues ---    0.37055   1.59214
 RFO step:  Lambda=-2.53963547D-04 EMin= 5.01710329D-02
 Linear search not attempted -- first point.
 Iteration  1 RMS(Cart)=  0.01072928 RMS(Int)=  0.00007844
 Iteration  2 RMS(Cart)=  0.00004922 RMS(Int)=  0.00006001
 Iteration  3 RMS(Cart)=  0.00000000 RMS(Int)=  0.00006001
 Variable       Old X    -DE/DX   Delta X   Delta X   Delta X     New X
                                 (Linear)    (Quad)   (Total)
    R1        2.06159  -0.00230   0.00000  -0.00662  -0.00662   2.05497
    R2        2.06159  -0.00182   0.00000  -0.00525  -0.00525   2.05634
    R3        2.06159  -0.00182   0.00000  -0.00525  -0.00525   2.05634
    R4        2.75763  -0.00683   0.00000  -0.01843  -0.01843   2.73920
    R5        2.11386  -0.00568   0.00000  -0.00357  -0.00357   2.11029
    A1        1.96756   0.00028   0.00000   0.00774   0.00760   1.97516
    A2        1.96756   0.00069   0.00000   0.00793   0.00782   1.97538
    A3        1.84955  -0.00054   0.00000  -0.00886  -0.00883   1.84072
    A4        1.96756   0.00073   0.00000   0.00814   0.00803   1.97559
    A5        1.84955  -0.00063   0.00000  -0.00941  -0.00939   1.84017
    A6        1.84955  -0.00081   0.00000  -0.00941  -0.00940   1.84015
    A7        3.14159   0.00016   0.00000   0.00323   0.00323   3.14482
    A8        3.14159   0.00000   0.00000   0.00000   0.00000   3.14159
    D1        2.25211   0.00164   0.00000   0.02493   0.02506   2.27717
    D2       -2.09440   0.00025   0.00000   0.00013   0.00015  -2.09424
    D3        2.09440   0.00013   0.00000   0.00008   0.00009   2.09449
    D4       -2.09440  -0.00013   0.00000  -0.00005  -0.00006  -2.09446
         Item               Value     Threshold  Converged?
 Maximum Force            0.006834     0.000450     NO 
 RMS     Force            0.002378     0.000300     NO 
 Maximum Displacement     0.021329     0.001800     NO 
 RMS     Displacement     0.010741     0.001200     NO 
 Predicted change in Energy=-1.276853D-04
 GradGradGradGradGradGradGradGradGradGradGradGradGradGradGradGradGradGrad

                          Input orientation:                          
 ---------------------------------------------------------------------
 Center     Atomic      Atomic             Coordinates (Angstroms)
 Number     Number       Type             X           Y           Z
 ---------------------------------------------------------------------
      1          6           0        0.013717    0.023808    0.010103
      2          1           0       -0.023813   -0.041361    1.094944
      3          1           0        1.024221   -0.042817   -0.388089
      4          1           0       -0.549211    0.865594   -0.388174
      5          7           0       -0.669755   -1.160024   -0.472108
      6          7           0       -1.195701   -2.071009   -0.847006
 ---------------------------------------------------------------------
                    Distance matrix (angstroms):
                    1          2          3          4          5
     1  C    0.000000
     2  H    1.087444   0.000000
     3  H    1.088171   1.815975   0.000000
     4  H    1.088171   1.816108   1.816838   0.000000
     5  N    1.449524   2.030837   2.030952   2.030937   0.000000
     6  N    2.566240   3.043676   3.041746   3.041728   1.116719
                    6
     6  N    0.000000
 Stoichiometry    CH3N2(1+)
 Framework group  C1[X(CH3N2)]
 Deg. of freedom    12
 Full point group                 C1      NOp   1
 Omega: Change in point group or standard orientation.

 Old FWG=C03V [C3(C1N1N1),3SGV(H1)]
 New FWG=C01  [X(C1H3N2)]
 Largest Abelian subgroup         C1      NOp   1
 Largest concise Abelian subgroup C1      NOp   1
                         Standard orientation:                         
 ---------------------------------------------------------------------
 Center     Atomic      Atomic             Coordinates (Angstroms)
 Number     Number       Type             X           Y           Z
 ---------------------------------------------------------------------
      1          6           0       -1.184401   -0.000040   -0.000354
      2          1           0       -1.475691    0.076045    1.044584
      3          1           0       -1.473336    0.867935   -0.589634
      4          1           0       -1.473301   -0.944121   -0.457915
      5          7           0        0.265122    0.000103    0.001463
      6          7           0        1.381839   -0.000049   -0.000736
 ---------------------------------------------------------------------
 Rotational constants (GHZ):    152.0017748      9.6557810      9.6554256
 Standard basis: 6-311G(d,p) (5D, 7F)
 There are    75 symmetry adapted cartesian basis functions of A   symmetry.
 There are    72 symmetry adapted basis functions of A   symmetry.
    72 basis functions,   120 primitive gaussians,    75 cartesian basis functions
    11 alpha electrons       11 beta electrons
       nuclear repulsion energy        65.9669779075 Hartrees.
 NAtoms=    6 NActive=    6 NUniq=    6 SFac= 1.00D+00 NAtFMM=   60 NAOKFM=F Big=F
 Integral buffers will be    131072 words long.
 Raffenetti 1 integral format.
 Two-electron integral symmetry is turned on.
 ------------------------------------------------------------------------------
 Polarizable Continuum Model (PCM)
 =================================
 Model                : PCM (using non-symmetric T matrix).
 Atomic radii         : SMD-Coulomb.
 Polarization charges : Total charges.
 Charge compensation  : None.
 Solution method      : On-the-fly selection.
 Cavity type          : VdW (van der Waals Surface) (Alpha=1.000).
 Cavity algorithm     : GePol (No added spheres)
                        Default sphere list used, NSphG=    6.
                        Lebedev-Laikov grids with approx.  5.0 points / Ang**2.
                        Smoothing algorithm: Karplus/York (Gamma=1.0000).
                        Polarization charges: spherical gaussians, with
                                              point-specific exponents (IZeta= 3).
                        Self-potential: point-specific (ISelfS= 7).
                        Self-field    : sphere-specific E.n sum rule (ISelfD= 2).
 1st derivatives      : Analytical E(r).r(x)/FMM algorithm (CHGder, D1EAlg=3).
                        Cavity 1st derivative terms included.
 Solvent              : Water, Eps=  78.355300 Eps(inf)=   1.777849
 ------------------------------------------------------------------------------
 Spheres list:
 ISph  on   Nord     Re0    Alpha      Xe            Ye            Ze
    1   C      1    1.8500  1.000     -1.184401     -0.000040     -0.000354
    2   H      2    1.2000  1.000     -1.475691      0.076045      1.044584
    3   H      3    1.2000  1.000     -1.473336      0.867935     -0.589634
    4   H      4    1.2000  1.000     -1.473301     -0.944121     -0.457915
    5   N      5    1.8900  1.000      0.265122      0.000103      0.001463
    6   N      6    1.8900  1.000      1.381839     -0.000049     -0.000736
 ------------------------------------------------------------------------------
 ------------------------------------------------------------------------------
 Atomic radii for non-electrostatic terms: SMD-CDS.
 ------------------------------------------------------------------------------
 Nuclear repulsion after PCM non-electrostatic terms =       65.9666982006 Hartrees.
 One-electron integrals computed using PRISM.
 NBasis=    72 RedAO= T EigKep=  1.97D-03  NBF=    72
 NBsUse=    72 1.00D-06 EigRej= -1.00D+00 NBFU=    72
 Initial guess from the checkpoint file:  "H3CN2smd.chk"
 B after Tr=     0.000000    0.000000    0.000000
         Rot=    0.517857   -0.481480   -0.517779   -0.481566 Ang=-117.62 deg.
 ExpMin= 1.03D-01 ExpMax= 6.29D+03 ExpMxC= 9.49D+02 IAcc=1 IRadAn=         1 AccDes= 0.00D+00
 Harris functional with IExCor=  205 and IRadAn=       1 diagonalized for initial guess.
 HarFok:  IExCor=  205 AccDes= 0.00D+00 IRadAn=         1 IDoV= 1 UseB2=F ITyADJ=14
 ICtDFT=  3500011 ScaDFX=  1.000000  1.000000  1.000000  1.000000
 FoFCou: FMM=F IPFlag=           0 FMFlag=      100000 FMFlg1=           0
         NFxFlg=           0 DoJE=T BraDBF=F KetDBF=T FulRan=T
         wScrn=  0.000000 ICntrl=     500 IOpCl=  0 I1Cent=   200000004 NGrid=           0
         NMat0=    1 NMatS0=      1 NMatT0=    0 NMatD0=    1 NMtDS0=    0 NMtDT0=    0
 Petite list used in FoFCou.
 Keep R1 ints in memory in canonical form, NReq=6883945.
 Requested convergence on RMS density matrix=1.00D-08 within 128 cycles.
 Requested convergence on MAX density matrix=1.00D-06.
 Requested convergence on             energy=1.00D-06.
 No special actions if energy rises.
 Inv3:  Mode=1 IEnd=     1275312.
 Iteration    1 A*A^-1 deviation from unit magnitude is 3.11D-15 for    632.
 Iteration    1 A*A^-1 deviation from orthogonality  is 2.12D-15 for    176    134.
 Iteration    1 A^-1*A deviation from unit magnitude is 3.33D-15 for    632.
 Iteration    1 A^-1*A deviation from orthogonality  is 2.68D-12 for    525    294.
 Error on total polarization charges =  0.00933
 SCF Done:  E(RHF) =  -148.361445736     A.U. after   10 cycles
            NFock= 10  Conv=0.47D-08     -V/T= 2.0031
 SMD-CDS (non-electrostatic) energy       (kcal/mol) =      -0.18
 (included in total energy above)
 Range of M.O.s used for correlation:     1    72
 NBasis=    72 NAE=    11 NBE=    11 NFC=     0 NFV=     0
 NROrb=     72 NOA=    11 NOB=    11 NVA=    61 NVB=    61
 Fully direct method using O(ONN) memory.
 JobTyp=1 Pass  1:  I=   1 to  11 NPSUse=  8 ParTrn=T ParDer=T DoDerP=T.
 Spin components of T(2) and E(2):
     alpha-alpha T2 =       0.2090925055D-01 E2=     -0.6334961198D-01
     alpha-beta  T2 =       0.1231763117D+00 E2=     -0.4126546236D+00
     beta-beta   T2 =       0.2090925055D-01 E2=     -0.6334961198D-01
 ANorm=    0.1079349254D+01
 E2 =    -0.5393538475D+00 EUMP2 =    -0.14890079958396D+03
          IDoAtm=111111
 NEqPCM:  Using equilibrium solvation (IEInf=0, Eps=  78.3553, EpsInf=   1.7778)
          Differentiating once with respect to electric field.
                with respect to dipole field.
          Differentiating once with respect to nuclear coordinates.
 Keep R1 ints in memory in canonical form, NReq=5906492.
          There are     1 degrees of freedom in the 1st order CPHF.  IDoFFX=0 NUNeed=     1.
 LinEq1:  Iter=  0 NonCon=     1 RMS=6.77D-03 Max=5.45D-02 NDo=     1
 AX will form     1 AO Fock derivatives at one time.
 LinEq1:  Iter=  1 NonCon=     1 RMS=1.69D-03 Max=1.77D-02 NDo=     1
 LinEq1:  Iter=  2 NonCon=     1 RMS=5.76D-04 Max=6.25D-03 NDo=     1
 LinEq1:  Iter=  3 NonCon=     1 RMS=2.76D-04 Max=2.66D-03 NDo=     1
 LinEq1:  Iter=  4 NonCon=     1 RMS=5.81D-05 Max=5.46D-04 NDo=     1
 LinEq1:  Iter=  5 NonCon=     1 RMS=1.00D-05 Max=8.40D-05 NDo=     1
 LinEq1:  Iter=  6 NonCon=     1 RMS=2.67D-06 Max=2.07D-05 NDo=     1
 LinEq1:  Iter=  7 NonCon=     1 RMS=4.13D-07 Max=3.06D-06 NDo=     1
 LinEq1:  Iter=  8 NonCon=     1 RMS=7.77D-08 Max=8.84D-07 NDo=     1
 LinEq1:  Iter=  9 NonCon=     1 RMS=2.09D-08 Max=2.70D-07 NDo=     1
 LinEq1:  Iter= 10 NonCon=     1 RMS=4.08D-09 Max=4.43D-08 NDo=     1
 LinEq1:  Iter= 11 NonCon=     1 RMS=5.94D-10 Max=4.03D-09 NDo=     1
 LinEq1:  Iter= 12 NonCon=     0 RMS=6.10D-11 Max=4.28D-10 NDo=     1
 Linear equations converged to 1.000D-10 1.000D-09 after    12 iterations.
 End of Minotr F.D. properties file   721 does not exist.
 End of Minotr F.D. properties file   722 does not exist.
 End of Minotr F.D. properties file   788 does not exist.
 D1PCM: PCM CHGder 1st derivatives, ID1Alg=3 FixD1E=F DoIter=F DoCFld=F I1PDM=2.
 Calling FoFJK, ICntrl=  10002127 FMM=F ISym2X=0 I1Cent= 0 IOpClX= 0 NMat=1 NMatS=1 NMatT=0.
 ***** Axes restored to original set *****
 -------------------------------------------------------------------
 Center     Atomic                   Forces (Hartrees/Bohr)
 Number     Number              X              Y              Z
 -------------------------------------------------------------------
      1        6          -0.001185429   -0.001877239   -0.000859842
      2        1           0.000248293    0.000650214    0.000352690
      3        1           0.000325710    0.000328106    0.000181099
      4        1           0.000324308    0.000435416    0.000034701
      5        7          -0.000187173   -0.000358131   -0.000163600
      6        7           0.000474291    0.000821634    0.000454951
 -------------------------------------------------------------------
 Cartesian Forces:  Max     0.001877239 RMS     0.000671524

 GradGradGradGradGradGradGradGradGradGradGradGradGradGradGradGradGradGrad
 Berny optimization.
 Using GEDIIS/GDIIS optimizer.
 FormGI is forming the generalized inverse of G from B-inverse, IUseBI=4.
 Internal  Forces:  Max     0.001046151 RMS     0.000393062
 Search for a local minimum.
 Step number   2 out of a maximum of   27
 All quantities printed in internal units (Hartrees-Bohrs-Radians)
 Mixed Optimization -- En-DIIS/RFO-DIIS
 Update second derivatives using D2CorX and points    1    2
 DE= -8.23D-05 DEPred=-1.28D-04 R= 6.45D-01
 TightC=F SS=  1.41D+00  RLast= 3.91D-02 DXNew= 5.0454D-01 1.1727D-01
 Trust test= 6.45D-01 RLast= 3.91D-02 DXMaxT set to 3.00D-01
 The second derivative matrix:
                          R1        R2        R3        R4        R5
           R1           0.35146
           R2           0.00288   0.34882
           R3           0.00233   0.00137   0.34800
           R4          -0.00229  -0.00332  -0.00461   0.32726
           R5          -0.00711  -0.00675  -0.00771  -0.04829   1.54283
           A1           0.00713   0.00575   0.00584   0.02359   0.02043
           A2           0.00165   0.00156   0.00177   0.01085   0.01102
           A3          -0.00371  -0.00317  -0.00337  -0.01660  -0.01568
           A4           0.00228   0.00204   0.00225   0.01251   0.01234
           A5          -0.00644  -0.00529  -0.00544  -0.02355  -0.02106
           A6          -0.00303  -0.00267  -0.00290  -0.01551  -0.01509
           A7           0.00018   0.00018   0.00021   0.00133   0.00137
           A8           0.00007   0.00005   0.00005   0.00017   0.00013
           D1          -0.02212  -0.01697  -0.01648  -0.05192  -0.03852
           D2          -0.00350  -0.00268  -0.00261  -0.00825  -0.00614
           D3          -0.00148  -0.00113  -0.00110  -0.00348  -0.00259
           D4           0.00202   0.00155   0.00151   0.00477   0.00355
                          A1        A2        A3        A4        A5
           A1           0.15475
           A2          -0.00452   0.15754
           A3           0.00538   0.00349   0.15540
           A4          -0.00473  -0.00275   0.00379   0.15696
           A5           0.00611   0.00467  -0.00579   0.00496   0.15313
           A6           0.00559   0.00336  -0.00457   0.00370  -0.00591
           A7          -0.00058  -0.00031   0.00044  -0.00034   0.00060
           A8          -0.00001  -0.00003   0.00003  -0.00003   0.00002
           D1           0.00324   0.00841  -0.00786   0.00811  -0.00611
           D2           0.00054   0.00134  -0.00126   0.00130  -0.00099
           D3           0.00023   0.00057  -0.00053   0.00055  -0.00042
           D4          -0.00031  -0.00078   0.00073  -0.00075   0.00057
                          A6        A7        A8        D1        D2
           A6           0.15552
           A7           0.00042   0.05013
           A8           0.00003   0.00000   0.05017
           D1          -0.00918   0.00112  -0.00006   0.02251
           D2          -0.00147   0.00018  -0.00001   0.00313   0.00956
           D3          -0.00062   0.00008   0.00000   0.00132   0.00021
           D4           0.00085  -0.00010   0.00001  -0.00181  -0.00028
                          D3        D4
           D3           0.00916
           D4          -0.00012   0.00924
 ITU=  1  0
 Use linear search instead of GDIIS.
     Eigenvalues ---    0.05012   0.05017   0.05995   0.06863   0.09088
     Eigenvalues ---    0.15969   0.16087   0.32516   0.34703   0.34725
     Eigenvalues ---    0.35608   1.54489
 RFO step:  Lambda=-2.20159612D-05 EMin= 5.01212907D-02
 Quartic linear search produced a step of -0.17121.
 Iteration  1 RMS(Cart)=  0.00290075 RMS(Int)=  0.00001515
 Iteration  2 RMS(Cart)=  0.00001274 RMS(Int)=  0.00000780
 Iteration  3 RMS(Cart)=  0.00000000 RMS(Int)=  0.00000780
 Variable       Old X    -DE/DX   Delta X   Delta X   Delta X     New X
                                 (Linear)    (Quad)   (Total)
    R1        2.05497   0.00033   0.00113  -0.00045   0.00069   2.05566
    R2        2.05634   0.00020   0.00090  -0.00051   0.00039   2.05673
    R3        2.05634   0.00014   0.00090  -0.00065   0.00025   2.05660
    R4        2.73920  -0.00061   0.00316  -0.00489  -0.00173   2.73747
    R5        2.11029  -0.00105   0.00061  -0.00136  -0.00075   2.10955
    A1        1.97516  -0.00013  -0.00130  -0.00382  -0.00514   1.97002
    A2        1.97538  -0.00032  -0.00134  -0.00261  -0.00397   1.97141
    A3        1.84072   0.00041   0.00151   0.00453   0.00604   1.84676
    A4        1.97559  -0.00025  -0.00137  -0.00252  -0.00391   1.97168
    A5        1.84017   0.00013   0.00161   0.00285   0.00446   1.84462
    A6        1.84015   0.00030   0.00161   0.00331   0.00492   1.84507
    A7        3.14482   0.00003  -0.00055   0.00011  -0.00044   3.14438
    A8        3.14159   0.00001   0.00000   0.00012   0.00012   3.14171
    D1        2.27717  -0.00071  -0.00429  -0.01023  -0.01451   2.26266
    D2       -2.09424  -0.00011  -0.00003   0.00084   0.00081  -2.09343
    D3        2.09449  -0.00003  -0.00002   0.00077   0.00076   2.09525
    D4       -2.09446   0.00009   0.00001  -0.00006  -0.00005  -2.09451
         Item               Value     Threshold  Converged?
 Maximum Force            0.001046     0.000450     NO 
 RMS     Force            0.000393     0.000300     NO 
 Maximum Displacement     0.005070     0.001800     NO 
 RMS     Displacement     0.002906     0.001200     NO 
 Predicted change in Energy=-4.742706D-06
 GradGradGradGradGradGradGradGradGradGradGradGradGradGradGradGradGradGrad

                          Input orientation:                          
 ---------------------------------------------------------------------
 Center     Atomic      Atomic             Coordinates (Angstroms)
 Number     Number       Type             X           Y           Z
 ---------------------------------------------------------------------
      1          6           0        0.012029    0.021371    0.009169
      2          1           0       -0.021953   -0.038678    1.094787
      3          1           0        1.024010   -0.041014   -0.386511
      4          1           0       -0.547457    0.866675   -0.386864
      5          7           0       -0.670782   -1.161676   -0.473148
      6          7           0       -1.196390   -2.072488   -0.847764
 ---------------------------------------------------------------------
                    Distance matrix (angstroms):
                    1          2          3          4          5
     1  C    0.000000
     2  H    1.087808   0.000000
     3  H    1.088375   1.813364   0.000000
     4  H    1.088304   1.814141   1.814775   0.000000
     5  N    1.448607   2.034827   2.033645   2.033927   0.000000
     6  N    2.564928   3.047817   3.044638   3.045032   1.116324
                    6
     6  N    0.000000
 Stoichiometry    CH3N2(1+)
 Framework group  C1[X(CH3N2)]
 Deg. of freedom    12
 Full point group                 C1      NOp   1
 Largest Abelian subgroup         C1      NOp   1
 Largest concise Abelian subgroup C1      NOp   1
                         Standard orientation:                         
 ---------------------------------------------------------------------
 Center     Atomic      Atomic             Coordinates (Angstroms)
 Number     Number       Type             X           Y           Z
 ---------------------------------------------------------------------
      1          6           0       -1.183011   -0.000190   -0.000302
      2          1           0       -1.480591    0.301223    1.001657
      3          1           0       -1.476755    0.718492   -0.763041
      4          1           0       -1.477165   -1.019795   -0.241728
      5          7           0        0.265594    0.000310    0.001253
      6          7           0        1.381917   -0.000135   -0.000550
 ---------------------------------------------------------------------
 Rotational constants (GHZ):    152.3736121      9.6564718      9.6559248
 Standard basis: 6-311G(d,p) (5D, 7F)
 There are    75 symmetry adapted cartesian basis functions of A   symmetry.
 There are    72 symmetry adapted basis functions of A   symmetry.
    72 basis functions,   120 primitive gaussians,    75 cartesian basis functions
    11 alpha electrons       11 beta electrons
       nuclear repulsion energy        65.9757046558 Hartrees.
 NAtoms=    6 NActive=    6 NUniq=    6 SFac= 1.00D+00 NAtFMM=   60 NAOKFM=F Big=F
 Integral buffers will be    131072 words long.
 Raffenetti 1 integral format.
 Two-electron integral symmetry is turned on.
 ------------------------------------------------------------------------------
 Polarizable Continuum Model (PCM)
 =================================
 Model                : PCM (using non-symmetric T matrix).
 Atomic radii         : SMD-Coulomb.
 Polarization charges : Total charges.
 Charge compensation  : None.
 Solution method      : On-the-fly selection.
 Cavity type          : VdW (van der Waals Surface) (Alpha=1.000).
 Cavity algorithm     : GePol (No added spheres)
                        Default sphere list used, NSphG=    6.
                        Lebedev-Laikov grids with approx.  5.0 points / Ang**2.
                        Smoothing algorithm: Karplus/York (Gamma=1.0000).
                        Polarization charges: spherical gaussians, with
                                              point-specific exponents (IZeta= 3).
                        Self-potential: point-specific (ISelfS= 7).
                        Self-field    : sphere-specific E.n sum rule (ISelfD= 2).
 1st derivatives      : Analytical E(r).r(x)/FMM algorithm (CHGder, D1EAlg=3).
                        Cavity 1st derivative terms included.
 Solvent              : Water, Eps=  78.355300 Eps(inf)=   1.777849
 ------------------------------------------------------------------------------
 Spheres list:
 ISph  on   Nord     Re0    Alpha      Xe            Ye            Ze
    1   C      1    1.8500  1.000     -1.183011     -0.000190     -0.000302
    2   H      2    1.2000  1.000     -1.480591      0.301223      1.001657
    3   H      3    1.2000  1.000     -1.476755      0.718492     -0.763041
    4   H      4    1.2000  1.000     -1.477165     -1.019795     -0.241728
    5   N      5    1.8900  1.000      0.265594      0.000310      0.001253
    6   N      6    1.8900  1.000      1.381917     -0.000135     -0.000550
 ------------------------------------------------------------------------------
 ------------------------------------------------------------------------------
 Atomic radii for non-electrostatic terms: SMD-CDS.
 ------------------------------------------------------------------------------
 Nuclear repulsion after PCM non-electrostatic terms =       65.9754309080 Hartrees.
 One-electron integrals computed using PRISM.
 NBasis=    72 RedAO= T EigKep=  1.96D-03  NBF=    72
 NBsUse=    72 1.00D-06 EigRej= -1.00D+00 NBFU=    72
 Initial guess from the checkpoint file:  "H3CN2smd.chk"
 B after Tr=     0.000000    0.000000    0.000000
         Rot=    0.994010    0.109285    0.000045    0.000005 Ang=  12.55 deg.
 Keep R1 ints in memory in canonical form, NReq=6888373.
 Requested convergence on RMS density matrix=1.00D-08 within 128 cycles.
 Requested convergence on MAX density matrix=1.00D-06.
 Requested convergence on             energy=1.00D-06.
 No special actions if energy rises.
 Inv3:  Mode=1 IEnd=     1287075.
 Iteration    1 A*A^-1 deviation from unit magnitude is 3.33D-15 for    250.
 Iteration    1 A*A^-1 deviation from orthogonality  is 4.13D-15 for    250     73.
 Iteration    1 A^-1*A deviation from unit magnitude is 3.33D-15 for    650.
 Iteration    1 A^-1*A deviation from orthogonality  is 3.16D-13 for    210    197.
 Error on total polarization charges =  0.00926
 SCF Done:  E(RHF) =  -148.361471284     A.U. after    9 cycles
            NFock=  9  Conv=0.85D-08     -V/T= 2.0031
 SMD-CDS (non-electrostatic) energy       (kcal/mol) =      -0.17
 (included in total energy above)
 Range of M.O.s used for correlation:     1    72
 NBasis=    72 NAE=    11 NBE=    11 NFC=     0 NFV=     0
 NROrb=     72 NOA=    11 NOB=    11 NVA=    61 NVB=    61
 Fully direct method using O(ONN) memory.
 JobTyp=1 Pass  1:  I=   1 to  11 NPSUse=  8 ParTrn=T ParDer=T DoDerP=T.
 Spin components of T(2) and E(2):
     alpha-alpha T2 =       0.2089652747D-01 E2=     -0.6333894438D-01
     alpha-beta  T2 =       0.1231143053D+00 E2=     -0.4125917818D+00
     beta-beta   T2 =       0.2089652747D-01 E2=     -0.6333894438D-01
 ANorm=    0.1079308742D+01
 E2 =    -0.5392696706D+00 EUMP2 =    -0.14890074095422D+03
          IDoAtm=111111
 NEqPCM:  Using equilibrium solvation (IEInf=0, Eps=  78.3553, EpsInf=   1.7778)
          Differentiating once with respect to electric field.
                with respect to dipole field.
          Differentiating once with respect to nuclear coordinates.
 Keep R1 ints in memory in canonical form, NReq=5914994.
          There are     1 degrees of freedom in the 1st order CPHF.  IDoFFX=0 NUNeed=     1.
 LinEq1:  Iter=  0 NonCon=     1 RMS=6.76D-03 Max=4.57D-02 NDo=     1
 AX will form     1 AO Fock derivatives at one time.
 LinEq1:  Iter=  1 NonCon=     1 RMS=1.68D-03 Max=1.77D-02 NDo=     1
 LinEq1:  Iter=  2 NonCon=     1 RMS=5.76D-04 Max=5.68D-03 NDo=     1
 LinEq1:  Iter=  3 NonCon=     1 RMS=2.75D-04 Max=2.11D-03 NDo=     1
 LinEq1:  Iter=  4 NonCon=     1 RMS=5.79D-05 Max=5.42D-04 NDo=     1
 LinEq1:  Iter=  5 NonCon=     1 RMS=9.92D-06 Max=8.35D-05 NDo=     1
 LinEq1:  Iter=  6 NonCon=     1 RMS=2.67D-06 Max=2.05D-05 NDo=     1
 LinEq1:  Iter=  7 NonCon=     1 RMS=4.46D-07 Max=3.12D-06 NDo=     1
 LinEq1:  Iter=  8 NonCon=     1 RMS=1.09D-07 Max=9.27D-07 NDo=     1
 LinEq1:  Iter=  9 NonCon=     1 RMS=2.84D-08 Max=2.70D-07 NDo=     1
 LinEq1:  Iter= 10 NonCon=     1 RMS=4.32D-09 Max=5.01D-08 NDo=     1
 LinEq1:  Iter= 11 NonCon=     1 RMS=5.99D-10 Max=3.85D-09 NDo=     1
 LinEq1:  Iter= 12 NonCon=     0 RMS=6.09D-11 Max=4.28D-10 NDo=     1
 Linear equations converged to 1.000D-10 1.000D-09 after    12 iterations.
 End of Minotr F.D. properties file   721 does not exist.
 End of Minotr F.D. properties file   722 does not exist.
 End of Minotr F.D. properties file   788 does not exist.
 D1PCM: PCM CHGder 1st derivatives, ID1Alg=3 FixD1E=F DoIter=F DoCFld=F I1PDM=2.
 Calling FoFJK, ICntrl=  10002127 FMM=F ISym2X=0 I1Cent= 0 IOpClX= 0 NMat=1 NMatS=1 NMatT=0.
 ***** Axes restored to original set *****
 -------------------------------------------------------------------
 Center     Atomic                   Forces (Hartrees/Bohr)
 Number     Number              X              Y              Z
 -------------------------------------------------------------------
      1        6           0.000131169   -0.000421953   -0.000697261
      2        1          -0.000246221   -0.000188171    0.000207300
      3        1          -0.000391276   -0.000168222   -0.000069530
      4        1           0.000009541   -0.000219363    0.000108833
      5        7           0.000465772    0.000945367    0.000342832
      6        7           0.000031015    0.000052342    0.000107826
 -------------------------------------------------------------------
 Cartesian Forces:  Max     0.000945367 RMS     0.000358255

 GradGradGradGradGradGradGradGradGradGradGradGradGradGradGradGradGradGrad
 Berny optimization.
 Using GEDIIS/GDIIS optimizer.
 FormGI is forming the generalized inverse of G from B-inverse, IUseBI=4.
 Internal  Forces:  Max     0.001199026 RMS     0.000330884
 Search for a local minimum.
 Step number   3 out of a maximum of   27
 All quantities printed in internal units (Hartrees-Bohrs-Radians)
 Mixed Optimization -- En-DIIS/RFO-DIIS
 Swapping is turned off.
 Update second derivatives using D2CorX and points    1    2    3
 DE=  5.86D-05 DEPred=-4.74D-06 R=-1.24D+01
 Trust test=-1.24D+01 RLast= 1.88D-02 DXMaxT set to 1.50D-01
 The second derivative matrix:
                          R1        R2        R3        R4        R5
           R1           0.35158
           R2           0.00049   0.35430
           R3           0.00159   0.00408   0.34947
           R4           0.00804   0.00012  -0.00211   0.30005
           R5           0.01656  -0.02370  -0.01448  -0.08941   1.56786
           A1           0.01507   0.00407   0.00513  -0.00220  -0.00293
           A2           0.00812  -0.00078   0.00066  -0.01007  -0.00443
           A3          -0.01495   0.00297  -0.00061   0.01407  -0.00452
           A4           0.00852  -0.00011   0.00123  -0.00787  -0.00321
           A5          -0.01276  -0.00437  -0.00501  -0.00124   0.00160
           A6          -0.01000  -0.00231  -0.00269   0.01096   0.01495
           A7          -0.00091   0.00304   0.00147  -0.00033  -0.01235
           A8           0.00031  -0.00068  -0.00028   0.00067   0.00371
           D1          -0.01607  -0.02892  -0.02212  -0.05732   0.00242
           D2          -0.00299  -0.00378  -0.00315  -0.00892  -0.00267
           D3          -0.00181  -0.00038  -0.00078  -0.00405  -0.00645
           D4           0.00118   0.00341   0.00236   0.00487  -0.00377
                          A1        A2        A3        A4        A5
           A1           0.13641
           A2          -0.01848   0.14713
           A3           0.02449   0.01725   0.13909
           A4          -0.01840  -0.01297   0.01738   0.14693
           A5           0.02210   0.01691  -0.02295   0.01693   0.13930
           A6           0.02489   0.01826  -0.02594   0.01825  -0.02249
           A7          -0.00348  -0.00305   0.00608  -0.00295   0.00272
           A8           0.00080   0.00073  -0.00150   0.00070  -0.00059
           D1           0.00747   0.01386  -0.02219   0.01314  -0.00843
           D2           0.00087   0.00180  -0.00249   0.00172  -0.00117
           D3          -0.00058  -0.00018   0.00102  -0.00017   0.00017
           D4          -0.00145  -0.00199   0.00351  -0.00189   0.00133
                          A6        A7        A8        D1        D2
           A6           0.13577
           A7           0.00249   0.05162
           A8          -0.00058  -0.00037   0.05026
           D1          -0.01020  -0.00542   0.00160   0.04920
           D2          -0.00152  -0.00041   0.00014   0.00555   0.00978
           D3          -0.00005   0.00048  -0.00010  -0.00043   0.00005
           D4           0.00147   0.00089  -0.00024  -0.00598  -0.00066
                          D3        D4
           D3           0.00928
           D4           0.00015   0.00988
 ITU= -1  1  0
     Eigenvalues ---    0.04362   0.05017   0.05739   0.06859   0.08001
     Eigenvalues ---    0.15840   0.16290   0.30714   0.34710   0.35268
     Eigenvalues ---    0.35887   1.57525
 En-DIIS/RFO-DIIS IScMMF=        0 using points:     3    2
 RFO step:  Lambda=-3.43531608D-06.
 DidBck=F Rises=F RFO-DIIS coefs:    0.80587    0.19413
 Iteration  1 RMS(Cart)=  0.00166199 RMS(Int)=  0.00000380
 Iteration  2 RMS(Cart)=  0.00000140 RMS(Int)=  0.00000350
 Iteration  3 RMS(Cart)=  0.00000000 RMS(Int)=  0.00000350
 Variable       Old X    -DE/DX   Delta X   Delta X   Delta X     New X
                                 (Linear)    (Quad)   (Total)
    R1        2.05566   0.00023  -0.00013   0.00086   0.00072   2.05638
    R2        2.05673  -0.00034  -0.00008  -0.00080  -0.00088   2.05585
    R3        2.05660  -0.00021  -0.00005  -0.00052  -0.00056   2.05603
    R4        2.73747  -0.00120   0.00034  -0.00427  -0.00394   2.73353
    R5        2.10955  -0.00009   0.00014  -0.00049  -0.00035   2.10920
    A1        1.97002   0.00015   0.00100   0.00004   0.00104   1.97106
    A2        1.97141   0.00002   0.00077  -0.00149  -0.00071   1.97070
    A3        1.84676  -0.00022  -0.00117   0.00037  -0.00081   1.84595
    A4        1.97168   0.00007   0.00076  -0.00048   0.00028   1.97196
    A5        1.84462  -0.00011  -0.00086   0.00044  -0.00043   1.84420
    A6        1.84507   0.00005  -0.00096   0.00147   0.00051   1.84558
    A7        3.14438  -0.00014   0.00009  -0.00257  -0.00248   3.14190
    A8        3.14171   0.00005  -0.00002   0.00104   0.00102   3.14273
    D1        2.26266   0.00029   0.00282  -0.00172   0.00109   2.26375
    D2       -2.09343  -0.00001  -0.00016  -0.00044  -0.00060  -2.09403
    D3        2.09525  -0.00006  -0.00015  -0.00081  -0.00096   2.09428
    D4       -2.09451  -0.00005   0.00001  -0.00037  -0.00036  -2.09487
         Item               Value     Threshold  Converged?
 Maximum Force            0.001199     0.000450     NO 
 RMS     Force            0.000331     0.000300     NO 
 Maximum Displacement     0.003206     0.001800     NO 
 RMS     Displacement     0.001663     0.001200     NO 
 Predicted change in Energy=-3.270814D-06
 GradGradGradGradGradGradGradGradGradGradGradGradGradGradGradGradGradGrad

                          Input orientation:                          
 ---------------------------------------------------------------------
 Center     Atomic      Atomic             Coordinates (Angstroms)
 Number     Number       Type             X           Y           Z
 ---------------------------------------------------------------------
      1          6           0        0.011893    0.020993    0.008545
      2          1           0       -0.023221   -0.039984    1.094459
      3          1           0        1.023381   -0.041661   -0.387074
      4          1           0       -0.547204    0.866619   -0.386527
      5          7           0       -0.669952   -1.160105   -0.473667
      6          7           0       -1.195440   -2.071670   -0.846068
 ---------------------------------------------------------------------
                    Distance matrix (angstroms):
                    1          2          3          4          5
     1  C    0.000000
     2  H    1.088191   0.000000
     3  H    1.087911   1.813924   0.000000
     4  H    1.088005   1.813783   1.814307   0.000000
     5  N    1.446524   2.032720   2.031204   2.032306   0.000000
     6  N    2.562665   3.044255   3.042167   3.043834   1.116141
                    6
     6  N    0.000000
 Stoichiometry    CH3N2(1+)
 Framework group  C1[X(CH3N2)]
 Deg. of freedom    12
 Full point group                 C1      NOp   1
 Largest Abelian subgroup         C1      NOp   1
 Largest concise Abelian subgroup C1      NOp   1
                         Standard orientation:                         
 ---------------------------------------------------------------------
 Center     Atomic      Atomic             Coordinates (Angstroms)
 Number     Number       Type             X           Y           Z
 ---------------------------------------------------------------------
      1          6           0       -1.181726    0.000107   -0.000118
      2          1           0       -1.477582   -0.135984    1.038202
      3          1           0       -1.475134    0.967905   -0.401154
      4          1           0       -1.477083   -0.830989   -0.637142
      5          7           0        0.264798   -0.000302    0.000101
      6          7           0        1.380939    0.000077    0.000014
 ---------------------------------------------------------------------
 Rotational constants (GHZ):    152.3896628      9.6735814      9.6733691
 Standard basis: 6-311G(d,p) (5D, 7F)
 There are    75 symmetry adapted cartesian basis functions of A   symmetry.
 There are    72 symmetry adapted basis functions of A   symmetry.
    72 basis functions,   120 primitive gaussians,    75 cartesian basis functions
    11 alpha electrons       11 beta electrons
       nuclear repulsion energy        66.0187353481 Hartrees.
 NAtoms=    6 NActive=    6 NUniq=    6 SFac= 1.00D+00 NAtFMM=   60 NAOKFM=F Big=F
 Integral buffers will be    131072 words long.
 Raffenetti 1 integral format.
 Two-electron integral symmetry is turned on.
 ------------------------------------------------------------------------------
 Polarizable Continuum Model (PCM)
 =================================
 Model                : PCM (using non-symmetric T matrix).
 Atomic radii         : SMD-Coulomb.
 Polarization charges : Total charges.
 Charge compensation  : None.
 Solution method      : On-the-fly selection.
 Cavity type          : VdW (van der Waals Surface) (Alpha=1.000).
 Cavity algorithm     : GePol (No added spheres)
                        Default sphere list used, NSphG=    6.
                        Lebedev-Laikov grids with approx.  5.0 points / Ang**2.
                        Smoothing algorithm: Karplus/York (Gamma=1.0000).
                        Polarization charges: spherical gaussians, with
                                              point-specific exponents (IZeta= 3).
                        Self-potential: point-specific (ISelfS= 7).
                        Self-field    : sphere-specific E.n sum rule (ISelfD= 2).
 1st derivatives      : Analytical E(r).r(x)/FMM algorithm (CHGder, D1EAlg=3).
                        Cavity 1st derivative terms included.
 Solvent              : Water, Eps=  78.355300 Eps(inf)=   1.777849
 ------------------------------------------------------------------------------
 Spheres list:
 ISph  on   Nord     Re0    Alpha      Xe            Ye            Ze
    1   C      1    1.8500  1.000     -1.181726      0.000107     -0.000118
    2   H      2    1.2000  1.000     -1.477582     -0.135984      1.038202
    3   H      3    1.2000  1.000     -1.475134      0.967905     -0.401154
    4   H      4    1.2000  1.000     -1.477083     -0.830989     -0.637142
    5   N      5    1.8900  1.000      0.264798     -0.000302      0.000101
    6   N      6    1.8900  1.000      1.380939      0.000077      0.000014
 ------------------------------------------------------------------------------
 ------------------------------------------------------------------------------
 Atomic radii for non-electrostatic terms: SMD-CDS.
 ------------------------------------------------------------------------------
 Nuclear repulsion after PCM non-electrostatic terms =       66.0184522263 Hartrees.
 One-electron integrals computed using PRISM.
 NBasis=    72 RedAO= T EigKep=  1.96D-03  NBF=    72
 NBsUse=    72 1.00D-06 EigRej= -1.00D+00 NBFU=    72
 Initial guess from the checkpoint file:  "H3CN2smd.chk"
 B after Tr=     0.000000    0.000000    0.000000
         Rot=    0.977812   -0.209486   -0.000070    0.000052 Ang= -24.18 deg.
 Keep R1 ints in memory in canonical form, NReq=6881003.
 Requested convergence on RMS density matrix=1.00D-08 within 128 cycles.
 Requested convergence on MAX density matrix=1.00D-06.
 Requested convergence on             energy=1.00D-06.
 No special actions if energy rises.
 Inv3:  Mode=1 IEnd=     1267500.
 Iteration    1 A*A^-1 deviation from unit magnitude is 3.89D-15 for    639.
 Iteration    1 A*A^-1 deviation from orthogonality  is 2.13D-15 for    546    117.
 Iteration    1 A^-1*A deviation from unit magnitude is 4.33D-15 for    639.
 Iteration    1 A^-1*A deviation from orthogonality  is 8.49D-15 for    555    229.
 Error on total polarization charges =  0.00929
 SCF Done:  E(RHF) =  -148.361504013     A.U. after   10 cycles
            NFock= 10  Conv=0.68D-08     -V/T= 2.0031
 SMD-CDS (non-electrostatic) energy       (kcal/mol) =      -0.18
 (included in total energy above)
 Range of M.O.s used for correlation:     1    72
 NBasis=    72 NAE=    11 NBE=    11 NFC=     0 NFV=     0
 NROrb=     72 NOA=    11 NOB=    11 NVA=    61 NVB=    61
 Fully direct method using O(ONN) memory.
 JobTyp=1 Pass  1:  I=   1 to  11 NPSUse=  8 ParTrn=T ParDer=T DoDerP=T.
 Spin components of T(2) and E(2):
     alpha-alpha T2 =       0.2089357447D-01 E2=     -0.6335181917D-01
     alpha-beta  T2 =       0.1230648940D+00 E2=     -0.4125670499D+00
     beta-beta   T2 =       0.2089357447D-01 E2=     -0.6335181917D-01
 ANorm=    0.1079283115D+01
 E2 =    -0.5392706882D+00 EUMP2 =    -0.14890077470099D+03
          IDoAtm=111111
 NEqPCM:  Using equilibrium solvation (IEInf=0, Eps=  78.3553, EpsInf=   1.7778)
          Differentiating once with respect to electric field.
                with respect to dipole field.
          Differentiating once with respect to nuclear coordinates.
 Keep R1 ints in memory in canonical form, NReq=5900845.
          There are     1 degrees of freedom in the 1st order CPHF.  IDoFFX=0 NUNeed=     1.
 LinEq1:  Iter=  0 NonCon=     1 RMS=6.76D-03 Max=5.32D-02 NDo=     1
 AX will form     1 AO Fock derivatives at one time.
 LinEq1:  Iter=  1 NonCon=     1 RMS=1.68D-03 Max=1.76D-02 NDo=     1
 LinEq1:  Iter=  2 NonCon=     1 RMS=5.74D-04 Max=6.16D-03 NDo=     1
 LinEq1:  Iter=  3 NonCon=     1 RMS=2.75D-04 Max=2.67D-03 NDo=     1
 LinEq1:  Iter=  4 NonCon=     1 RMS=5.78D-05 Max=5.43D-04 NDo=     1
 LinEq1:  Iter=  5 NonCon=     1 RMS=9.93D-06 Max=8.33D-05 NDo=     1
 LinEq1:  Iter=  6 NonCon=     1 RMS=2.66D-06 Max=2.06D-05 NDo=     1
 LinEq1:  Iter=  7 NonCon=     1 RMS=4.15D-07 Max=3.12D-06 NDo=     1
 LinEq1:  Iter=  8 NonCon=     1 RMS=7.96D-08 Max=8.99D-07 NDo=     1
 LinEq1:  Iter=  9 NonCon=     1 RMS=2.16D-08 Max=2.67D-07 NDo=     1
 LinEq1:  Iter= 10 NonCon=     1 RMS=4.14D-09 Max=4.52D-08 NDo=     1
 LinEq1:  Iter= 11 NonCon=     1 RMS=5.99D-10 Max=3.95D-09 NDo=     1
 LinEq1:  Iter= 12 NonCon=     0 RMS=6.06D-11 Max=4.29D-10 NDo=     1
 Linear equations converged to 1.000D-10 1.000D-09 after    12 iterations.
 End of Minotr F.D. properties file   721 does not exist.
 End of Minotr F.D. properties file   722 does not exist.
 End of Minotr F.D. properties file   788 does not exist.
 D1PCM: PCM CHGder 1st derivatives, ID1Alg=3 FixD1E=F DoIter=F DoCFld=F I1PDM=2.
 Calling FoFJK, ICntrl=  10002127 FMM=F ISym2X=0 I1Cent= 0 IOpClX= 0 NMat=1 NMatS=1 NMatT=0.
 ***** Axes restored to original set *****
 -------------------------------------------------------------------
 Center     Atomic                   Forces (Hartrees/Bohr)
 Number     Number              X              Y              Z
 -------------------------------------------------------------------
      1        6           0.000013162   -0.000160323    0.000374441
      2        1           0.000112529    0.000027326   -0.000117234
      3        1           0.000214378    0.000058222   -0.000262307
      4        1          -0.000250728    0.000047356   -0.000202071
      5        7           0.000104052    0.000341395    0.000337666
      6        7          -0.000193394   -0.000313976   -0.000130495
 -------------------------------------------------------------------
 Cartesian Forces:  Max     0.000374441 RMS     0.000212359

 GradGradGradGradGradGradGradGradGradGradGradGradGradGradGradGradGradGrad
 Berny optimization.
 Using GEDIIS/GDIIS optimizer.
 FormGI is forming the generalized inverse of G from B-inverse, IUseBI=4.
 Internal  Forces:  Max     0.000391033 RMS     0.000165890
 Search for a local minimum.
 Step number   4 out of a maximum of   27
 All quantities printed in internal units (Hartrees-Bohrs-Radians)
 Mixed Optimization -- En-DIIS/RFO-DIIS
 Swapping is turned off.
 Update second derivatives using D2CorX and points    1    2    3    4
 DE= -3.37D-05 DEPred=-3.27D-06 R= 1.03D+01
 TightC=F SS=  1.41D+00  RLast= 5.46D-03 DXNew= 2.5227D-01 1.6370D-02
 Trust test= 1.03D+01 RLast= 5.46D-03 DXMaxT set to 1.50D-01
 The second derivative matrix:
                          R1        R2        R3        R4        R5
           R1           0.36343
           R2          -0.01304   0.38209
           R3          -0.00716   0.02526   0.36594
           R4           0.00525   0.03274   0.02575   0.24352
           R5           0.01272   0.02252   0.02414  -0.04773   1.65794
           A1           0.01168   0.00083   0.00183  -0.00046  -0.01089
           A2           0.00461   0.00382   0.00373  -0.01863  -0.00646
           A3          -0.01741   0.01105   0.00582   0.02844   0.01297
           A4           0.00424   0.00213   0.00220  -0.00480  -0.00508
           A5          -0.01425   0.00686   0.00416   0.02307   0.02719
           A6           0.00709  -0.02603  -0.01931  -0.02331  -0.01446
           A7          -0.01480   0.02592   0.01810   0.03549   0.02172
           A8           0.00212  -0.00361  -0.00240  -0.00093   0.00039
           D1          -0.01334  -0.02204  -0.01642  -0.03568   0.01543
           D2          -0.00222  -0.00484  -0.00397  -0.00925  -0.00471
           D3          -0.00551   0.00436   0.00250   0.00722   0.00097
           D4          -0.00330   0.00921   0.00646   0.01647   0.00567
                          A1        A2        A3        A4        A5
           A1           0.13402
           A2          -0.01730   0.14692
           A3           0.02487   0.01913   0.13985
           A4          -0.01909  -0.01170   0.01855   0.14736
           A5           0.02132   0.01866  -0.02098   0.01726   0.14263
           A6           0.02753   0.01201  -0.03280   0.01556  -0.02945
           A7          -0.00554   0.00268   0.01184  -0.00046   0.00940
           A8           0.00072   0.00023  -0.00227   0.00019  -0.00156
           D1           0.00839   0.01398  -0.02146   0.01272  -0.00854
           D2           0.00121   0.00163  -0.00294   0.00164  -0.00192
           D3          -0.00140   0.00164   0.00212   0.00031   0.00119
           D4          -0.00261   0.00001   0.00505  -0.00133   0.00311
                          A6        A7        A8        D1        D2
           A6           0.15710
           A7          -0.01733   0.06984
           A8           0.00246  -0.00311   0.05059
           D1          -0.01162  -0.00378   0.00116   0.04193
           D2          -0.00043  -0.00152   0.00026   0.00450   0.00976
           D3          -0.00395   0.00398  -0.00077  -0.00042  -0.00019
           D4          -0.00352   0.00550  -0.00102  -0.00492  -0.00088
                          D3        D4
           D3           0.00978
           D4           0.00089   0.01085
 ITU=  1 -1  1  0
     Eigenvalues ---    0.04954   0.05514   0.05815   0.07051   0.07264
     Eigenvalues ---    0.16076   0.17271   0.25334   0.34721   0.36113
     Eigenvalues ---    0.43197   1.66131
 En-DIIS/RFO-DIIS IScMMF=        0 using points:     4    3    2
 RFO step:  Lambda=-7.94262694D-07.
 DidBck=F Rises=F RFO-DIIS coefs:    0.78400    0.13401    0.08198
 Iteration  1 RMS(Cart)=  0.00147836 RMS(Int)=  0.00000294
 Iteration  2 RMS(Cart)=  0.00000262 RMS(Int)=  0.00000135
 Iteration  3 RMS(Cart)=  0.00000000 RMS(Int)=  0.00000135
 Variable       Old X    -DE/DX   Delta X   Delta X   Delta X     New X
                                 (Linear)    (Quad)   (Total)
    R1        2.05638  -0.00009  -0.00021   0.00019  -0.00002   2.05636
    R2        2.05585   0.00028   0.00016   0.00032   0.00048   2.05634
    R3        2.05603   0.00022   0.00010   0.00031   0.00041   2.05644
    R4        2.73353  -0.00005   0.00099  -0.00182  -0.00082   2.73271
    R5        2.10920   0.00039   0.00014   0.00000   0.00013   2.10933
    A1        1.97106  -0.00002   0.00020   0.00043   0.00063   1.97169
    A2        1.97070   0.00008   0.00048  -0.00013   0.00035   1.97105
    A3        1.84595   0.00008  -0.00032   0.00055   0.00022   1.84618
    A4        1.97196   0.00002   0.00026  -0.00033  -0.00007   1.97189
    A5        1.84420   0.00009  -0.00027   0.00046   0.00018   1.84438
    A6        1.84558  -0.00027  -0.00051  -0.00097  -0.00148   1.84410
    A7        3.14190   0.00027   0.00057   0.00312   0.00369   3.14559
    A8        3.14273  -0.00002  -0.00023   0.00008  -0.00015   3.14258
    D1        2.26375   0.00006   0.00095   0.00019   0.00114   2.26489
    D2       -2.09403  -0.00006   0.00006  -0.00098  -0.00092  -2.09495
    D3        2.09428   0.00000   0.00015  -0.00035  -0.00021   2.09408
    D4       -2.09487   0.00006   0.00008   0.00063   0.00071  -2.09416
         Item               Value     Threshold  Converged?
 Maximum Force            0.000391     0.000450     YES
 RMS     Force            0.000166     0.000300     YES
 Maximum Displacement     0.003076     0.001800     NO 
 RMS     Displacement     0.001479     0.001200     NO 
 Predicted change in Energy=-9.230251D-07
 GradGradGradGradGradGradGradGradGradGradGradGradGradGradGradGradGradGrad

                          Input orientation:                          
 ---------------------------------------------------------------------
 Center     Atomic      Atomic             Coordinates (Angstroms)
 Number     Number       Type             X           Y           Z
 ---------------------------------------------------------------------
      1          6           0        0.012092    0.020722    0.009021
      2          1           0       -0.022777   -0.039188    1.094990
      3          1           0        1.023509   -0.041963   -0.387476
      4          1           0       -0.548013    0.865398   -0.387256
      5          7           0       -0.670034   -1.160148   -0.472039
      6          7           0       -1.195320   -2.070630   -0.847571
 ---------------------------------------------------------------------
                    Distance matrix (angstroms):
                    1          2          3          4          5
     1  C    0.000000
     2  H    1.088179   0.000000
     3  H    1.088166   1.814505   0.000000
     4  H    1.088223   1.814167   1.814659   0.000000
     5  N    1.446088   2.032505   2.031152   2.030988   0.000000
     6  N    2.562294   3.045515   3.041444   3.041571   1.116211
                    6
     6  N    0.000000
 Stoichiometry    CH3N2(1+)
 Framework group  C1[X(CH3N2)]
 Deg. of freedom    12
 Full point group                 C1      NOp   1
 Largest Abelian subgroup         C1      NOp   1
 Largest concise Abelian subgroup C1      NOp   1
                         Standard orientation:                         
 ---------------------------------------------------------------------
 Center     Atomic      Atomic             Coordinates (Angstroms)
 Number     Number       Type             X           Y           Z
 ---------------------------------------------------------------------
      1          6           0       -1.181523    0.000304   -0.000449
      2          1           0       -1.479120   -0.385082    0.972715
      3          1           0       -1.474469    1.036934   -0.154351
      4          1           0       -1.474601   -0.650468   -0.821930
      5          7           0        0.264562   -0.000863    0.001621
      6          7           0        1.380771    0.000405   -0.000727
 ---------------------------------------------------------------------
 Rotational constants (GHZ):    152.3135074      9.6768377      9.6766457
 Standard basis: 6-311G(d,p) (5D, 7F)
 There are    75 symmetry adapted cartesian basis functions of A   symmetry.
 There are    72 symmetry adapted basis functions of A   symmetry.
    72 basis functions,   120 primitive gaussians,    75 cartesian basis functions
    11 alpha electrons       11 beta electrons
       nuclear repulsion energy        66.0238336540 Hartrees.
 NAtoms=    6 NActive=    6 NUniq=    6 SFac= 1.00D+00 NAtFMM=   60 NAOKFM=F Big=F
 Integral buffers will be    131072 words long.
 Raffenetti 1 integral format.
 Two-electron integral symmetry is turned on.
 ------------------------------------------------------------------------------
 Polarizable Continuum Model (PCM)
 =================================
 Model                : PCM (using non-symmetric T matrix).
 Atomic radii         : SMD-Coulomb.
 Polarization charges : Total charges.
 Charge compensation  : None.
 Solution method      : On-the-fly selection.
 Cavity type          : VdW (van der Waals Surface) (Alpha=1.000).
 Cavity algorithm     : GePol (No added spheres)
                        Default sphere list used, NSphG=    6.
                        Lebedev-Laikov grids with approx.  5.0 points / Ang**2.
                        Smoothing algorithm: Karplus/York (Gamma=1.0000).
                        Polarization charges: spherical gaussians, with
                                              point-specific exponents (IZeta= 3).
                        Self-potential: point-specific (ISelfS= 7).
                        Self-field    : sphere-specific E.n sum rule (ISelfD= 2).
 1st derivatives      : Analytical E(r).r(x)/FMM algorithm (CHGder, D1EAlg=3).
                        Cavity 1st derivative terms included.
 Solvent              : Water, Eps=  78.355300 Eps(inf)=   1.777849
 ------------------------------------------------------------------------------
 Spheres list:
 ISph  on   Nord     Re0    Alpha      Xe            Ye            Ze
    1   C      1    1.8500  1.000     -1.181523      0.000304     -0.000449
    2   H      2    1.2000  1.000     -1.479120     -0.385082      0.972715
    3   H      3    1.2000  1.000     -1.474469      1.036934     -0.154351
    4   H      4    1.2000  1.000     -1.474601     -0.650468     -0.821930
    5   N      5    1.8900  1.000      0.264562     -0.000863      0.001621
    6   N      6    1.8900  1.000      1.380771      0.000405     -0.000727
 ------------------------------------------------------------------------------
[...]
     3  H    0.158451
     4  H    0.157125
     5  N    0.239134
     6  N    0.149291
 Sum of APT charges =   1.00000
 APT charges with hydrogens summed into heavy atoms:
               1
     1  C    0.611575
     5  N    0.239134
     6  N    0.149291
 Electronic spatial extent (au):  <R**2>=            143.3369
 Charge=              1.0000 electrons
 Dipole moment (field-independent basis, Debye):
    X=             -2.4072    Y=             -0.0008    Z=              0.0005  Tot=              2.4072
 Quadrupole moment (field-independent basis, Debye-Ang):
   XX=             -9.9790   YY=            -14.4357   ZZ=            -14.4366
   XY=              0.0009   XZ=             -0.0008   YZ=              0.0000
 Traceless Quadrupole moment (field-independent basis, Debye-Ang):
   XX=              2.9714   YY=             -1.4853   ZZ=             -1.4861
   XY=              0.0009   XZ=             -0.0008   YZ=              0.0000
 Octapole moment (field-independent basis, Debye-Ang**2):
  XXX=             -7.2192  YYY=             -1.2615  ZZZ=             -0.4042  XYY=             -1.6748
  XXY=              0.0019  XXZ=              0.0028  XZZ=             -1.6754  YZZ=              1.2564
  YYZ=              0.4040  XYZ=             -0.0013
 Hexadecapole moment (field-independent basis, Debye-Ang**3):
 XXXX=           -125.1593 YYYY=            -16.9205 ZZZZ=            -16.9229 XXXY=             -0.0048
 XXXZ=             -0.0047 YYYX=              1.9958 YYYZ=             -0.0008 ZZZX=              0.6390
 ZZZY=             -0.0006 XXYY=            -21.9042 XXZZ=            -21.8990 YYZZ=             -5.6432
 XXYZ=              0.0039 YYXZ=             -0.6405 ZZXY=             -1.9915
 N-N= 6.601548451220D+01 E-N=-4.716555726835D+02  KE= 1.479002913218D+02
  Exact polarizability:  35.371  -0.004  18.200  -0.006   0.001  18.194
 Approx polarizability:  28.629  -0.009  13.366  -0.007   0.000  13.363
 D2PCM: PCM CHGder 2nd derivatives, FixD1E=F FixD2E=F DoIter=F DoCFld=F I1PDM=2
 Calling FoFJK, ICntrl=  10100127 FMM=F ISym2X=0 I1Cent= 0 IOpClX= 0 NMat=1 NMatS=1 NMatT=0.
 Full mass-weighted force constant matrix:
 Low frequencies --- -103.5337  -83.3147  -76.8723   -0.0011   -0.0006   -0.0001
 Low frequencies ---  334.8360  338.3537  799.7260
 Diagonal vibrational polarizability:
        0.3872912       0.7347711       0.7353030
 Harmonic frequencies (cm**-1), IR intensities (KM/Mole), Raman scattering
 activities (A**4/AMU), depolarization ratios for plane and unpolarized
 incident light, reduced masses (AMU), force constants (mDyne/A),
 and normal coordinates:
                      1                      2                      3
                      A                      A                      A
 Frequencies --    333.5164               337.4890               799.7193
 Red. masses --      4.5330                 4.5785                 7.1502
 Frc consts  --      0.2971                 0.3073                 2.6943
 IR Inten    --      0.0603                 0.0674                 5.1639
  Atom  AN      X      Y      Z        X      Y      Z        X      Y      Z
     1   6     0.00   0.10   0.04     0.00  -0.04   0.11     0.59   0.00   0.00
     2   1     0.47   0.27   0.10     0.32  -0.09   0.26     0.40  -0.02  -0.04
     3   1     0.03   0.26   0.10    -0.57  -0.09   0.27     0.39  -0.01   0.05
     4   1    -0.52   0.26   0.10     0.25  -0.10   0.26     0.40   0.05   0.00
     5   7     0.00  -0.40  -0.15     0.00   0.15  -0.41    -0.25   0.00   0.00
     6   7     0.00   0.26   0.09     0.00  -0.10   0.26    -0.34   0.00   0.00
                      4                      5                      6
                      A                      A                      A
 Frequencies --   1158.9597              1166.1239              1433.1596
 Red. masses --      1.3554                 1.3531                 1.1148
 Frc consts  --      1.0726                 1.0841                 1.3490
 IR Inten    --      4.5061                 4.8862                12.5900
  Atom  AN      X      Y      Z        X      Y      Z        X      Y      Z
     1   6     0.00   0.14   0.04     0.00  -0.04   0.14    -0.09  -0.01   0.01
     2   1    -0.54  -0.25   0.13    -0.39   0.28  -0.24     0.59   0.33   0.01
     3   1    -0.07  -0.41  -0.18     0.66  -0.03  -0.07     0.27   0.03  -0.09
     4   1     0.61  -0.06  -0.16    -0.27  -0.02  -0.42     0.58  -0.22  -0.25
     5   7     0.00  -0.08  -0.03     0.00   0.03  -0.08     0.00  -0.01   0.01
     6   7     0.00   0.01   0.00     0.00   0.00   0.01    -0.02   0.00   0.00
                      7                      8                      9
                      A                      A                      A
 Frequencies --   1443.6739              1446.5841              2238.6545
 Red. masses --      1.0482                 1.0381                13.1440
 Frc consts  --      1.2871                 1.2800                38.8107
 IR Inten    --     34.7310                38.6877                 0.0046
  Atom  AN      X      Y      Z        X      Y      Z        X      Y      Z
     1   6    -0.04   0.02  -0.02    -0.02  -0.02  -0.02    -0.05   0.00   0.00
     2   1     0.21  -0.45   0.41    -0.33   0.00  -0.13    -0.12  -0.05  -0.07
     3   1     0.57  -0.19  -0.29     0.30   0.59   0.15    -0.12  -0.03   0.08
     4   1    -0.16   0.08   0.31     0.37  -0.07   0.53    -0.12   0.08  -0.01
     5   7     0.00   0.02  -0.02     0.00  -0.02  -0.02     0.72   0.00   0.00
     6   7    -0.01   0.00   0.00     0.00   0.00   0.00    -0.65   0.00   0.00
                     10                     11                     12
                      A                      A                      A
 Frequencies --   3137.7118              3273.4531              3276.7220
 Red. masses --      1.0246                 1.1112                 1.1111
 Frc consts  --      5.9431                 7.0156                 7.0290
 IR Inten    --     37.7244                42.1740                40.9358
  Atom  AN      X      Y      Z        X      Y      Z        X      Y      Z
     1   6     0.04   0.00   0.00     0.00   0.03   0.09     0.00  -0.09   0.03
     2   1    -0.16   0.33   0.46     0.21  -0.43  -0.59    -0.07   0.14   0.21
     3   1    -0.16   0.22  -0.50    -0.17   0.25  -0.55    -0.14   0.19  -0.46
     4   1    -0.16  -0.54   0.05    -0.04  -0.15   0.03     0.22   0.77  -0.08
     5   7     0.01   0.00   0.00     0.00   0.00   0.00     0.00   0.00   0.00
     6   7     0.00   0.00   0.00     0.00   0.00   0.00     0.00   0.00   0.00

 -------------------
 - Thermochemistry -
 -------------------
 Temperature   298.150 Kelvin.  Pressure   1.00000 Atm.
 Atom     1 has atomic number  6 and mass  12.00000
 Atom     2 has atomic number  1 and mass   1.00783
 Atom     3 has atomic number  1 and mass   1.00783
 Atom     4 has atomic number  1 and mass   1.00783
 Atom     5 has atomic number  7 and mass  14.00307
 Atom     6 has atomic number  7 and mass  14.00307
 Molecular mass:    43.02962 amu.
 Principal axes and moments of inertia in atomic units:
                           1         2         3
     Eigenvalues --    11.84979 186.55495 186.55687
           X            1.00000   0.00001   0.00000
           Y           -0.00001   0.99999  -0.00335
           Z            0.00000   0.00335   0.99999
 This molecule is an asymmetric top.
 Rotational symmetry number  1.
 Rotational temperatures (Kelvin)      7.30931     0.46428     0.46428
 Rotational constants (GHZ):         152.30158     9.67405     9.67395
 Zero-point vibrational energy     119900.3 (Joules/Mol)
                                   28.65686 (Kcal/Mol)
 Warning -- explicit consideration of   2 degrees of freedom as
           vibrations may cause significant error
 Vibrational temperatures:    479.86   485.57  1150.62  1667.48  1677.79
          (Kelvin)           2061.99  2077.12  2081.31  3220.92  4514.46
                             4709.76  4714.47
 
 Zero-point correction=                           0.045668 (Hartree/Particle)
 Thermal correction to Energy=                    0.049392
 Thermal correction to Enthalpy=                  0.050336
 Thermal correction to Gibbs Free Energy=         0.021509
 Sum of electronic and zero-point Energies=           -148.855120
 Sum of electronic and thermal Energies=              -148.851396
 Sum of electronic and thermal Enthalpies=            -148.850452
 Sum of electronic and thermal Free Energies=         -148.879278
 
                     E (Thermal)             CV                S
                      KCal/Mol        Cal/Mol-Kelvin    Cal/Mol-Kelvin
 Total                   30.994             10.564             60.671
 Electronic               0.000              0.000              0.000
 Translational            0.889              2.981             37.204
 Rotational               0.889              2.981             20.650
 Vibrational             29.216              4.602              2.817
 Vibration     1          0.715              1.609              1.243
 Vibration     2          0.718              1.601              1.224
                       Q            Log10(Q)             Ln(Q)
 Total Bot       0.127783D-09         -9.893527        -22.780687
 Total V=0       0.129442D+12         11.112074         25.586497
 Vib (Bot)       0.158437D-20        -20.800144        -47.894102
 Vib (Bot)    1  0.559015D+00         -0.252576         -0.581578
 Vib (Bot)    2  0.551067D+00         -0.258796         -0.595899
 Vib (V=0)       0.160493D+01          0.205457          0.473083
 Vib (V=0)    1  0.125000D+01          0.096910          0.223143
 Vib (V=0)    2  0.124409D+01          0.094853          0.218407
 Electronic      0.100000D+01          0.000000          0.000000
 Translational   0.110945D+08          7.045107         16.221957
 Rotational      0.726960D+04          3.861511          8.891457
 ***** Axes restored to original set *****
 -------------------------------------------------------------------
 Center     Atomic                   Forces (Hartrees/Bohr)
 Number     Number              X              Y              Z
 -------------------------------------------------------------------
      1        6          -0.000296974    0.000414765   -0.000164913
      2        1          -0.000144881   -0.000129227    0.000064801
      3        1           0.000188089   -0.000162515    0.000004777
      4        1           0.000371829   -0.000120621    0.000152460
      5        7          -0.000101530    0.000052119   -0.000083068
      6        7          -0.000016533   -0.000054522    0.000025944
 -------------------------------------------------------------------
 Cartesian Forces:  Max     0.000414765 RMS     0.000181202
 FormGI is forming the generalized inverse of G from B-inverse, IUseBI=4.

 GradGradGradGradGradGradGradGradGradGradGradGradGradGradGradGradGradGrad
 Berny optimization.
 Internal  Forces:  Max     0.000315115 RMS     0.000149730
 Search for a local minimum.
 Step number   1 out of a maximum of    2
 All quantities printed in internal units (Hartrees-Bohrs-Radians)
 Second derivative matrix not updated -- analytic derivatives used.
 The second derivative matrix:
                          R1        R2        R3        R4        R5
           R1           0.36815
           R2           0.00019   0.36895
           R3           0.00033   0.00022   0.36941
           R4           0.00876   0.00858   0.00833   0.25568
           R5          -0.00507  -0.00506  -0.00509   0.01238   1.26770
           A1           0.00086   0.00126  -0.00233  -0.00637  -0.00012
           A2           0.00173  -0.00242   0.00200  -0.01457  -0.00029
           A3           0.00620  -0.00343  -0.00342   0.01257   0.00025
           A4          -0.00248   0.00078   0.00184  -0.01470  -0.00029
           A5          -0.00311   0.00732  -0.00346   0.01332   0.00025
           A6          -0.00322  -0.00343   0.00511   0.01605   0.00032
           A7           0.00157  -0.00078  -0.00022   0.00086   0.00000
           A8           0.00015  -0.00084   0.00034  -0.00021  -0.00003
           D1           0.00054   0.00029   0.00018  -0.03540  -0.00069
           D2          -0.00250  -0.00334   0.00604  -0.00533  -0.00011
           D3           0.00344  -0.00613   0.00312  -0.00277  -0.00005
           D4           0.00593  -0.00279  -0.00292   0.00256   0.00006
                          A1        A2        A3        A4        A5
           A1           0.01968
           A2          -0.00921   0.03261
           A3          -0.01570  -0.02371   0.11263
           A4          -0.00924  -0.00322   0.02937   0.03299
           A5          -0.01558   0.02929  -0.05478  -0.02433   0.11365
           A6           0.02984  -0.02933  -0.04603  -0.02919  -0.04638
           A7           0.00241   0.00291  -0.01751  -0.00609   0.00941
           A8          -0.00237   0.00279  -0.00001   0.00035   0.00736
           D1           0.01113   0.01352  -0.01706   0.01380  -0.01752
           D2          -0.00732   0.00784  -0.01019   0.00816  -0.01088
           D3          -0.00366   0.01157   0.00519  -0.00363  -0.01569
           D4           0.00366   0.00373   0.01539  -0.01178  -0.00481
                          A6        A7        A8        D1        D2
           A6           0.12618
           A7           0.00900   0.07417
           A8          -0.00826   0.00034   0.01974
           D1          -0.01067   0.00054  -0.00051   0.04037
           D2           0.01087   0.00118  -0.00087   0.00410   0.01869
           D3           0.00546  -0.00079  -0.00083   0.00200   0.00933
           D4          -0.00540  -0.00197   0.00004  -0.00211  -0.00936
                          D3        D4
           D3           0.01847
           D4           0.00914   0.01849
 ITU=  0
     Eigenvalues ---    0.01891   0.03809   0.04311   0.06505   0.06982
     Eigenvalues ---    0.18691   0.19157   0.26616   0.36887   0.36974
     Eigenvalues ---    0.37137   1.26794
 Angle between quadratic step and forces=  51.37 degrees.
 Linear search not attempted -- first point.
 Iteration  1 RMS(Cart)=  0.00258520 RMS(Int)=  0.00001691
 Iteration  2 RMS(Cart)=  0.00001286 RMS(Int)=  0.00000080
 Iteration  3 RMS(Cart)=  0.00000000 RMS(Int)=  0.00000080
 Variable       Old X    -DE/DX   Delta X   Delta X   Delta X     New X
                                 (Linear)    (Quad)   (Total)
    R1        2.05669   0.00006   0.00000   0.00023   0.00023   2.05692
    R2        2.05621   0.00017   0.00000   0.00048   0.00048   2.05670
    R3        2.05698  -0.00031   0.00000  -0.00095  -0.00095   2.05604
    R4        2.73311   0.00008   0.00000   0.00046   0.00046   2.73357
    R5        2.10949   0.00004   0.00000   0.00003   0.00003   2.10952
    A1        1.97134   0.00007   0.00000   0.00011   0.00010   1.97144
    A2        1.97117  -0.00002   0.00000   0.00017   0.00017   1.97135
    A3        1.84572  -0.00023   0.00000  -0.00194  -0.00194   1.84378
    A4        1.97144  -0.00005   0.00000   0.00021   0.00021   1.97165
    A5        1.84518  -0.00008   0.00000  -0.00084  -0.00084   1.84434
    A6        1.84456   0.00032   0.00000   0.00221   0.00221   1.84677
    A7        3.14297  -0.00023   0.00000  -0.00375  -0.00375   3.13922
    A8        3.14065   0.00013   0.00000   0.00780   0.00780   3.14845
    D1        2.26409   0.00004   0.00000   0.00049   0.00049   2.26459
    D2       -2.09471   0.00007   0.00000   0.00123   0.00123  -2.09348
    D3        2.09422   0.00002   0.00000   0.00033   0.00033   2.09455
    D4       -2.09426  -0.00005   0.00000  -0.00091  -0.00091  -2.09516
         Item               Value     Threshold  Converged?
 Maximum Force            0.000315     0.000450     YES
 RMS     Force            0.000150     0.000300     YES
 Maximum Displacement     0.004511     0.001800     NO 
 RMS     Displacement     0.002589     0.001200     NO 
 Predicted change in Energy=-1.812056D-06
 GradGradGradGradGradGradGradGradGradGradGradGradGradGradGradGradGradGrad

 1\1\GINC-TC-NODE161\Freq\RMP2-Full\6-311G(d,p)\C1H3N2(1+)\MAXB2\25-Oct
 -2016\0\\#N Geom=AllCheck Guess=TCheck SCRF=Check GenChk RMP2-Full/6-3
 11G(d,p) Freq\\Title Card Required\\1,1\C,0.0121999492,0.020700424,0.0
 087059225\H,-0.0231317852,-0.0401535974,1.0947805658\H,1.0239255323,-0
 .0409310738,-0.3869946519\H,-0.5477692574,0.865959451,-0.3873042762\N,
 -0.6696447686,-1.1602900973,-0.4731004411\N,-1.1961220496,-2.071093867
 9,-0.8464178722\\Version=ES64L-G09RevD.01\State=1-A\HF=-148.3614496\MP
 2=-148.9007876\RMSD=3.124e-10\RMSF=1.812e-04\ZeroPoint=0.0456676\Therm
 al=0.0493919\Dipole=0.4660672,0.8076728,0.3301268\DipoleDeriv=0.110886
 8,0.0919395,0.0399579,0.0936464,0.216431,0.0647828,0.0381708,0.0658736
 ,0.082399,0.1649257,-0.0633775,0.0187191,-0.0629269,0.0926216,0.034124
 7,0.027934,0.0485822,0.2207321,0.228947,0.0239617,0.0051827,0.0094899,
 0.091372,-0.0714818,-0.0017882,-0.0757634,0.1550352,0.1081899,-0.05554
 87,-0.0656277,-0.0435041,0.2082962,-0.0305545,-0.0656925,-0.0401029,0.
 1548888,0.2448221,-0.0214429,-0.0085138,-0.0213805,0.2210179,-0.014662
 2,-0.0088103,-0.0160638,0.2515624,0.1422285,0.0244679,0.0102817,0.0246
 752,0.1702613,0.017791,0.0101863,0.0174743,0.1353825\Polar=22.0131197,
 6.6076034,29.6387019,2.7069024,4.6811792,20.1130775\PG=C01 [X(C1H3N2)]
 \NImag=0\\0.56771715,-0.10089733,0.44899990,-0.04195927,-0.07405480,0.
 59697396,-0.04552802,-0.00267929,0.01781833,0.04627409,-0.00268762,-0.
 04773252,0.03288524,0.00778914,0.05383699,0.01129473,0.02132400,-0.347
 28104,-0.00785455,-0.01589783,0.36704305,-0.30427048,0.01796306,0.1038
 3363,0.00411383,0.00148883,-0.00171116,0.32623420,0.02893951,-0.048949
 34,-0.01274686,-0.00034965,0.00015423,0.00171061,-0.01110823,0.0553724
 6,0.11071906,-0.00868653,-0.08924704,0.02782503,-0.00093047,-0.0051195
 9,-0.10843530,0.01168274,0.08759425,-0.13428529,0.12841579,-0.06356384
 ,0.00062896,-0.00232219,0.00234864,-0.00836247,0.02148887,-0.01156095,
 0.13359065,0.11758090,-0.21900604,0.08350057,-0.00050689,0.00359502,-0
 .00060946,-0.00075151,0.00358585,-0.00024925,-0.12415910,0.24728720,-0
 .06364074,0.09117023,-0.08928822,-0.01473023,0.02361435,-0.00513612,0.
 00551733,-0.01008292,0.00387955,0.06511893,-0.08815781,0.08791018,-0.0
 9531791,-0.02962852,-0.01072973,-0.00571258,-0.00276279,-0.00649976,-0
 .02038306,-0.04187448,-0.01975571,0.01164651,0.00779703,0.01078553,0.4
 1669313,-0.02978158,-0.12974817,-0.02023380,-0.00274549,-0.00834420,-0
 .01071350,-0.01102360,-0.00864594,0.00100235,-0.02288990,-0.03984750,-
 0.01616393,0.53581086,1.03417512,-0.01105371,-0.02048043,-0.08664653,-
 0.02514462,-0.04327938,-0.01089324,-0.00075632,0.01206362,0.00395292,0
 .01070919,0.00548601,0.00370009,0.21861121,0.37897632,0.26191956,0.011
 68456,-0.01317371,-0.00539912,0.00022372,-0.00150537,0.00242209,0.0026
 6799,0.00290399,0.00120788,-0.00321836,0.00003956,-0.00305082,-0.30692
 608,-0.46937028,-0.19236575,0.29556818,-0.01315389,-0.00356383,-0.0093
 5035,-0.00150781,-0.00150952,0.00418618,0.00343145,-0.00151725,-0.0028
 1884,-0.00053347,0.00438546,-0.00037991,-0.46934210,-0.84758931,-0.332
 76614,0.48110582,0.84979445,-0.00536007,-0.00927247,0.01548887,0.00208
 604,0.00360810,0.00138694,0.00155181,-0.00262718,-0.00106009,-0.003051
 97,0.00002994,-0.00106550,-0.19241154,-0.33286744,-0.17203279,0.197185
 73,0.34112905,0.15728257\\0.00029697,-0.00041477,0.00016491,0.00014488
 ,0.00012923,-0.00006480,-0.00018809,0.00016251,-0.00000478,-0.00037183
 ,0.00012062,-0.00015246,0.00010153,-0.00005212,0.00008307,0.00001653,0
 .00005452,-0.00002594\\\@


 THE SECRET OF SUCCESS IN LIFE IS TO EAT WHAT YOU LIKE, AND LET THE FOOD
 FIGHT IT OUT INSIDE YOU. -- FROM A FORTUNE COOKIE
 Job cpu time:       0 days  0 hours  2 minutes 24.1 seconds.
 File lengths (MBytes):  RWF=    196 Int=      0 D2E=      0 Chk=      4 Scr=      1
 Normal termination of Gaussian 09 at Tue Oct 25 12:13:41 2016.
