 Entering Gaussian System, Link 0=g09
 Initial command:
 /cluster/software/gaussian/gaussian-09-D.01/g09/l1.exe "/local/scratch/maxb2/Gau-29283.inp" -scrdir="/local/scratch/maxb2/"
 Entering Link 1 = /cluster/software/gaussian/gaussian-09-D.01/g09/l1.exe PID=     29284.
  
 Copyright (c) 1988,1990,1992,1993,1995,1998,2003,2009,2013,
            Gaussian, Inc.  All Rights Reserved.
  
 This is part of the Gaussian(R) 09 program.  It is based on
 the Gaussian(R) 03 system (copyright 2003, Gaussian, Inc.),
 the Gaussian(R) 98 system (copyright 1998, Gaussian, Inc.),
 the Gaussian(R) 94 system (copyright 1995, Gaussian, Inc.),
 the Gaussian 92(TM) system (copyright 1992, Gaussian, Inc.),
 the Gaussian 90(TM) system (copyright 1990, Gaussian, Inc.),
 the Gaussian 88(TM) system (copyright 1988, Gaussian, Inc.),
 the Gaussian 86(TM) system (copyright 1986, Carnegie Mellon
 University), and the Gaussian 82(TM) system (copyright 1983,
 Carnegie Mellon University). Gaussian is a federally registered
 trademark of Gaussian, Inc.
  
 This software contains proprietary and confidential information,
 including trade secrets, belonging to Gaussian, Inc.
  
 This software is provided under written license and may be
 used, copied, transmitted, or stored only in accord with that
 written license.
  
 The following legend is applicable only to US Government
 contracts under FAR:
  
                    RESTRICTED RIGHTS LEGEND
  
 Use, reproduction and disclosure by the US Government is
 subject to restrictions as set forth in subparagraphs (a)
 and (c) of the Commercial Computer Software - Restricted
 Rights clause in FAR 52.227-19.
  
 Gaussian, Inc.
 340 Quinnipiac St., Bldg. 40, Wallingford CT 06492
  
  
 ---------------------------------------------------------------
 Warning -- This program may not be used in any manner that
 competes with the business of Gaussian, Inc. or will provide
 assistance to any competitor of Gaussian, Inc.  The licensee
 of this program is prohibited from giving any competitor of
 Gaussian, Inc. access to this program.  By using this program,
 the user acknowledges that Gaussian, Inc. is engaged in the
 business of creating and licensing software in the field of
 computational chemistry and represents and warrants to the
 licensee that it is not a competitor of Gaussian, Inc. and that
 it will not use this program in any manner prohibited above.
 ---------------------------------------------------------------
  

 Cite this work as:
 Gaussian 09, Revision D.01,
 M. J. Frisch, G. W. Trucks, H. B. Schlegel, G. E. Scuseria, 
 M. A. Robb, J. R. Cheeseman, G. Scalmani, V. Barone, B. Mennucci, 
 G. A. Petersson, H. Nakatsuji, M. Caricato, X. Li, H. P. Hratchian, 
 A. F. Izmaylov, J. Bloino, G. Zheng, J. L. Sonnenberg, M. Hada, 
 M. Ehara, K. Toyota, R. Fukuda, J. Hasegawa, M. Ishida, T. Nakajima, 
 Y. Honda, O. Kitao, H. Nakai, T. Vreven, J. A. Montgomery, Jr., 
 J. E. Peralta, F. Ogliaro, M. Bearpark, J. J. Heyd, E. Brothers, 
 K. N. Kudin, V. N. Staroverov, T. Keith, R. Kobayashi, J. Normand, 
 K. Raghavachari, A. Rendell, J. C. Burant, S. S. Iyengar, J. Tomasi, 
 M. Cossi, N. Rega, J. M. Millam, M. Klene, J. E. Knox, J. B. Cross, 
 V. Bakken, C. Adamo, J. Jaramillo, R. Gomperts, R. E. Stratmann, 
 O. Yazyev, A. J. Austin, R. Cammi, C. Pomelli, J. W. Ochterski, 
 R. L. Martin, K. Morokuma, V. G. Zakrzewski, G. A. Voth, 
 P. Salvador, J. J. Dannenberg, S. Dapprich, A. D. Daniels, 
 O. Farkas, J. B. Foresman, J. V. Ortiz, J. Cioslowski, 
 and D. J. Fox, Gaussian, Inc., Wallingford CT, 2013.
 
 ******************************************
 Gaussian 09:  ES64L-G09RevD.01 24-Apr-2013
                21-Oct-2016 
 ******************************************
 %nprocshared=8
 Will use up to    8 processors via shared memory.
 %mem=4gb
 %chk=H3CN2opt
 -----------------------------------------
 # opt freq uhf/6-311g** geom=connectivity
 -----------------------------------------
 1/18=20,19=15,38=1,57=2/1,3;
 2/9=110,12=2,17=6,18=5,40=1/2;
 3/5=4,6=6,7=101,11=2,16=1,25=1,30=1,71=1,116=2/1,2,3;
 4//1;
 5/5=2,38=5/2;
 6/7=2,8=2,9=2,10=2,28=1/1;
 7//1,2,3,16;
 1/18=20,19=15/3(2);
 2/9=110/2;
 99//99;
 2/9=110/2;
 3/5=4,6=6,7=101,11=2,16=1,25=1,30=1,71=1,116=2/1,2,3;
 4/5=5,16=3,69=1/1;
 5/5=2,38=5/2;
 7//1,2,3,16;
 1/18=20,19=15/3(-5);
 2/9=110/2;
 6/7=2,8=2,9=2,10=2,19=2,28=1/1;
 99/9=1/99;
 -------------------
 Title Card Required
 -------------------
 Symbolic Z-matrix:
 Charge =  1 Multiplicity = 3
 C
 H                    1    B1
 H                    1    B2       2    A1
 H                    1    B3       3    A2       2    D1       0
 N                    1    B4       4    A3       3    D2       0
 N                    5    B5       1    A4       4    D3       0
       Variables:
  B1                    1.07                     
  B2                    1.07                     
  B3                    1.07                     
  B4                    1.47                     
  B5                    1.1023                   
  A1                  109.4712                   
  A2                  109.47122                  
  A3                  109.47122                  
  A4                  169.64548                  
  D1                  120.                       
  D2                 -120.00003                  
  D3                   81.47176                  
 
     3 tetrahedral angles replaced.

 GradGradGradGradGradGradGradGradGradGradGradGradGradGradGradGradGradGrad
 Berny optimization.
 Initialization pass.
                           ----------------------------
                           !    Initial Parameters    !
                           ! (Angstroms and Degrees)  !
 --------------------------                            --------------------------
 ! Name  Definition              Value          Derivative Info.                !
 --------------------------------------------------------------------------------
 ! R1    R(1,2)                  1.07           estimate D2E/DX2                !
 ! R2    R(1,3)                  1.07           estimate D2E/DX2                !
 ! R3    R(1,4)                  1.07           estimate D2E/DX2                !
 ! R4    R(1,5)                  1.47           estimate D2E/DX2                !
 ! R5    R(5,6)                  1.1023         estimate D2E/DX2                !
 ! A1    A(2,1,3)              109.4712         estimate D2E/DX2                !
 ! A2    A(2,1,4)              109.4712         estimate D2E/DX2                !
 ! A3    A(2,1,5)              109.4712         estimate D2E/DX2                !
 ! A4    A(3,1,4)              109.4712         estimate D2E/DX2                !
 ! A5    A(3,1,5)              109.4712         estimate D2E/DX2                !
 ! A6    A(4,1,5)              109.4712         estimate D2E/DX2                !
 ! A7    L(1,5,6,3,-1)         171.3907         estimate D2E/DX2                !
 ! A8    L(1,5,6,3,-2)         190.593          estimate D2E/DX2                !
 ! D1    D(2,1,4,3)            120.0            estimate D2E/DX2                !
 ! D2    D(2,1,5,3)           -120.0            estimate D2E/DX2                !
 ! D3    D(2,1,5,4)            120.0            estimate D2E/DX2                !
 ! D4    D(3,1,5,4)           -120.0            estimate D2E/DX2                !
 --------------------------------------------------------------------------------
 Trust Radius=3.00D-01 FncErr=1.00D-07 GrdErr=1.00D-07
 Number of steps in this run=     27 maximum allowed number of steps=    100.
 GradGradGradGradGradGradGradGradGradGradGradGradGradGradGradGradGradGrad

                          Input orientation:                          
 ---------------------------------------------------------------------
 Center     Atomic      Atomic             Coordinates (Angstroms)
 Number     Number       Type             X           Y           Z
 ---------------------------------------------------------------------
      1          6           0        0.000000    0.000000    0.000000
      2          1           0        0.000000    0.000000    1.070000
      3          1           0        1.008806    0.000000   -0.356667
      4          1           0       -0.504403    0.873651   -0.356667
      5          7           0       -0.692965   -1.200250   -0.489999
      6          7           0       -1.110596   -2.068652   -1.025278
 ---------------------------------------------------------------------
                    Distance matrix (angstroms):
                    1          2          3          4          5
     1  C    0.000000
     2  H    1.070000   0.000000
     3  H    1.070000   1.747303   0.000000
     4  H    1.070000   1.747303   1.747303   0.000000
     5  N    1.470000   2.086720   2.086720   2.086720   0.000000
     6  N    2.562018   3.146893   3.036153   3.077606   1.102298
                    6
     6  N    0.000000
 Stoichiometry    CH3N2(1+,3)
 Framework group  C1[X(CH3N2)]
 Deg. of freedom    12
 Full point group                 C1      NOp   1
 Largest Abelian subgroup         C1      NOp   1
 Largest concise Abelian subgroup C1      NOp   1
                         Standard orientation:                         
 ---------------------------------------------------------------------
 Center     Atomic      Atomic             Coordinates (Angstroms)
 Number     Number       Type             X           Y           Z
 ---------------------------------------------------------------------
      1          6           0       -1.179635   -0.020940    0.000000
      2          1           0       -1.600069    0.891079   -0.369266
      3          1           0       -1.481140   -0.832806   -0.628386
      4          1           0       -1.525160   -0.194735    0.997651
      5          7           0        0.286879    0.080234    0.000000
      6          7           0        1.382290   -0.042791    0.000000
 ---------------------------------------------------------------------
 Rotational constants (GHZ):    158.1156261      9.5725329      9.5509497
 Standard basis: 6-311G(d,p) (5D, 7F)
 There are    75 symmetry adapted cartesian basis functions of A   symmetry.
 There are    72 symmetry adapted basis functions of A   symmetry.
    72 basis functions,   120 primitive gaussians,    75 cartesian basis functions
    12 alpha electrons       10 beta electrons
       nuclear repulsion energy        66.0544472388 Hartrees.
 NAtoms=    6 NActive=    6 NUniq=    6 SFac= 1.00D+00 NAtFMM=   60 NAOKFM=F Big=F
 Integral buffers will be    131072 words long.
 Raffenetti 2 integral format.
 Two-electron integral symmetry is turned on.
 One-electron integrals computed using PRISM.
 NBasis=    72 RedAO= T EigKep=  2.00D-03  NBF=    72
 NBsUse=    72 1.00D-06 EigRej= -1.00D+00 NBFU=    72
 ExpMin= 1.03D-01 ExpMax= 6.29D+03 ExpMxC= 9.49D+02 IAcc=1 IRadAn=         1 AccDes= 0.00D+00
 Harris functional with IExCor=  205 and IRadAn=       1 diagonalized for initial guess.
 HarFok:  IExCor=  205 AccDes= 0.00D+00 IRadAn=         1 IDoV= 1 UseB2=F ITyADJ=14
 ICtDFT=  3500011 ScaDFX=  1.000000  1.000000  1.000000  1.000000
 FoFCou: FMM=F IPFlag=           0 FMFlag=      100000 FMFlg1=           0
         NFxFlg=           0 DoJE=T BraDBF=F KetDBF=T FulRan=T
         wScrn=  0.000000 ICntrl=     500 IOpCl=  0 I1Cent=   200000004 NGrid=           0
         NMat0=    1 NMatS0=      1 NMatT0=    0 NMatD0=    1 NMtDS0=    0 NMtDT0=    0
 Petite list used in FoFCou.
 Initial guess <Sx>= 0.0000 <Sy>= 0.0000 <Sz>= 1.0000 <S**2>= 2.0000 S= 1.0000
 Keep R1 and R2 ints in memory in canonical form, NReq=7793913.
 Requested convergence on RMS density matrix=1.00D-08 within 128 cycles.
 Requested convergence on MAX density matrix=1.00D-06.
 Requested convergence on             energy=1.00D-06.
 No special actions if energy rises.
 SCF Done:  E(UHF) =  -148.025737834     A.U. after   31 cycles
            NFock= 31  Conv=0.28D-08     -V/T= 1.9949
 <Sx>= 0.0000 <Sy>= 0.0000 <Sz>= 1.0000 <S**2>= 2.0178 S= 1.0059
 <L.S>= 0.000000000000E+00
 Annihilation of the first spin contaminant:
 S**2 before annihilation     2.0178,   after     2.0002

 **********************************************************************

            Population analysis using the SCF density.

 **********************************************************************

 Orbital symmetries:
 Alpha Orbitals:
       Occupied  (A) (A) (A) (A) (A) (A) (A) (A) (A) (A) (A) (A)
       Virtual   (A) (A) (A) (A) (A) (A) (A) (A) (A) (A) (A) (A)
                 (A) (A) (A) (A) (A) (A) (A) (A) (A) (A) (A) (A)
                 (A) (A) (A) (A) (A) (A) (A) (A) (A) (A) (A) (A)
                 (A) (A) (A) (A) (A) (A) (A) (A) (A) (A) (A) (A)
                 (A) (A) (A) (A) (A) (A) (A) (A) (A) (A) (A) (A)
 Beta  Orbitals:
       Occupied  (A) (A) (A) (A) (A) (A) (A) (A) (A) (A)
       Virtual   (A) (A) (A) (A) (A) (A) (A) (A) (A) (A) (A) (A)
                 (A) (A) (A) (A) (A) (A) (A) (A) (A) (A) (A) (A)
                 (A) (A) (A) (A) (A) (A) (A) (A) (A) (A) (A) (A)
                 (A) (A) (A) (A) (A) (A) (A) (A) (A) (A) (A) (A)
                 (A) (A) (A) (A) (A) (A) (A) (A) (A) (A) (A) (A)
                 (A) (A)
 The electronic state is 3-A.
 Alpha  occ. eigenvalues --  -16.02620 -15.98591 -11.56095  -1.86401  -1.38895
 Alpha  occ. eigenvalues --   -1.13629  -1.09857  -0.98088  -0.96854  -0.87664
 Alpha  occ. eigenvalues --   -0.83692  -0.67003
 Alpha virt. eigenvalues --   -0.14606  -0.05032   0.01637   0.02441   0.02716
 Alpha virt. eigenvalues --    0.18677   0.20661   0.21456   0.37752   0.43473
 Alpha virt. eigenvalues --    0.46261   0.47687   0.52821   0.53364   0.58503
 Alpha virt. eigenvalues --    0.61443   0.64740   0.65545   0.81692   0.96157
 Alpha virt. eigenvalues --    1.06209   1.12597   1.20469   1.43502   1.43838
 Alpha virt. eigenvalues --    1.45536   1.54916   1.55428   1.59313   1.60103
 Alpha virt. eigenvalues --    1.61119   1.87196   1.90262   2.02693   2.07900
 Alpha virt. eigenvalues --    2.12174   2.19582   2.24775   2.36479   2.45985
 Alpha virt. eigenvalues --    2.46301   2.59450   2.61273   2.63176   2.84328
 Alpha virt. eigenvalues --    3.01454   3.06838   3.21897   3.64497   3.70611
 Alpha virt. eigenvalues --    3.95071   3.96533   3.97388   4.01768   4.07450
 Alpha virt. eigenvalues --    4.46565   4.89165  24.78758  36.11970  37.38784
  Beta  occ. eigenvalues --  -15.98782 -15.95249 -11.56282  -1.72178  -1.34768
  Beta  occ. eigenvalues --   -1.03133  -0.94626  -0.90494  -0.86244  -0.82448
  Beta virt. eigenvalues --   -0.35884  -0.11277  -0.05009  -0.00886   0.02792
  Beta virt. eigenvalues --    0.03512   0.05209   0.20637   0.21988   0.23629
  Beta virt. eigenvalues --    0.40034   0.47674   0.48749   0.53141   0.53314
  Beta virt. eigenvalues --    0.54764   0.62894   0.65932   0.67193   0.72431
  Beta virt. eigenvalues --    0.85653   0.98881   1.06451   1.16746   1.22155
  Beta virt. eigenvalues --    1.44181   1.45166   1.46122   1.56547   1.59622
  Beta virt. eigenvalues --    1.61372   1.70927   1.71221   1.91320   1.93438
  Beta virt. eigenvalues --    2.03379   2.15813   2.21561   2.22630   2.28536
  Beta virt. eigenvalues --    2.37759   2.46997   2.47129   2.60865   2.62442
  Beta virt. eigenvalues --    2.64965   2.84798   3.07914   3.09944   3.23720
  Beta virt. eigenvalues --    3.72287   3.75777   3.96537   3.98309   3.99583
  Beta virt. eigenvalues --    4.09481   4.13717   4.49014   4.91791  24.78625
  Beta virt. eigenvalues --   36.14280  37.40933
          Condensed to atoms (all electrons):
               1          2          3          4          5          6
     1  C    4.725911   0.395964   0.401765   0.405623   0.114225  -0.014776
     2  H    0.395964   0.413596  -0.013807  -0.010426  -0.013192   0.001914
     3  H    0.401765  -0.013807   0.416818  -0.009722  -0.021093   0.001011
     4  H    0.405623  -0.010426  -0.009722   0.401730  -0.014090  -0.000035
     5  N    0.114225  -0.013192  -0.021093  -0.014090   6.688217   0.039725
     6  N   -0.014776   0.001914   0.001011  -0.000035   0.039725   6.827558
          Atomic-Atomic Spin Densities.
               1          2          3          4          5          6
     1  C   -0.079596   0.019239   0.015942   0.002018  -0.071883   0.001384
     2  H    0.019239   0.054388  -0.007160  -0.001353  -0.010476   0.000641
     3  H    0.015942  -0.007160   0.063566   0.000508  -0.012955   0.001613
     4  H    0.002018  -0.001353   0.000508   0.003521  -0.001144   0.000112
     5  N   -0.071883  -0.010476  -0.012955  -0.001144   1.468216  -0.354171
     6  N    0.001384   0.000641   0.001613   0.000112  -0.354171   1.325275
 Mulliken charges and spin densities:
               1          2
     1  C   -0.028712  -0.112896
     2  H    0.225951   0.055279
     3  H    0.225029   0.061515
     4  H    0.226920   0.003661
     5  N    0.206208   1.017586
     6  N    0.144604   0.974854
 Sum of Mulliken charges =   1.00000   2.00000
 Mulliken charges and spin densities with hydrogens summed into heavy atoms:
               1          2
     1  C    0.649188   0.007560
     5  N    0.206208   1.017586
     6  N    0.144604   0.974854
 Electronic spatial extent (au):  <R**2>=            144.8354
 Charge=              1.0000 electrons
 Dipole moment (field-independent basis, Debye):
    X=             -2.2301    Y=              0.1250    Z=              0.0062  Tot=              2.2336
 Quadrupole moment (field-independent basis, Debye-Ang):
   XX=             -9.9191   YY=            -14.2791   ZZ=            -14.5395
   XY=              0.3367   XZ=              0.0157   YZ=              0.0151
 Traceless Quadrupole moment (field-independent basis, Debye-Ang):
   XX=              2.9935   YY=             -1.3665   ZZ=             -1.6270
   XY=              0.3367   XZ=              0.0157   YZ=              0.0151
 Octapole moment (field-independent basis, Debye-Ang**2):
  XXX=             -9.7932  YYY=              0.5457  ZZZ=              1.0366  XYY=             -1.3610
  XXY=              0.7162  XXZ=              0.0551  XZZ=             -1.1755  YZZ=             -0.4946
  YYZ=             -0.9839  XYZ=              0.0859
 Hexadecapole moment (field-independent basis, Debye-Ang**3):
 XXXX=           -125.9718 YYYY=            -16.6817 ZZZZ=            -16.8062 XXXY=              0.5178
 XXXZ=              0.0090 YYYX=             -0.2768 YYYZ=              0.1669 ZZZX=             -1.7169
 ZZZY=             -0.0566 XXYY=            -22.3606 XXZZ=            -22.0420 YYZZ=             -5.5118
 XXYZ=             -0.3180 YYXZ=              1.6787 ZZXY=              0.9160
 N-N= 6.605444723877D+01 E-N=-4.724070513226D+02  KE= 1.487826098447D+02
                          Isotropic Fermi Contact Couplings
        Atom                 a.u.       MegaHertz       Gauss      10(-4) cm-1
     1  C(13)             -0.03282     -18.44730      -6.58245      -6.15336
     2  H(1)               0.02871      64.16668      22.89627      21.40370
     3  H(1)               0.03030      67.71632      24.16287      22.58773
     4  H(1)               0.00096       2.14356       0.76487       0.71501
     5  N(14)              0.26331      42.53792      15.17859      14.18912
     6  N(14)              0.11163      18.03416       6.43504       6.01555
 --------------------------------------------------------
       Center         ----  Spin Dipole Couplings  ----
                      3XX-RR        3YY-RR        3ZZ-RR
 --------------------------------------------------------
     1   Atom       -0.001791      0.039867     -0.038076
     2   Atom        0.026921     -0.012968     -0.013953
     3   Atom        0.019663     -0.012167     -0.007496
     4   Atom        0.021889     -0.013052     -0.008837
     5   Atom       -1.248666      2.530761     -1.282096
     6   Atom       -1.258990      2.737940     -1.478951
 --------------------------------------------------------
                        XY            XZ            YZ
 --------------------------------------------------------
     1   Atom        0.017528      0.000514      0.003858
     2   Atom       -0.016498      0.009630     -0.005324
     3   Atom        0.013434      0.009852      0.007638
     4   Atom        0.005717     -0.018580     -0.000495
     5   Atom        0.040790      0.007435      0.357145
     6   Atom        0.474119      0.048412      0.393614
 --------------------------------------------------------


 ---------------------------------------------------------------------------------
              Anisotropic Spin Dipole Couplings in Principal Axis System
 ---------------------------------------------------------------------------------

       Atom             a.u.   MegaHertz   Gauss  10(-4) cm-1        Axes

              Baa    -0.0383    -5.135    -1.832    -1.713  0.0108 -0.0517  0.9986
     1 C(13)  Bbb    -0.0082    -1.095    -0.391    -0.365  0.9398 -0.3407 -0.0278
              Bcc     0.0464     6.231     2.223     2.078  0.3417  0.9387  0.0449
 
              Baa    -0.0198   -10.545    -3.763    -3.517  0.2178  0.8721  0.4381
     2 H(1)   Bbb    -0.0155    -8.269    -2.951    -2.758 -0.3360 -0.3545  0.8726
              Bcc     0.0353    18.814     6.713     6.276  0.9163 -0.3373  0.2158
 
              Baa    -0.0189   -10.058    -3.589    -3.355 -0.2010  0.8847 -0.4207
     3 H(1)   Bbb    -0.0097    -5.162    -1.842    -1.722 -0.4265  0.3076  0.8506
              Bcc     0.0285    15.220     5.431     5.077  0.8819  0.3504  0.3155
 
              Baa    -0.0184    -9.823    -3.505    -3.277  0.4309 -0.3843  0.8165
     4 H(1)   Bbb    -0.0129    -6.871    -2.452    -2.292  0.0622  0.9153  0.3980
              Bcc     0.0313    16.695     5.957     5.569  0.9002  0.1207 -0.4183
 
              Baa    -1.3155   -50.734   -18.103   -16.923 -0.0547 -0.0917  0.9943
     5 N(14)  Bbb    -1.2489   -48.168   -17.187   -16.067  0.9984 -0.0158  0.0534
              Bcc     2.5644    98.902    35.291    32.990  0.0108  0.9957  0.0925
 
              Baa    -1.5155   -58.449   -20.856   -19.496 -0.0222 -0.0897  0.9957
     6 N(14)  Bbb    -1.3144   -50.695   -18.089   -16.910  0.9930 -0.1173  0.0116
              Bcc     2.8299   109.143    38.945    36.406  0.1158  0.9890  0.0916
 

 ---------------------------------------------------------------------------------

 Calling FoFJK, ICntrl=      2127 FMM=F ISym2X=0 I1Cent= 0 IOpClX= 1 NMat=1 NMatS=1 NMatT=0.
 ***** Axes restored to original set *****
 -------------------------------------------------------------------
 Center     Atomic                   Forces (Hartrees/Bohr)
 Number     Number              X              Y              Z
 -------------------------------------------------------------------
      1        6           0.007290959    0.008649765   -0.013616439
      2        1          -0.004034822   -0.011249346    0.011477922
      3        1           0.011485758   -0.006746557   -0.005822903
      4        1          -0.011006861    0.000780255   -0.007404795
      5        7           0.116560498    0.277863621    0.193804067
      6        7          -0.120295532   -0.269297738   -0.178437851
 -------------------------------------------------------------------
 Cartesian Forces:  Max     0.277863621 RMS     0.117417300

 GradGradGradGradGradGradGradGradGradGradGradGradGradGradGradGradGradGrad
 Berny optimization.
 FormGI is forming the generalized inverse of G from B-inverse, IUseBI=4.
 Internal  Forces:  Max     0.344382196 RMS     0.084156524
 Search for a local minimum.
 Step number   1 out of a maximum of   27
 All quantities printed in internal units (Hartrees-Bohrs-Radians)
 Mixed Optimization -- RFO/linear search
 Second derivative matrix not updated -- first step.
 The second derivative matrix:
                          R1        R2        R3        R4        R5
           R1           0.37230
           R2           0.00000   0.37230
           R3           0.00000   0.00000   0.37230
           R4           0.00000   0.00000   0.00000   0.35740
           R5           0.00000   0.00000   0.00000   0.00000   1.74423
           A1           0.00000   0.00000   0.00000   0.00000   0.00000
           A2           0.00000   0.00000   0.00000   0.00000   0.00000
           A3           0.00000   0.00000   0.00000   0.00000   0.00000
           A4           0.00000   0.00000   0.00000   0.00000   0.00000
           A5           0.00000   0.00000   0.00000   0.00000   0.00000
           A6           0.00000   0.00000   0.00000   0.00000   0.00000
           A7           0.00000   0.00000   0.00000   0.00000   0.00000
           A8           0.00000   0.00000   0.00000   0.00000   0.00000
           D1           0.00000   0.00000   0.00000   0.00000   0.00000
           D2           0.00000   0.00000   0.00000   0.00000   0.00000
           D3           0.00000   0.00000   0.00000   0.00000   0.00000
           D4           0.00000   0.00000   0.00000   0.00000   0.00000
                          A1        A2        A3        A4        A5
           A1           0.16000
           A2           0.00000   0.16000
           A3           0.00000   0.00000   0.16000
           A4           0.00000   0.00000   0.00000   0.16000
           A5           0.00000   0.00000   0.00000   0.00000   0.16000
           A6           0.00000   0.00000   0.00000   0.00000   0.00000
           A7           0.00000   0.00000   0.00000   0.00000   0.00000
           A8           0.00000   0.00000   0.00000   0.00000   0.00000
           D1           0.00000   0.00000   0.00000   0.00000   0.00000
           D2           0.00000   0.00000   0.00000   0.00000   0.00000
           D3           0.00000   0.00000   0.00000   0.00000   0.00000
           D4           0.00000   0.00000   0.00000   0.00000   0.00000
                          A6        A7        A8        D1        D2
           A6           0.16000
           A7           0.00000   0.05233
           A8           0.00000   0.00000   0.05233
           D1           0.00000   0.00000   0.00000   0.00499
           D2           0.00000   0.00000   0.00000   0.00000   0.00766
           D3           0.00000   0.00000   0.00000   0.00000   0.00000
           D4           0.00000   0.00000   0.00000   0.00000   0.00000
                          D3        D4
           D3           0.00766
           D4           0.00000   0.00766
 ITU=  0
     Eigenvalues ---    0.05233   0.05233   0.05402   0.06065   0.08802
     Eigenvalues ---    0.16000   0.16000   0.35740   0.37230   0.37230
     Eigenvalues ---    0.37230   1.74423
 RFO step:  Lambda=-7.57508487D-02 EMin= 5.23283454D-02
 Linear search not attempted -- first point.
 Maximum step size (   0.300) exceeded in Quadratic search.
    -- Step size scaled by   0.935
 Iteration  1 RMS(Cart)=  0.06649231 RMS(Int)=  0.00942062
 Iteration  2 RMS(Cart)=  0.01334540 RMS(Int)=  0.00073852
 Iteration  3 RMS(Cart)=  0.00018153 RMS(Int)=  0.00071485
 Iteration  4 RMS(Cart)=  0.00000002 RMS(Int)=  0.00071485
 Variable       Old X    -DE/DX   Delta X   Delta X   Delta X     New X
                                 (Linear)    (Quad)   (Total)
    R1        2.02201   0.01148   0.00000   0.02396   0.02396   2.04597
    R2        2.02201   0.01312   0.00000   0.02740   0.02740   2.04940
    R3        2.02201   0.00829   0.00000   0.01732   0.01732   2.03932
    R4        2.77790  -0.01061   0.00000  -0.02292  -0.02292   2.75498
    R5        2.08304   0.34438   0.00000   0.17701   0.17701   2.26005
    A1        1.91063   0.00168   0.00000   0.01466   0.01298   1.92362
    A2        1.91063   0.00835   0.00000   0.03993   0.03848   1.94912
    A3        1.91063  -0.00873   0.00000  -0.04685  -0.04671   1.86392
    A4        1.91063   0.00613   0.00000   0.03565   0.03497   1.94560
    A5        1.91063  -0.00036   0.00000  -0.01137  -0.01087   1.89976
    A6        1.91063  -0.00706   0.00000  -0.03201  -0.03183   1.87880
    A7        2.99133  -0.02991   0.00000  -0.21842  -0.21842   2.77291
    A8        3.32648   0.00661   0.00000   0.04828   0.04828   3.37475
    D1        2.09440   0.01092   0.00000   0.06423   0.06590   2.16029
    D2       -2.09440   0.00352   0.00000   0.01770   0.01789  -2.07650
    D3        2.09439   0.00056   0.00000   0.00061   0.00103   2.09542
    D4       -2.09440  -0.00296   0.00000  -0.01710  -0.01687  -2.11126
         Item               Value     Threshold  Converged?
 Maximum Force            0.344382     0.000450     NO 
 RMS     Force            0.084157     0.000300     NO 
 Maximum Displacement     0.159018     0.001800     NO 
 RMS     Displacement     0.074178     0.001200     NO 
 Predicted change in Energy=-4.131960D-02
 GradGradGradGradGradGradGradGradGradGradGradGradGradGradGradGradGradGrad

                          Input orientation:                          
 ---------------------------------------------------------------------
 Center     Atomic      Atomic             Coordinates (Angstroms)
 Number     Number       Type             X           Y           Z
 ---------------------------------------------------------------------
      1          6           0       -0.001633    0.016992    0.009198
      2          1           0        0.020037    0.008964    1.091633
      3          1           0        1.005801   -0.052184   -0.386312
      4          1           0       -0.517293    0.884641   -0.372736
      5          7           0       -0.752526   -1.161688   -0.405851
      6          7           0       -1.053545   -2.091975   -1.094543
 ---------------------------------------------------------------------
                    Distance matrix (angstroms):
                    1          2          3          4          5
     1  C    0.000000
     2  H    1.082681   0.000000
     3  H    1.084498   1.777580   0.000000
     4  H    1.079164   1.788829   1.788195   0.000000
     5  N    1.457872   2.051764   2.079205   2.060071   0.000000
     6  N    2.602403   3.216502   2.983830   3.109471   1.195969
                    6
     6  N    0.000000
 Stoichiometry    CH3N2(1+,3)
 Framework group  C1[X(CH3N2)]
 Deg. of freedom    12
 Full point group                 C1      NOp   1
 Largest Abelian subgroup         C1      NOp   1
 Largest concise Abelian subgroup C1      NOp   1
                         Standard orientation:                         
 ---------------------------------------------------------------------
 Center     Atomic      Atomic             Coordinates (Angstroms)
 Number     Number       Type             X           Y           Z
 ---------------------------------------------------------------------
      1          6           0       -1.187194   -0.052703    0.002815
      2          1           0       -1.636373    0.744056   -0.576507
      3          1           0       -1.386486   -1.012133   -0.461849
      4          1           0       -1.518651   -0.034592    1.029656
      5          7           0        0.251510    0.182886   -0.001424
      6          7           0        1.414872   -0.094474    0.000254
 ---------------------------------------------------------------------
 Rotational constants (GHZ):    131.8402395      9.3695176      9.2670808
 Standard basis: 6-311G(d,p) (5D, 7F)
 There are    75 symmetry adapted cartesian basis functions of A   symmetry.
 There are    72 symmetry adapted basis functions of A   symmetry.
    72 basis functions,   120 primitive gaussians,    75 cartesian basis functions
    12 alpha electrons       10 beta electrons
       nuclear repulsion energy        64.1276661949 Hartrees.
 NAtoms=    6 NActive=    6 NUniq=    6 SFac= 1.00D+00 NAtFMM=   60 NAOKFM=F Big=F
 Integral buffers will be    131072 words long.
 Raffenetti 2 integral format.
 Two-electron integral symmetry is turned on.
 One-electron integrals computed using PRISM.
 NBasis=    72 RedAO= T EigKep=  3.60D-03  NBF=    72
 NBsUse=    72 1.00D-06 EigRej= -1.00D+00 NBFU=    72
 Initial guess from the checkpoint file:  "H3CN2opt.chk"
 B after Tr=     0.000000    0.000000    0.000000
         Rot=    0.994795    0.101755    0.000960   -0.005265 Ang=  11.70 deg.
 Initial guess <Sx>= 0.0000 <Sy>= 0.0000 <Sz>= 1.0000 <S**2>= 2.0180 S= 1.0060
 ExpMin= 1.03D-01 ExpMax= 6.29D+03 ExpMxC= 9.49D+02 IAcc=1 IRadAn=         1 AccDes= 0.00D+00
 Harris functional with IExCor=  205 and IRadAn=       1 diagonalized for initial guess.
 HarFok:  IExCor=  205 AccDes= 0.00D+00 IRadAn=         1 IDoV= 1 UseB2=F ITyADJ=14
 ICtDFT=  3500011 ScaDFX=  1.000000  1.000000  1.000000  1.000000
 FoFCou: FMM=F IPFlag=           0 FMFlag=      100000 FMFlg1=           0
         NFxFlg=           0 DoJE=T BraDBF=F KetDBF=T FulRan=T
         wScrn=  0.000000 ICntrl=     500 IOpCl=  0 I1Cent=   200000004 NGrid=           0
         NMat0=    1 NMatS0=      1 NMatT0=    0 NMatD0=    1 NMtDS0=    0 NMtDT0=    0
 Petite list used in FoFCou.
 Keep R1 and R2 ints in memory in canonical form, NReq=7793825.
 Requested convergence on RMS density matrix=1.00D-08 within 128 cycles.
 Requested convergence on MAX density matrix=1.00D-06.
 Requested convergence on             energy=1.00D-06.
 No special actions if energy rises.
 SCF Done:  E(UHF) =  -148.070044755     A.U. after   36 cycles
            NFock= 36  Conv=0.67D-08     -V/T= 1.9987
 <Sx>= 0.0000 <Sy>= 0.0000 <Sz>= 1.0000 <S**2>= 2.0832 S= 1.0275
 <L.S>= 0.000000000000E+00
 Annihilation of the first spin contaminant:
 S**2 before annihilation     2.0832,   after     2.0018
 Calling FoFJK, ICntrl=      2127 FMM=F ISym2X=0 I1Cent= 0 IOpClX= 1 NMat=1 NMatS=1 NMatT=0.
 ***** Axes restored to original set *****
 -------------------------------------------------------------------
 Center     Atomic                   Forces (Hartrees/Bohr)
 Number     Number              X              Y              Z
 -------------------------------------------------------------------
      1        6           0.011255376    0.005109578   -0.009412592
      2        1          -0.001837830   -0.004472481    0.000821044
      3        1           0.002263802   -0.002622678   -0.002090816
      4        1          -0.003071779   -0.000824632   -0.001731180
      5        7          -0.003552301    0.057523031    0.065107659
      6        7          -0.005057268   -0.054712818   -0.052694115
 -------------------------------------------------------------------
 Cartesian Forces:  Max     0.065107659 RMS     0.027539057

 GradGradGradGradGradGradGradGradGradGradGradGradGradGradGradGradGradGrad
 Berny optimization.
 Using GEDIIS/GDIIS optimizer.
 FormGI is forming the generalized inverse of G from B-inverse, IUseBI=4.
 Internal  Forces:  Max     0.074174949 RMS     0.020366058
 Search for a local minimum.
 Step number   2 out of a maximum of   27
 All quantities printed in internal units (Hartrees-Bohrs-Radians)
 Mixed Optimization -- RFO/linear search
 Update second derivatives using D2CorX and points    1    2
 DE= -4.43D-02 DEPred=-4.13D-02 R= 1.07D+00
 TightC=F SS=  1.41D+00  RLast= 3.08D-01 DXNew= 5.0454D-01 9.2300D-01
 Trust test= 1.07D+00 RLast= 3.08D-01 DXMaxT set to 5.05D-01
 The second derivative matrix:
                          R1        R2        R3        R4        R5
           R1           0.37331
           R2           0.00061   0.37250
           R3           0.00055   0.00027   0.37258
           R4          -0.00075  -0.00040  -0.00039   0.35794
           R5           0.01313   0.00123   0.00485  -0.00749   1.64532
           A1          -0.00010  -0.00017  -0.00009   0.00011  -0.00554
           A2           0.00032   0.00007   0.00013  -0.00020  -0.00057
           A3           0.00005   0.00031   0.00012  -0.00013   0.01170
           A4           0.00005  -0.00015  -0.00004   0.00003  -0.00667
           A5           0.00034   0.00037   0.00024  -0.00031   0.01108
           A6          -0.00049  -0.00027  -0.00025   0.00035  -0.00520
           A7           0.00352   0.00361   0.00240  -0.00309   0.10508
           A8          -0.00021  -0.00028  -0.00017   0.00021  -0.00894
           D1           0.00137   0.00124   0.00088  -0.00115   0.03419
           D2           0.00039   0.00035   0.00025  -0.00033   0.00965
           D3           0.00004   0.00004   0.00003  -0.00003   0.00103
           D4          -0.00035  -0.00031  -0.00022   0.00029  -0.00862
                          A1        A2        A3        A4        A5
           A1           0.15995
           A2          -0.00011   0.16002
           A3           0.00017   0.00021   0.15955
           A4          -0.00012  -0.00011   0.00030   0.15981
           A5           0.00007   0.00022  -0.00026   0.00019   0.15995
           A6           0.00007  -0.00013  -0.00007   0.00001  -0.00019
           A7           0.00056   0.00214  -0.00227   0.00176  -0.00028
           A8          -0.00007  -0.00017   0.00024  -0.00018   0.00008
           D1           0.00011   0.00072  -0.00061   0.00050   0.00006
           D2           0.00003   0.00020  -0.00017   0.00014   0.00002
           D3           0.00000   0.00002  -0.00002   0.00002   0.00000
           D4          -0.00003  -0.00018   0.00015  -0.00013  -0.00002
                          A6        A7        A8        D1        D2
           A6           0.16023
           A7          -0.00194   0.05147
           A8           0.00013   0.00062   0.05223
           D1          -0.00073   0.00114   0.00009   0.00584
           D2          -0.00021   0.00034   0.00002   0.00025   0.00773
           D3          -0.00002   0.00003   0.00000   0.00003   0.00001
           D4           0.00018  -0.00030  -0.00002  -0.00022  -0.00006
                          D3        D4
           D3           0.00766
           D4          -0.00001   0.00771
 ITU=  1  0
 Use linear search instead of GDIIS.
     Eigenvalues ---    0.04414   0.05236   0.05538   0.06364   0.08450
     Eigenvalues ---    0.15997   0.16039   0.35787   0.37216   0.37230
     Eigenvalues ---    0.37390   1.65271
 RFO step:  Lambda=-8.23549705D-02 EMin= 4.41377932D-02
 Quartic linear search produced a step of  0.95337.
 Maximum step size (   0.505) exceeded in Quadratic search.
    -- Step size scaled by   0.683
 Iteration  1 RMS(Cart)=  0.08064817 RMS(Int)=  0.12327558
 Iteration  2 RMS(Cart)=  0.07681145 RMS(Int)=  0.07481186
 Iteration  3 RMS(Cart)=  0.08032530 RMS(Int)=  0.02698089
 Iteration  4 RMS(Cart)=  0.04689435 RMS(Int)=  0.00379293
 Iteration  5 RMS(Cart)=  0.00169813 RMS(Int)=  0.00324137
 Iteration  6 RMS(Cart)=  0.00000041 RMS(Int)=  0.00324137
 Variable       Old X    -DE/DX   Delta X   Delta X   Delta X     New X
                                 (Linear)    (Quad)   (Total)
    R1        2.04597   0.00082   0.02285  -0.00086   0.02198   2.06795
    R2        2.04940   0.00339   0.02612   0.00514   0.03126   2.08067
    R3        2.03932   0.00142   0.01651   0.00144   0.01795   2.05727
    R4        2.75498  -0.00164  -0.02185  -0.00175  -0.02360   2.73138
    R5        2.26005   0.07417   0.16876  -0.02599   0.14277   2.40282
    A1        1.92362   0.00073   0.01238   0.01727   0.02167   1.94529
    A2        1.94912   0.00271   0.03669   0.03037   0.06011   2.00923
    A3        1.86392  -0.00385  -0.04453  -0.04670  -0.09050   1.77342
    A4        1.94560   0.00210   0.03334   0.03426   0.06393   2.00954
    A5        1.89976  -0.00072  -0.01037  -0.02060  -0.02890   1.87086
    A6        1.87880  -0.00138  -0.03035  -0.02069  -0.04963   1.82917
    A7        2.77291  -0.03800  -0.20824  -0.49071  -0.69895   2.07396
    A8        3.37475   0.00585   0.04603   0.08701   0.13304   3.50779
    D1        2.16029   0.00451   0.06283   0.07039   0.13973   2.30002
    D2       -2.07650   0.00167   0.01706   0.01658   0.03393  -2.04257
    D3        2.09542   0.00037   0.00098  -0.00060   0.00193   2.09735
    D4       -2.11126  -0.00130  -0.01608  -0.01718  -0.03200  -2.14326
         Item               Value     Threshold  Converged?
 Maximum Force            0.074175     0.000450     NO 
 RMS     Force            0.020366     0.000300     NO 
 Maximum Displacement     0.606115     0.001800     NO 
 RMS     Displacement     0.264349     0.001200     NO 
 Predicted change in Energy=-1.852405D-02
 GradGradGradGradGradGradGradGradGradGradGradGradGradGradGradGradGradGrad

                          Input orientation:                          
 ---------------------------------------------------------------------
 Center     Atomic      Atomic             Coordinates (Angstroms)
 Number     Number       Type             X           Y           Z
 ---------------------------------------------------------------------
      1          6           0       -0.038640   -0.003231    0.003505
      2          1           0        0.075853    0.016622    1.091632
      3          1           0        0.903966   -0.276240   -0.495745
      4          1           0       -0.555978    0.854711   -0.422501
      5          7           0       -0.951557   -1.109870   -0.172766
      6          7           0       -0.732802   -1.877243   -1.162737
 ---------------------------------------------------------------------
                    Distance matrix (angstroms):
                    1          2          3          4          5
     1  C    0.000000
     2  H    1.094315   0.000000
     3  H    1.101041   1.814195   0.000000
     4  H    1.088661   1.842336   1.848202   0.000000
     5  N    1.445385   1.980722   2.059665   2.019512   0.000000
     6  N    2.313850   3.053331   2.384764   2.835981   1.271518
                    6
     6  N    0.000000
 Stoichiometry    CH3N2(1+,3)
 Framework group  C1[X(CH3N2)]
 Deg. of freedom    12
 Full point group                 C1      NOp   1
 Largest Abelian subgroup         C1      NOp   1
 Largest concise Abelian subgroup C1      NOp   1
                         Standard orientation:                         
 ---------------------------------------------------------------------
 Center     Atomic      Atomic             Coordinates (Angstroms)
 Number     Number       Type             X           Y           Z
 ---------------------------------------------------------------------
      1          6           0       -1.063151   -0.153646    0.007090
      2          1           0       -1.636563    0.478135   -0.678166
      3          1           0       -0.917854   -1.164842   -0.403596
      4          1           0       -1.384667   -0.118477    1.046596
      5          7           0        0.225489    0.500906   -0.003256
      6          7           0        1.248509   -0.254183    0.002203
 ---------------------------------------------------------------------
 Rotational constants (GHZ):     62.9893289     11.7617526     10.6335717
 Standard basis: 6-311G(d,p) (5D, 7F)
 There are    75 symmetry adapted cartesian basis functions of A   symmetry.
 There are    72 symmetry adapted basis functions of A   symmetry.
    72 basis functions,   120 primitive gaussians,    75 cartesian basis functions
    12 alpha electrons       10 beta electrons
       nuclear repulsion energy        64.5172260705 Hartrees.
 NAtoms=    6 NActive=    6 NUniq=    6 SFac= 1.00D+00 NAtFMM=   60 NAOKFM=F Big=F
 Integral buffers will be    131072 words long.
 Raffenetti 2 integral format.
 Two-electron integral symmetry is turned on.
 One-electron integrals computed using PRISM.
 NBasis=    72 RedAO= T EigKep=  6.11D-03  NBF=    72
 NBsUse=    72 1.00D-06 EigRej= -1.00D+00 NBFU=    72
 Initial guess from the checkpoint file:  "H3CN2opt.chk"
 B after Tr=     0.000000    0.000000    0.000000
         Rot=    0.999308    0.033569    0.002189   -0.015860 Ang=   4.26 deg.
 Initial guess <Sx>= 0.0000 <Sy>= 0.0000 <Sz>= 1.0000 <S**2>= 2.0889 S= 1.0294
 ExpMin= 1.03D-01 ExpMax= 6.29D+03 ExpMxC= 9.49D+02 IAcc=1 IRadAn=         1 AccDes= 0.00D+00
 Harris functional with IExCor=  205 and IRadAn=       1 diagonalized for initial guess.
 HarFok:  IExCor=  205 AccDes= 0.00D+00 IRadAn=         1 IDoV= 1 UseB2=F ITyADJ=14
 ICtDFT=  3500011 ScaDFX=  1.000000  1.000000  1.000000  1.000000
 FoFCou: FMM=F IPFlag=           0 FMFlag=      100000 FMFlg1=           0
         NFxFlg=           0 DoJE=T BraDBF=F KetDBF=T FulRan=T
         wScrn=  0.000000 ICntrl=     500 IOpCl=  0 I1Cent=   200000004 NGrid=           0
         NMat0=    1 NMatS0=      1 NMatT0=    0 NMatD0=    1 NMtDS0=    0 NMtDT0=    0
 Petite list used in FoFCou.
 Keep R1 and R2 ints in memory in canonical form, NReq=7794100.
 Requested convergence on RMS density matrix=1.00D-08 within 128 cycles.
 Requested convergence on MAX density matrix=1.00D-06.
 Requested convergence on             energy=1.00D-06.
 No special actions if energy rises.
 Rare condition: small coef for last iteration:  0.000D+00
 SCF Done:  E(UHF) =  -148.065877027     A.U. after   32 cycles
            NFock= 32  Conv=0.95D-08     -V/T= 2.0010
 <Sx>= 0.0000 <Sy>= 0.0000 <Sz>= 1.0000 <S**2>= 2.0140 S= 1.0047
 <L.S>= 0.000000000000E+00
 Annihilation of the first spin contaminant:
 S**2 before annihilation     2.0140,   after     2.0001
 Calling FoFJK, ICntrl=      2127 FMM=F ISym2X=0 I1Cent= 0 IOpClX= 1 NMat=1 NMatS=1 NMatT=0.
 ***** Axes restored to original set *****
 -------------------------------------------------------------------
 Center     Atomic                   Forces (Hartrees/Bohr)
 Number     Number              X              Y              Z
 -------------------------------------------------------------------
      1        6          -0.020468847    0.011849837    0.039277379
      2        1           0.009334366    0.014754713   -0.008440816
      3        1          -0.007651578   -0.002372204   -0.001058548
      4        1           0.011082054    0.002930701    0.004500318
      5        7           0.042210789   -0.059168591   -0.103112896
      6        7          -0.034506784    0.032005544    0.068834563
 -------------------------------------------------------------------
 Cartesian Forces:  Max     0.103112896 RMS     0.037685353

 GradGradGradGradGradGradGradGradGradGradGradGradGradGradGradGradGradGrad
 Berny optimization.
 Using GEDIIS/GDIIS optimizer.
 FormGI is forming the generalized inverse of G from B-inverse, IUseBI=4.
 Internal  Forces:  Max     0.078845092 RMS     0.026897242
 Search for a local minimum.
 Step number   3 out of a maximum of   27
 All quantities printed in internal units (Hartrees-Bohrs-Radians)
 Mixed Optimization -- RFO/linear search
 Update second derivatives using D2CorX and points    1    3    2
 DE=  4.17D-03 DEPred=-1.85D-02 R=-2.25D-01
 Trust test=-2.25D-01 RLast= 7.55D-01 DXMaxT set to 2.52D-01
 The second derivative matrix:
                          R1        R2        R3        R4        R5
           R1           0.37245
           R2          -0.00041   0.37128
           R3          -0.00007  -0.00046   0.37214
           R4          -0.00107  -0.00078  -0.00067   0.36143
           R5          -0.00576  -0.02138  -0.00880  -0.01130   1.23150
           A1          -0.00046  -0.00059  -0.00035   0.00033  -0.01304
           A2          -0.00025  -0.00060  -0.00026  -0.00140  -0.01401
           A3           0.00009   0.00035   0.00009   0.00361   0.01591
           A4          -0.00126  -0.00171  -0.00100   0.00090  -0.03420
           A5           0.00239   0.00283   0.00180  -0.00510   0.05131
           A6          -0.00003   0.00028   0.00006   0.00164   0.00592
           A7          -0.00065  -0.00141  -0.00091   0.01539   0.03120
           A8           0.00049   0.00056   0.00040  -0.00353   0.00288
           D1           0.00157   0.00149   0.00107  -0.00352   0.03655
           D2           0.00040   0.00036   0.00026  -0.00087   0.00935
           D3          -0.00021  -0.00027  -0.00017   0.00062  -0.00387
           D4          -0.00061  -0.00063  -0.00043   0.00149  -0.01322
                          A1        A2        A3        A4        A5
           A1           0.15983
           A2          -0.00044   0.15991
           A3           0.00054  -0.00079   0.16339
           A4          -0.00052  -0.00135   0.00177   0.15834
           A5           0.00038   0.00311  -0.00608   0.00122   0.16359
           A6           0.00037  -0.00013   0.00106   0.00113  -0.00300
           A7           0.00078  -0.00613   0.01860   0.00298  -0.02113
           A8          -0.00017   0.00139  -0.00392  -0.00062   0.00456
           D1          -0.00004   0.00153  -0.00314  -0.00010   0.00333
           D2          -0.00002   0.00036  -0.00074  -0.00005   0.00085
           D3          -0.00003  -0.00035   0.00076  -0.00009  -0.00054
           D4          -0.00001  -0.00071   0.00151  -0.00003  -0.00139
                          A6        A7        A8        D1        D2
           A6           0.16033
           A7           0.00648   0.14235
           A8          -0.00148  -0.01816   0.05609
           D1          -0.00159  -0.01144   0.00263   0.00745
           D2          -0.00038  -0.00268   0.00063   0.00062   0.00781
           D3           0.00034   0.00295  -0.00062  -0.00042  -0.00010
           D4           0.00073   0.00564  -0.00125  -0.00104  -0.00026
                          D3        D4
           D3           0.00774
           D4           0.00019   0.00810
 ITU= -1  1  0
 Use linear search instead of GDIIS.
     Eigenvalues ---    0.05233   0.05359   0.06886   0.07770   0.12496
     Eigenvalues ---    0.16009   0.19056   0.36246   0.37077   0.37230
     Eigenvalues ---    0.37272   1.23428
 RFO step:  Lambda=-1.72312632D-03 EMin= 5.23257921D-02
 Quartic linear search produced a step of -0.50440.
 Iteration  1 RMS(Cart)=  0.09040305 RMS(Int)=  0.02826920
 Iteration  2 RMS(Cart)=  0.04277753 RMS(Int)=  0.00249562
 Iteration  3 RMS(Cart)=  0.00213949 RMS(Int)=  0.00135455
 Iteration  4 RMS(Cart)=  0.00000094 RMS(Int)=  0.00135455
 Variable       Old X    -DE/DX   Delta X   Delta X   Delta X     New X
                                 (Linear)    (Quad)   (Total)
    R1        2.06795  -0.00715  -0.01109  -0.00659  -0.01768   2.05027
    R2        2.08067  -0.00617  -0.01577  -0.00120  -0.01697   2.06369
    R3        2.05727  -0.00472  -0.00905  -0.00293  -0.01198   2.04529
    R4        2.73138   0.02064   0.01190   0.02426   0.03616   2.76754
    R5        2.40282  -0.07885  -0.07201   0.00469  -0.06732   2.33550
    A1        1.94529  -0.00012  -0.01093   0.00044  -0.00683   1.93846
    A2        2.00923  -0.00952  -0.03032  -0.00222  -0.03434   1.97489
    A3        1.77342   0.02257   0.04565   0.04798   0.09310   1.86652
    A4        2.00954  -0.00050  -0.03225   0.00472  -0.02626   1.98328
    A5        1.87086  -0.02049   0.01458  -0.07308  -0.05752   1.81333
    A6        1.82917   0.01068   0.02503   0.02184   0.04567   1.87484
    A7        2.07396   0.06332   0.35255  -0.03769   0.31486   2.38882
    A8        3.50779  -0.01560  -0.06710  -0.03799  -0.10509   3.40270
    D1        2.30002  -0.01068  -0.07048   0.00329  -0.06832   2.23170
    D2       -2.04257  -0.00211  -0.01711   0.00621  -0.00898  -2.05155
    D3        2.09735   0.00325  -0.00098   0.02649   0.02778   2.12513
    D4       -2.14326   0.00536   0.01614   0.02028   0.03676  -2.10650
         Item               Value     Threshold  Converged?
 Maximum Force            0.078845     0.000450     NO 
 RMS     Force            0.026897     0.000300     NO 
 Maximum Displacement     0.274626     0.001800     NO 
 RMS     Displacement     0.123802     0.001200     NO 
 Predicted change in Energy=-1.502372D-02
 GradGradGradGradGradGradGradGradGradGradGradGradGradGradGradGradGradGrad

                          Input orientation:                          
 ---------------------------------------------------------------------
 Center     Atomic      Atomic             Coordinates (Angstroms)
 Number     Number       Type             X           Y           Z
 ---------------------------------------------------------------------
      1          6           0       -0.033497    0.021617    0.023753
      2          1           0        0.075735    0.046636    1.102909
      3          1           0        0.918503   -0.202648   -0.462040
      4          1           0       -0.527857    0.898269   -0.374373
      5          7           0       -0.871775   -1.136556   -0.293650
      6          7           0       -0.860268   -2.022569   -1.155210
 ---------------------------------------------------------------------
                    Distance matrix (angstroms):
                    1          2          3          4          5
     1  C    0.000000
     2  H    1.084958   0.000000
     3  H    1.092060   1.794844   0.000000
     4  H    1.082319   1.808857   1.819797   0.000000
     5  N    1.464520   2.061091   2.026237   2.065263   0.000000
     6  N    2.500440   3.202625   2.637541   3.041628   1.235895
                    6
     6  N    0.000000
 Stoichiometry    CH3N2(1+,3)
 Framework group  C1[X(CH3N2)]
 Deg. of freedom    12
 Full point group                 C1      NOp   1
 Largest Abelian subgroup         C1      NOp   1
 Largest concise Abelian subgroup C1      NOp   1
                         Standard orientation:                         
 ---------------------------------------------------------------------
 Center     Atomic      Atomic             Coordinates (Angstroms)
 Number     Number       Type             X           Y           Z
 ---------------------------------------------------------------------
      1          6           0       -1.146558   -0.104445    0.005586
      2          1           0       -1.693908    0.518333   -0.694190
      3          1           0       -1.080609   -1.133698   -0.353421
      4          1           0       -1.508746   -0.021877    1.022158
      5          7           0        0.241937    0.361176   -0.004336
      6          7           0        1.352721   -0.180617    0.003184
 ---------------------------------------------------------------------
 Rotational constants (GHZ):     89.7241668     10.1420711      9.6941690
 Standard basis: 6-311G(d,p) (5D, 7F)
 There are    75 symmetry adapted cartesian basis functions of A   symmetry.
 There are    72 symmetry adapted basis functions of A   symmetry.
    72 basis functions,   120 primitive gaussians,    75 cartesian basis functions
    12 alpha electrons       10 beta electrons
       nuclear repulsion energy        63.8884661366 Hartrees.
 NAtoms=    6 NActive=    6 NUniq=    6 SFac= 1.00D+00 NAtFMM=   60 NAOKFM=F Big=F
 Integral buffers will be    131072 words long.
 Raffenetti 2 integral format.
 Two-electron integral symmetry is turned on.
 One-electron integrals computed using PRISM.
 NBasis=    72 RedAO= T EigKep=  6.07D-03  NBF=    72
 NBsUse=    72 1.00D-06 EigRej= -1.00D+00 NBFU=    72
 Lowest energy guess from the checkpoint file:  "H3CN2opt.chk"
 B after Tr=     0.000000    0.000000    0.000000
         Rot=    0.998533    0.052923    0.002575   -0.011163 Ang=   6.21 deg.
 B after Tr=     0.000000    0.000000    0.000000
         Rot=    0.999897    0.013668    0.001075    0.004290 Ang=   1.65 deg.
 Initial guess <Sx>= 0.0000 <Sy>= 0.0000 <Sz>= 1.0000 <S**2>= 2.0309 S= 1.0103
 Keep R1 and R2 ints in memory in canonical form, NReq=7793926.
 Requested convergence on RMS density matrix=1.00D-08 within 128 cycles.
 Requested convergence on MAX density matrix=1.00D-06.
 Requested convergence on             energy=1.00D-06.
 No special actions if energy rises.
 Rare condition: small coef for last iteration:  0.000D+00
 Rare condition: small coef for last iteration:  0.000D+00
 Rare condition: small coef for last iteration:  0.000D+00
 Rare condition: small coef for last iteration:  0.000D+00
 Rare condition: small coef for last iteration:  0.000D+00
 SCF Done:  E(UHF) =  -148.081273959     A.U. after   31 cycles
            NFock= 31  Conv=0.33D-08     -V/T= 2.0004
 <Sx>= 0.0000 <Sy>= 0.0000 <Sz>= 1.0000 <S**2>= 2.0145 S= 1.0048
 <L.S>= 0.000000000000E+00
 Annihilation of the first spin contaminant:
 S**2 before annihilation     2.0145,   after     2.0001
 Calling FoFJK, ICntrl=      2127 FMM=F ISym2X=0 I1Cent= 0 IOpClX= 1 NMat=1 NMatS=1 NMatT=0.
 ***** Axes restored to original set *****
 -------------------------------------------------------------------
 Center     Atomic                   Forces (Hartrees/Bohr)
 Number     Number              X              Y              Z
 -------------------------------------------------------------------
      1        6          -0.002043091   -0.005900843   -0.000424545
      2        1           0.000554928   -0.000042547   -0.002046327
      3        1           0.000966477    0.002099677   -0.000745250
      4        1           0.001428467   -0.000504079    0.000245588
      5        7          -0.004576928   -0.017293398   -0.017098320
      6        7           0.003670148    0.021641190    0.020068853
 -------------------------------------------------------------------
 Cartesian Forces:  Max     0.021641190 RMS     0.009276185

 GradGradGradGradGradGradGradGradGradGradGradGradGradGradGradGradGradGrad
 Berny optimization.
 Using GEDIIS/GDIIS optimizer.
 FormGI is forming the generalized inverse of G from B-inverse, IUseBI=4.
 Internal  Forces:  Max     0.029470671 RMS     0.007599180
 Search for a local minimum.
 Step number   4 out of a maximum of   27
 All quantities printed in internal units (Hartrees-Bohrs-Radians)
 Mixed Optimization -- RFO/linear search
 Update second derivatives using D2CorX and points    3    2    4
 DE= -1.12D-02 DEPred=-1.50D-02 R= 7.47D-01
 TightC=F SS=  1.41D+00  RLast= 4.13D-01 DXNew= 4.2426D-01 1.2400D+00
 Trust test= 7.47D-01 RLast= 4.13D-01 DXMaxT set to 4.24D-01
 The second derivative matrix:
                          R1        R2        R3        R4        R5
           R1           0.37201
           R2          -0.00036   0.37104
           R3          -0.00023  -0.00047   0.37211
           R4           0.00040  -0.00038   0.00043   0.36302
           R5          -0.00246  -0.02207  -0.00438   0.02968   1.53632
           A1          -0.00031  -0.00061  -0.00024   0.00076  -0.00817
           A2          -0.00015  -0.00097  -0.00031  -0.00141  -0.01900
           A3           0.00126   0.00070   0.00086   0.00294   0.03660
           A4          -0.00104  -0.00171  -0.00078   0.00218  -0.02235
           A5           0.00026   0.00278   0.00046  -0.00577   0.01169
           A6           0.00048   0.00044   0.00039   0.00125   0.01440
           A7          -0.00339   0.00197  -0.00171   0.01370   0.03568
           A8           0.00048   0.00022   0.00045  -0.00117   0.01204
           D1           0.00191   0.00112   0.00125  -0.00215   0.04438
           D2           0.00049   0.00028   0.00033  -0.00040   0.01251
           D3          -0.00024  -0.00011  -0.00010   0.00123   0.00234
           D4          -0.00073  -0.00039  -0.00043   0.00163  -0.01017
                          A1        A2        A3        A4        A5
           A1           0.15989
           A2          -0.00054   0.15938
           A3           0.00067  -0.00062   0.16174
           A4          -0.00035  -0.00150   0.00229   0.15877
           A5           0.00009   0.00372  -0.00457   0.00006   0.16212
           A6           0.00041  -0.00004   0.00028   0.00133  -0.00225
           A7           0.00130  -0.00061   0.01756   0.00303  -0.02671
           A8           0.00000   0.00075  -0.00234  -0.00018   0.00247
           D1           0.00005   0.00083  -0.00240   0.00022   0.00270
           D2           0.00002   0.00019  -0.00050   0.00007   0.00055
           D3           0.00008  -0.00018   0.00102   0.00014  -0.00144
           D4           0.00006  -0.00037   0.00152   0.00007  -0.00199
                          A6        A7        A8        D1        D2
           A6           0.15996
           A7           0.00599   0.08690
           A8          -0.00080  -0.01425   0.05586
           D1          -0.00128  -0.00577   0.00246   0.00710
           D2          -0.00028  -0.00145   0.00064   0.00058   0.00782
           D3           0.00044   0.00045  -0.00023   0.00000   0.00002
           D4           0.00072   0.00190  -0.00087  -0.00058  -0.00015
                          D3        D4
           D3           0.00774
           D4           0.00007   0.00787
 ITU=  1 -1  1  0
 Use linear search instead of GDIIS.
     Eigenvalues ---    0.04882   0.05507   0.06402   0.08120   0.08422
     Eigenvalues ---    0.16007   0.17837   0.36318   0.37036   0.37217
     Eigenvalues ---    0.37233   1.53874
 RFO step:  Lambda=-1.60858151D-03 EMin= 4.88207445D-02
 Quartic linear search produced a step of  0.03891.
 Iteration  1 RMS(Cart)=  0.04721790 RMS(Int)=  0.00257547
 Iteration  2 RMS(Cart)=  0.00240104 RMS(Int)=  0.00007122
 Iteration  3 RMS(Cart)=  0.00000248 RMS(Int)=  0.00007120
 Iteration  4 RMS(Cart)=  0.00000000 RMS(Int)=  0.00007120
 Variable       Old X    -DE/DX   Delta X   Delta X   Delta X     New X
                                 (Linear)    (Quad)   (Total)
    R1        2.05027  -0.00198   0.00017  -0.00644  -0.00628   2.04400
    R2        2.06369   0.00077   0.00056   0.00112   0.00167   2.06537
    R3        2.04529  -0.00115   0.00023  -0.00391  -0.00368   2.04160
    R4        2.76754  -0.00359   0.00049  -0.00540  -0.00491   2.76263
    R5        2.33550  -0.02947   0.00294  -0.01904  -0.01610   2.31940
    A1        1.93846  -0.00050   0.00058  -0.00899  -0.00854   1.92991
    A2        1.97489   0.00015   0.00100  -0.00431  -0.00349   1.97140
    A3        1.86652  -0.00061   0.00010   0.01320   0.01328   1.87981
    A4        1.98328  -0.00099   0.00147  -0.00992  -0.00854   1.97473
    A5        1.81333   0.00186  -0.00336   0.00324  -0.00008   1.81325
    A6        1.87484   0.00029  -0.00015   0.01010   0.00992   1.88476
    A7        2.38882  -0.00911  -0.01494  -0.09321  -0.10815   2.28067
    A8        3.40270  -0.00206   0.00109  -0.05889  -0.05781   3.34489
    D1        2.23170  -0.00144   0.00278  -0.02518  -0.02227   2.20942
    D2       -2.05155  -0.00005   0.00097   0.00288   0.00389  -2.04766
    D3        2.12513   0.00000   0.00116   0.00784   0.00906   2.13419
    D4       -2.10650   0.00005   0.00019   0.00496   0.00517  -2.10134
         Item               Value     Threshold  Converged?
 Maximum Force            0.029471     0.000450     NO 
 RMS     Force            0.007599     0.000300     NO 
 Maximum Displacement     0.126822     0.001800     NO 
 RMS     Displacement     0.047737     0.001200     NO 
 Predicted change in Energy=-8.468013D-04
 GradGradGradGradGradGradGradGradGradGradGradGradGradGradGradGradGradGrad

                          Input orientation:                          
 ---------------------------------------------------------------------
 Center     Atomic      Atomic             Coordinates (Angstroms)
 Number     Number       Type             X           Y           Z
 ---------------------------------------------------------------------
      1          6           0       -0.049219    0.012698    0.020775
      2          1           0        0.087987    0.037749    1.093380
      3          1           0        0.890294   -0.232323   -0.481030
      4          1           0       -0.516089    0.907242   -0.365262
      5          7           0       -0.918975   -1.120553   -0.289835
      6          7           0       -0.793157   -2.000064   -1.136639
 ---------------------------------------------------------------------
                    Distance matrix (angstroms):
                    1          2          3          4          5
     1  C    0.000000
     2  H    1.081636   0.000000
     3  H    1.092944   1.787570   0.000000
     4  H    1.080371   1.802377   1.813814   0.000000
     5  N    1.461920   2.066136   2.024589   2.068806   0.000000
     6  N    2.438085   3.146757   2.527595   3.020631   1.227374
                    6
     6  N    0.000000
 Stoichiometry    CH3N2(1+,3)
 Framework group  C1[X(CH3N2)]
 Deg. of freedom    12
 Full point group                 C1      NOp   1
 Largest Abelian subgroup         C1      NOp   1
 Largest concise Abelian subgroup C1      NOp   1
                         Standard orientation:                         
 ---------------------------------------------------------------------
 Center     Atomic      Atomic             Coordinates (Angstroms)
 Number     Number       Type             X           Y           Z
 ---------------------------------------------------------------------
      1          6           0       -1.121289   -0.111874    0.005557
      2          1           0       -1.674424    0.409575   -0.763903
      3          1           0       -1.007323   -1.167891   -0.252060
      4          1           0       -1.527746    0.042465    0.994584
      5          7           0        0.247392    0.401746   -0.005297
      6          7           0        1.315069   -0.203590    0.003588
 ---------------------------------------------------------------------
 Rotational constants (GHZ):     81.9270634     10.6146659     10.0113871
 Standard basis: 6-311G(d,p) (5D, 7F)
 There are    75 symmetry adapted cartesian basis functions of A   symmetry.
 There are    72 symmetry adapted basis functions of A   symmetry.
    72 basis functions,   120 primitive gaussians,    75 cartesian basis functions
    12 alpha electrons       10 beta electrons
       nuclear repulsion energy        64.3877107962 Hartrees.
 NAtoms=    6 NActive=    6 NUniq=    6 SFac= 1.00D+00 NAtFMM=   60 NAOKFM=F Big=F
 Integral buffers will be    131072 words long.
 Raffenetti 2 integral format.
 Two-electron integral symmetry is turned on.
 One-electron integrals computed using PRISM.
 NBasis=    72 RedAO= T EigKep=  5.98D-03  NBF=    72
 NBsUse=    72 1.00D-06 EigRej= -1.00D+00 NBFU=    72
 Initial guess from the checkpoint file:  "H3CN2opt.chk"
 B after Tr=     0.000000    0.000000    0.000000
         Rot=    0.999430    0.033687    0.001959   -0.000902 Ang=   3.87 deg.
 Initial guess <Sx>= 0.0000 <Sy>= 0.0000 <Sz>= 1.0000 <S**2>= 2.0144 S= 1.0048
 ExpMin= 1.03D-01 ExpMax= 6.29D+03 ExpMxC= 9.49D+02 IAcc=1 IRadAn=         1 AccDes= 0.00D+00
 Harris functional with IExCor=  205 and IRadAn=       1 diagonalized for initial guess.
 HarFok:  IExCor=  205 AccDes= 0.00D+00 IRadAn=         1 IDoV= 1 UseB2=F ITyADJ=14
 ICtDFT=  3500011 ScaDFX=  1.000000  1.000000  1.000000  1.000000
 FoFCou: FMM=F IPFlag=           0 FMFlag=      100000 FMFlg1=           0
         NFxFlg=           0 DoJE=T BraDBF=F KetDBF=T FulRan=T
         wScrn=  0.000000 ICntrl=     500 IOpCl=  0 I1Cent=   200000004 NGrid=           0
         NMat0=    1 NMatS0=      1 NMatT0=    0 NMatD0=    1 NMtDS0=    0 NMtDT0=    0
 Petite list used in FoFCou.
 Keep R1 and R2 ints in memory in canonical form, NReq=7793998.
 Requested convergence on RMS density matrix=1.00D-08 within 128 cycles.
 Requested convergence on MAX density matrix=1.00D-06.
 Requested convergence on             energy=1.00D-06.
 No special actions if energy rises.
 Rare condition: small coef for last iteration:  0.000D+00
 Rare condition: small coef for last iteration:  0.000D+00
 Rare condition: small coef for last iteration:  0.000D+00
 SCF Done:  E(UHF) =  -148.082096045     A.U. after   26 cycles
            NFock= 26  Conv=0.80D-08     -V/T= 2.0001
 <Sx>= 0.0000 <Sy>= 0.0000 <Sz>= 1.0000 <S**2>= 2.0163 S= 1.0054
 <L.S>= 0.000000000000E+00
 Annihilation of the first spin contaminant:
 S**2 before annihilation     2.0163,   after     2.0001
 Calling FoFJK, ICntrl=      2127 FMM=F ISym2X=0 I1Cent= 0 IOpClX= 1 NMat=1 NMatS=1 NMatT=0.
 ***** Axes restored to original set *****
 -------------------------------------------------------------------
 Center     Atomic                   Forces (Hartrees/Bohr)
 Number     Number              X              Y              Z
 -------------------------------------------------------------------
      1        6          -0.005057561   -0.002355665    0.004684113
      2        1           0.000419196    0.000047164    0.000286202
      3        1           0.000505817   -0.000060466   -0.002156939
      4        1           0.000505664    0.000392739   -0.000671346
      5        7           0.007262860   -0.008985246   -0.016160352
      6        7          -0.003635977    0.010961474    0.014018321
 -------------------------------------------------------------------
 Cartesian Forces:  Max     0.016160352 RMS     0.006598105

 GradGradGradGradGradGradGradGradGradGradGradGradGradGradGradGradGradGrad
 Berny optimization.
 Using GEDIIS/GDIIS optimizer.
 FormGI is forming the generalized inverse of G from B-inverse, IUseBI=4.
 Internal  Forces:  Max     0.017899174 RMS     0.004768403
 Search for a local minimum.
 Step number   5 out of a maximum of   27
 All quantities printed in internal units (Hartrees-Bohrs-Radians)
 Mixed Optimization -- RFO/linear search
 Update second derivatives using D2CorX and points    3    2    4    5
 DE= -8.22D-04 DEPred=-8.47D-04 R= 9.71D-01
 TightC=F SS=  1.41D+00  RLast= 1.28D-01 DXNew= 7.1352D-01 3.8455D-01
 Trust test= 9.71D-01 RLast= 1.28D-01 DXMaxT set to 4.24D-01
 The second derivative matrix:
                          R1        R2        R3        R4        R5
           R1           0.37244
           R2           0.00112   0.37068
           R3           0.00016   0.00037   0.37242
           R4          -0.00246   0.00154  -0.00114   0.35328
           R5          -0.03419  -0.01508  -0.02200   0.01566   1.12059
           A1          -0.00062   0.00033  -0.00038  -0.00290  -0.02254
           A2          -0.00022  -0.00091  -0.00042  -0.00269  -0.02664
           A3           0.00367   0.00175   0.00233  -0.00221   0.06760
           A4          -0.00178  -0.00112  -0.00116   0.00031  -0.03628
           A5          -0.00283   0.00006  -0.00144   0.00669  -0.00487
           A6           0.00203   0.00036   0.00130   0.00122   0.03861
           A7           0.00778   0.01370   0.00608  -0.01308  -0.03235
           A8          -0.00477  -0.00021  -0.00269  -0.00094  -0.02959
           D1           0.00321   0.00148   0.00201  -0.00299   0.03831
           D2           0.00041   0.00021   0.00028  -0.00009   0.01090
           D3           0.00019  -0.00007   0.00020   0.00227   0.00426
           D4          -0.00022  -0.00028  -0.00007   0.00236  -0.00663
                          A1        A2        A3        A4        A5
           A1           0.15907
           A2          -0.00051   0.15999
           A3          -0.00036  -0.00168   0.15709
           A4          -0.00106  -0.00181   0.00262   0.15820
           A5           0.00248   0.00492   0.00326   0.00072   0.14824
           A6           0.00050  -0.00063  -0.00108   0.00199  -0.00036
           A7          -0.00192  -0.00365   0.02104   0.00118  -0.02927
           A8          -0.00128   0.00112  -0.00087  -0.00178   0.00261
           D1           0.00038   0.00084  -0.00186   0.00024   0.00149
           D2           0.00006   0.00014  -0.00016   0.00006   0.00011
           D3           0.00025  -0.00064   0.00246   0.00038  -0.00345
           D4           0.00019  -0.00078   0.00262   0.00032  -0.00355
                          A6        A7        A8        D1        D2
           A6           0.15932
           A7           0.01164   0.17072
           A8           0.00047  -0.04049   0.05556
           D1          -0.00116   0.00519   0.00067   0.00769
           D2          -0.00015  -0.00065   0.00043   0.00050   0.00779
           D3           0.00110   0.00730  -0.00140   0.00021   0.00001
           D4           0.00125   0.00795  -0.00183  -0.00030  -0.00013
                          D3        D4
           D3           0.00814
           D4           0.00047   0.00826
 ITU=  1  1 -1  1  0
 Use linear search instead of GDIIS.
     Eigenvalues ---    0.03935   0.05536   0.06327   0.08099   0.13118
     Eigenvalues ---    0.15993   0.20515   0.35375   0.37057   0.37227
     Eigenvalues ---    0.37266   1.12809
 RFO step:  Lambda=-7.06679720D-04 EMin= 3.93529996D-02
 Quartic linear search produced a step of -0.05489.
 Iteration  1 RMS(Cart)=  0.02325820 RMS(Int)=  0.00069488
 Iteration  2 RMS(Cart)=  0.00066267 RMS(Int)=  0.00002314
 Iteration  3 RMS(Cart)=  0.00000025 RMS(Int)=  0.00002314
 Variable       Old X    -DE/DX   Delta X   Delta X   Delta X     New X
                                 (Linear)    (Quad)   (Total)
    R1        2.04400   0.00034   0.00034  -0.00245  -0.00210   2.04189
    R2        2.06537   0.00139  -0.00009   0.00268   0.00259   2.06795
    R3        2.04160   0.00035   0.00020  -0.00115  -0.00095   2.04065
    R4        2.76263  -0.00320   0.00027  -0.00830  -0.00803   2.75460
    R5        2.31940  -0.01790   0.00088  -0.01903  -0.01815   2.30125
    A1        1.92991   0.00019   0.00047  -0.00113  -0.00064   1.92928
    A2        1.97140  -0.00003   0.00019   0.00185   0.00198   1.97338
    A3        1.87981   0.00058  -0.00073   0.00860   0.00784   1.88764
    A4        1.97473  -0.00028   0.00047  -0.00762  -0.00714   1.96759
    A5        1.81325  -0.00112   0.00000  -0.00828  -0.00827   1.80499
    A6        1.88476   0.00063  -0.00054   0.00696   0.00638   1.89114
    A7        2.28067   0.00607   0.00594   0.00512   0.01106   2.29172
    A8        3.34489  -0.00373   0.00317  -0.07161  -0.06844   3.27645
    D1        2.20942   0.00000   0.00122  -0.00643  -0.00522   2.20421
    D2       -2.04766   0.00007  -0.00021   0.00151   0.00132  -2.04633
    D3        2.13419   0.00068  -0.00050   0.01131   0.01086   2.14505
    D4       -2.10134   0.00061  -0.00028   0.00980   0.00953  -2.09180
         Item               Value     Threshold  Converged?
 Maximum Force            0.017899     0.000450     NO 
 RMS     Force            0.004768     0.000300     NO 
 Maximum Displacement     0.046724     0.001800     NO 
 RMS     Displacement     0.023152     0.001200     NO 
 Predicted change in Energy=-3.545544D-04
 GradGradGradGradGradGradGradGradGradGradGradGradGradGradGradGradGradGrad

                          Input orientation:                          
 ---------------------------------------------------------------------
 Center     Atomic      Atomic             Coordinates (Angstroms)
 Number     Number       Type             X           Y           Z
 ---------------------------------------------------------------------
      1          6           0       -0.054349    0.014458    0.020019
      2          1           0        0.087442    0.022537    1.091167
      3          1           0        0.882715   -0.230176   -0.489478
      4          1           0       -0.508328    0.920269   -0.353509
      5          7           0       -0.923944   -1.106552   -0.314560
      6          7           0       -0.782695   -2.015786   -1.112249
 ---------------------------------------------------------------------
                    Distance matrix (angstroms):
                    1          2          3          4          5
     1  C    0.000000
     2  H    1.080523   0.000000
     3  H    1.094313   1.787390   0.000000
     4  H    1.079867   1.802208   1.810251   0.000000
     5  N    1.457670   2.067320   2.015601   2.069361   0.000000
     6  N    2.436064   3.125211   2.519888   3.044894   1.217771
                    6
     6  N    0.000000
 Stoichiometry    CH3N2(1+,3)
 Framework group  C1[X(CH3N2)]
 Deg. of freedom    12
 Full point group                 C1      NOp   1
 Largest Abelian subgroup         C1      NOp   1
 Largest concise Abelian subgroup C1      NOp   1
                         Standard orientation:                         
 ---------------------------------------------------------------------
 Center     Atomic      Atomic             Coordinates (Angstroms)
 Number     Number       Type             X           Y           Z
 ---------------------------------------------------------------------
      1          6           0       -1.120836   -0.107040    0.004833
      2          1           0       -1.651574    0.349235   -0.818367
      3          1           0       -1.000637   -1.181509   -0.164252
      4          1           0       -1.557702    0.117797    0.966452
      5          7           0        0.248621    0.392246   -0.005212
      6          7           0        1.313512   -0.198429    0.003379
 ---------------------------------------------------------------------
 Rotational constants (GHZ):     84.0339429     10.6289063     10.0526234
 Standard basis: 6-311G(d,p) (5D, 7F)
 There are    75 symmetry adapted cartesian basis functions of A   symmetry.
 There are    72 symmetry adapted basis functions of A   symmetry.
    72 basis functions,   120 primitive gaussians,    75 cartesian basis functions
    12 alpha electrons       10 beta electrons
       nuclear repulsion energy        64.6170620113 Hartrees.
 NAtoms=    6 NActive=    6 NUniq=    6 SFac= 1.00D+00 NAtFMM=   60 NAOKFM=F Big=F
 Integral buffers will be    131072 words long.
 Raffenetti 2 integral format.
 Two-electron integral symmetry is turned on.
 One-electron integrals computed using PRISM.
 NBasis=    72 RedAO= T EigKep=  5.76D-03  NBF=    72
 NBsUse=    72 1.00D-06 EigRej= -1.00D+00 NBFU=    72
 Initial guess from the checkpoint file:  "H3CN2opt.chk"
 B after Tr=     0.000000    0.000000    0.000000
         Rot=    0.999632    0.027076    0.001758    0.000127 Ang=   3.11 deg.
 Initial guess <Sx>= 0.0000 <Sy>= 0.0000 <Sz>= 1.0000 <S**2>= 2.0162 S= 1.0054
 ExpMin= 1.03D-01 ExpMax= 6.29D+03 ExpMxC= 9.49D+02 IAcc=1 IRadAn=         1 AccDes= 0.00D+00
 Harris functional with IExCor=  205 and IRadAn=       1 diagonalized for initial guess.
 HarFok:  IExCor=  205 AccDes= 0.00D+00 IRadAn=         1 IDoV= 1 UseB2=F ITyADJ=14
 ICtDFT=  3500011 ScaDFX=  1.000000  1.000000  1.000000  1.000000
 FoFCou: FMM=F IPFlag=           0 FMFlag=      100000 FMFlg1=           0
         NFxFlg=           0 DoJE=T BraDBF=F KetDBF=T FulRan=T
         wScrn=  0.000000 ICntrl=     500 IOpCl=  0 I1Cent=   200000004 NGrid=           0
         NMat0=    1 NMatS0=      1 NMatT0=    0 NMatD0=    1 NMtDS0=    0 NMtDT0=    0
 Petite list used in FoFCou.
 Keep R1 and R2 ints in memory in canonical form, NReq=7794013.
 Requested convergence on RMS density matrix=1.00D-08 within 128 cycles.
 Requested convergence on MAX density matrix=1.00D-06.
 Requested convergence on             energy=1.00D-06.
 No special actions if energy rises.
 Rare condition: small coef for last iteration:  0.000D+00
 Rare condition: small coef for last iteration:  0.000D+00
 Rare condition: small coef for last iteration:  0.000D+00
 Rare condition: small coef for last iteration:  0.000D+00
 SCF Done:  E(UHF) =  -148.082546869     A.U. after   25 cycles
            NFock= 25  Conv=0.69D-08     -V/T= 1.9998
 <Sx>= 0.0000 <Sy>= 0.0000 <Sz>= 1.0000 <S**2>= 2.0238 S= 1.0079
 <L.S>= 0.000000000000E+00
 Annihilation of the first spin contaminant:
 S**2 before annihilation     2.0238,   after     2.0003
 Calling FoFJK, ICntrl=      2127 FMM=F ISym2X=0 I1Cent= 0 IOpClX= 1 NMat=1 NMatS=1 NMatT=0.
 ***** Axes restored to original set *****
 -------------------------------------------------------------------
 Center     Atomic                   Forces (Hartrees/Bohr)
 Number     Number              X              Y              Z
 -------------------------------------------------------------------
      1        6          -0.002304557   -0.002842409    0.002020482
      2        1          -0.000163586   -0.000448084    0.001061333
      3        1           0.000860321    0.000543092   -0.001852332
      4        1          -0.000115384    0.000421976   -0.001038789
      5        7           0.002090249    0.003358684   -0.000853503
[...]
  Atom  AN      X      Y      Z        X      Y      Z        X      Y      Z
     1   6     0.00   0.00   0.14    -0.06   0.15   0.00     0.00   0.00  -0.03
     2   1     0.61   0.06  -0.18    -0.22  -0.38  -0.11     0.22   0.48   0.05
     3   1    -0.01   0.00  -0.42     0.70   0.19  -0.01     0.00   0.00   0.65
     4   1    -0.60  -0.05  -0.18    -0.25  -0.39   0.10    -0.22  -0.48   0.05
     5   7     0.00   0.00  -0.06    -0.02  -0.09   0.00     0.00   0.00  -0.03
     6   7     0.00   0.00   0.00     0.06   0.01   0.00     0.00   0.00   0.00
                      7                      8                      9
                      A                      A                      A
 Frequencies --   1482.3152              1560.1489              2097.6209
 Red. masses --      1.1063                 1.0752                12.3414
 Frc consts  --      1.4322                 1.5419                31.9939
 IR Inten    --     26.1506                12.7028                88.1365
 Raman Activ --     22.4372                22.4563               840.7215
 Depolar (P) --      0.3239                 0.5870                 0.4150
 Depolar (U) --      0.4893                 0.7398                 0.5865
  Atom  AN      X      Y      Z        X      Y      Z        X      Y      Z
     1   6    -0.07  -0.06   0.00    -0.07   0.02   0.00    -0.05   0.02   0.00
     2   1     0.24   0.45   0.03     0.53  -0.22  -0.41    -0.23  -0.07   0.07
     3   1     0.68   0.04   0.00    -0.10   0.01   0.00     0.03  -0.03   0.00
     4   1     0.24   0.45  -0.03     0.53  -0.22   0.41    -0.23  -0.07  -0.07
     5   7    -0.02  -0.03   0.00     0.01   0.01   0.00     0.61  -0.32   0.00
     6   7    -0.01   0.01   0.00    -0.02   0.01   0.00    -0.54   0.31   0.00
                     10                     11                     12
                      A                      A                      A
 Frequencies --   3059.8739              3250.5254              3310.8633
 Red. masses --      1.0490                 1.0747                 1.1086
 Frc consts  --      5.7869                 6.6901                 7.1600
 IR Inten    --    121.6418                25.8130                49.9727
 Raman Activ --    276.3623               151.1516                52.1793
 Depolar (P) --      0.1932                 0.2849                 0.7499
 Depolar (U) --      0.3239                 0.4434                 0.8571
  Atom  AN      X      Y      Z        X      Y      Z        X      Y      Z
     1   6     0.00  -0.06   0.00    -0.05   0.06   0.00     0.00   0.00   0.10
     2   1     0.10  -0.09   0.18     0.30  -0.21   0.57    -0.32   0.23  -0.58
     3   1    -0.09   0.94   0.00     0.02  -0.28   0.00     0.00   0.00   0.02
     4   1     0.10  -0.09  -0.18     0.30  -0.20  -0.57     0.32  -0.23  -0.59
     5   7     0.00   0.00   0.00     0.00   0.00   0.00     0.00   0.00   0.00
     6   7     0.00   0.00   0.00     0.00   0.00   0.00     0.00   0.00   0.00

 -------------------
 - Thermochemistry -
 -------------------
 Temperature   298.150 Kelvin.  Pressure   1.00000 Atm.
 Atom     1 has atomic number  6 and mass  12.00000
 Atom     2 has atomic number  1 and mass   1.00783
 Atom     3 has atomic number  1 and mass   1.00783
 Atom     4 has atomic number  1 and mass   1.00783
 Atom     5 has atomic number  7 and mass  14.00307
 Atom     6 has atomic number  7 and mass  14.00307
 Molecular mass:    43.02962 amu.
 Principal axes and moments of inertia in atomic units:
                           1         2         3
     Eigenvalues --    21.18969 169.64855 179.06906
           X            0.99993   0.01193   0.00001
           Y           -0.01193   0.99993   0.00003
           Z           -0.00001  -0.00003   1.00000
 This molecule is an asymmetric top.
 Rotational symmetry number  1.
 Rotational temperatures (Kelvin)      4.08754     0.51055     0.48369
 Rotational constants (GHZ):          85.17071    10.63812    10.07846
 Zero-point vibrational energy     119509.3 (Joules/Mol)
                                   28.56340 (Kcal/Mol)
 Warning -- explicit consideration of   2 degrees of freedom as
           vibrations may cause significant error
 Vibrational temperatures:    312.44   592.49  1227.79  1630.59  1636.53
          (Kelvin)           2109.19  2132.72  2244.70  3018.00  4402.47
                             4676.78  4763.59
 
 Zero-point correction=                           0.045519 (Hartree/Particle)
 Thermal correction to Energy=                    0.049306
 Thermal correction to Enthalpy=                  0.050251
 Thermal correction to Gibbs Free Energy=         0.019987
 Sum of electronic and zero-point Energies=           -148.037226
 Sum of electronic and thermal Energies=              -148.033438
 Sum of electronic and thermal Enthalpies=            -148.032494
 Sum of electronic and thermal Free Energies=         -148.062758
 
                     E (Thermal)             CV                S
                      KCal/Mol        Cal/Mol-Kelvin    Cal/Mol-Kelvin
 Total                   30.940             10.523             63.695
 Electronic               0.000              0.000              2.183
 Translational            0.889              2.981             37.204
 Rotational               0.889              2.981             21.092
 Vibrational             29.163              4.562              3.215
 Vibration     1          0.646              1.815              1.983
 Vibration     2          0.776              1.445              0.920
                       Q            Log10(Q)             Ln(Q)
 Total Bot       0.640625D-09         -9.193396        -21.168576
 Total V=0       0.554240D+12         11.743698         27.040863
 Vib (Bot)       0.211925D-20        -20.673818        -47.603225
 Vib (Bot)    1  0.911954D+00         -0.040027         -0.092166
 Vib (Bot)    2  0.429054D+00         -0.367488         -0.846173
 Vib (V=0)       0.183348D+01          0.263276          0.606215
 Vib (V=0)    1  0.154003D+01          0.187529          0.431801
 Vib (V=0)    2  0.115885D+01          0.064028          0.147431
 Electronic      0.300000D+01          0.477121          1.098612
 Translational   0.110945D+08          7.045107         16.221957
 Rotational      0.908226D+04          3.958194          9.114079
 ***** Axes restored to original set *****
 -------------------------------------------------------------------
 Center     Atomic                   Forces (Hartrees/Bohr)
 Number     Number              X              Y              Z
 -------------------------------------------------------------------
      1        6           0.000441555    0.000169371    0.000049077
      2        1          -0.000036092    0.000040966   -0.000073617
      3        1          -0.000133676    0.000015870    0.000049250
      4        1          -0.000023674   -0.000040602    0.000043100
      5        7          -0.000319458   -0.000242726   -0.000094896
      6        7           0.000071346    0.000057122    0.000027085
 -------------------------------------------------------------------
 Cartesian Forces:  Max     0.000441555 RMS     0.000156016
 FormGI is forming the generalized inverse of G from B-inverse, IUseBI=4.

 GradGradGradGradGradGradGradGradGradGradGradGradGradGradGradGradGradGrad
 Berny optimization.
 Internal  Forces:  Max     0.000307563 RMS     0.000098534
 Search for a local minimum.
 Step number   1 out of a maximum of    2
 All quantities printed in internal units (Hartrees-Bohrs-Radians)
 Second derivative matrix not updated -- analytic derivatives used.
 The second derivative matrix:
                          R1        R2        R3        R4        R5
           R1           0.37927
           R2           0.00132   0.33690
           R3           0.00219   0.00131   0.37944
           R4           0.01104   0.02817   0.01101   0.24341
           R5           0.00092   0.01564   0.00093  -0.01291   1.10023
           A1           0.00256   0.00089  -0.00282  -0.00699   0.00000
           A2           0.00159  -0.00144   0.00211  -0.01581   0.00152
           A3           0.00561  -0.00712  -0.00389   0.01683   0.00183
           A4          -0.00309   0.00112   0.00359  -0.01589   0.00039
           A5          -0.00363   0.01456  -0.00434   0.00546  -0.00593
           A6          -0.00343  -0.00721   0.00478   0.02066   0.00164
           A7           0.00084   0.00334   0.00084   0.01664  -0.02722
           A8           0.00009   0.00003  -0.00010  -0.00008   0.00003
           D1           0.00221   0.00097   0.00084  -0.03538   0.00155
           D2          -0.00365  -0.00515   0.00720  -0.00237   0.00217
           D3           0.00328  -0.01054   0.00311   0.00371   0.00398
           D4           0.00694  -0.00539  -0.00409   0.00608   0.00181
                          A1        A2        A3        A4        A5
           A1           0.02073
           A2          -0.01054   0.04213
           A3          -0.01459  -0.02821   0.11125
           A4          -0.00917  -0.00315   0.02856   0.03530
           A5          -0.01604   0.03065  -0.04642  -0.02509   0.09902
           A6           0.02943  -0.03427  -0.04998  -0.02923  -0.03832
           A7           0.00417  -0.01165   0.01862   0.00410  -0.03454
           A8           0.00447  -0.00041  -0.00039  -0.00554   0.00061
           D1           0.01200   0.01706  -0.01888   0.01423  -0.01780
           D2          -0.00904   0.00938  -0.01026   0.01025  -0.01062
           D3          -0.00376   0.01304   0.00320  -0.00425  -0.01459
           D4           0.00528   0.00366   0.01346  -0.01450  -0.00398
                          A6        A7        A8        D1        D2
           A6           0.12524
           A7           0.01856   0.18003
           A8           0.00143  -0.00023   0.01892
           D1          -0.01193  -0.00034   0.00115   0.04181
           D2           0.00830   0.00424  -0.00526   0.00380   0.02038
           D3           0.00435   0.00860   0.00014   0.00191   0.01023
           D4          -0.00395   0.00436   0.00540  -0.00189  -0.01015
                          D3        D4
           D3           0.02052
           D4           0.01029   0.02044
 ITU=  0
     Eigenvalues ---    0.01563   0.04053   0.04932   0.07303   0.12997
     Eigenvalues ---    0.18682   0.20937   0.26050   0.34604   0.37799
     Eigenvalues ---    0.38421   1.10160
 Angle between quadratic step and forces=  46.09 degrees.
 Linear search not attempted -- first point.
 Iteration  1 RMS(Cart)=  0.00074594 RMS(Int)=  0.00000078
 Iteration  2 RMS(Cart)=  0.00000073 RMS(Int)=  0.00000010
 Variable       Old X    -DE/DX   Delta X   Delta X   Delta X     New X
                                 (Linear)    (Quad)   (Total)
    R1        2.04413  -0.00008   0.00000  -0.00027  -0.00027   2.04387
    R2        2.07464  -0.00014   0.00000  -0.00059  -0.00059   2.07404
    R3        2.04399  -0.00004   0.00000  -0.00013  -0.00013   2.04387
    R4        2.73724   0.00031   0.00000   0.00173   0.00173   2.73897
    R5        2.30160  -0.00005   0.00000  -0.00004  -0.00004   2.30156
    A1        1.94283   0.00001   0.00000   0.00091   0.00091   1.94375
    A2        1.97955  -0.00003   0.00000  -0.00036  -0.00036   1.97920
    A3        1.88958   0.00004   0.00000  -0.00011  -0.00011   1.88947
    A4        1.94325   0.00003   0.00000   0.00050   0.00050   1.94374
    A5        1.80904  -0.00002   0.00000  -0.00045  -0.00045   1.80860
    A6        1.89004  -0.00004   0.00000  -0.00057  -0.00057   1.88947
    A7        2.29948  -0.00018   0.00000  -0.00117  -0.00117   2.29831
    A8        3.14355  -0.00003   0.00000  -0.00197  -0.00197   3.14158
    D1        2.20749   0.00002   0.00000   0.00136   0.00136   2.20885
    D2       -2.06471  -0.00002   0.00000  -0.00077  -0.00077  -2.06549
    D3        2.15307  -0.00003   0.00000  -0.00085  -0.00085   2.15222
    D4       -2.06540  -0.00001   0.00000  -0.00008  -0.00008  -2.06548
         Item               Value     Threshold  Converged?
 Maximum Force            0.000308     0.000450     YES
 RMS     Force            0.000099     0.000300     YES
 Maximum Displacement     0.001494     0.001800     YES
 RMS     Displacement     0.000746     0.001200     YES
 Predicted change in Energy=-5.200365D-07
 Optimization completed.
    -- Stationary point found.
                           ----------------------------
                           !   Optimized Parameters   !
                           ! (Angstroms and Degrees)  !
 --------------------------                            --------------------------
 ! Name  Definition              Value          Derivative Info.                !
 --------------------------------------------------------------------------------
 ! R1    R(1,2)                  1.0817         -DE/DX =   -0.0001              !
 ! R2    R(1,3)                  1.0979         -DE/DX =   -0.0001              !
 ! R3    R(1,4)                  1.0816         -DE/DX =    0.0                 !
 ! R4    R(1,5)                  1.4485         -DE/DX =    0.0003              !
 ! R5    R(5,6)                  1.218          -DE/DX =   -0.0001              !
 ! A1    A(2,1,3)              111.3162         -DE/DX =    0.0                 !
 ! A2    A(2,1,4)              113.4201         -DE/DX =    0.0                 !
 ! A3    A(2,1,5)              108.2647         -DE/DX =    0.0                 !
 ! A4    A(3,1,4)              111.3398         -DE/DX =    0.0                 !
 ! A5    A(3,1,5)              103.6504         -DE/DX =    0.0                 !
 ! A6    A(4,1,5)              108.2914         -DE/DX =    0.0                 !
 ! A7    L(1,5,6,3,-1)         131.7505         -DE/DX =   -0.0002              !
 ! A8    L(1,5,6,3,-2)         180.1123         -DE/DX =    0.0                 !
 ! D1    D(2,1,4,3)            126.4798         -DE/DX =    0.0                 !
 ! D2    D(2,1,5,3)           -118.2995         -DE/DX =    0.0                 !
 ! D3    D(2,1,5,4)            123.3619         -DE/DX =    0.0                 !
 ! D4    D(3,1,5,4)           -118.3386         -DE/DX =    0.0                 !
 --------------------------------------------------------------------------------
 GradGradGradGradGradGradGradGradGradGradGradGradGradGradGradGradGradGrad

 1\1\GINC-TC-NODE158\Freq\UHF\6-311G(d,p)\C1H3N2(1+,3)\MAXB2\21-Oct-201
 6\0\\#N Geom=AllCheck Guess=TCheck SCRF=Check GenChk UHF/6-311G(d,p) F
 req\\Title Card Required\\1,3\C,-0.0579742348,0.0145249682,0.018368930
 4\H,0.0795285992,-0.0110346708,1.0909977567\H,0.8769188909,-0.21503744
 9,-0.5094106448\H,-0.4941398763,0.9382222738,-0.3372636356\N,-0.936603
 7286,-1.0755944786,-0.3527828175\N,-0.7668879329,-2.0463310179,-1.0685
 202236\\Version=ES64L-G09RevD.01\State=3-A\HF=-148.0827449\S2=2.023933
 \S2-1=0.\S2A=2.00026\RMSD=1.626e-09\RMSF=1.560e-04\ZeroPoint=0.0455187
 \Thermal=0.0493065\Dipole=0.0972804,0.5183166,0.3061082\DipoleDeriv=-0
 .2653619,-0.1757455,-0.0656593,0.1297598,0.1315712,0.1279271,0.1360581
 ,0.2512151,-0.0293228,0.2073129,-0.0411928,0.0687959,-0.0361028,0.1086
 672,0.0002788,0.0296883,0.0341301,0.197732,0.297244,0.0710316,0.021919
 5,-0.0833291,0.0164771,-0.1112479,-0.0800346,-0.1733381,0.1522581,0.12
 77639,0.0034377,-0.0705307,-0.0108644,0.2088511,-0.0325005,-0.036721,-
 0.0699689,0.176376,0.5273345,0.3062473,0.1317061,0.0827484,-0.1600886,
 -0.3715937,-0.0174178,-0.4627602,0.0470276,0.1057067,-0.1637783,-0.086
 2314,-0.0822118,0.694522,0.3871361,-0.0315731,0.420722,0.4559291\Polar
 =19.1231948,3.1276472,27.2518333,1.6434842,4.8818949,20.636294\PolarDe
 riv=-11.6684007,-9.7213137,-4.1333579,2.1156537,-8.1336632,5.2207275,-
 0.6545626,-0.6540602,-10.8506059,-2.9486225,2.3734478,-7.1886233,2.357
 0629,3.7050747,-1.2021505,-5.6675932,2.4068964,-9.3491553,2.9143411,0.
 8295059,0.4313365,2.104212,1.1417566,-1.4447127,-0.3249565,0.3825271,0
 .2045528,-0.1435364,1.6132266,0.4252885,1.217637,0.1980556,2.5601298,2
 .2744124,1.6926492,9.18484,10.6282866,3.925974,3.8128886,-0.6121141,1.
 3845582,0.6455262,-2.7067959,-0.5226969,0.0654657,0.8635305,-3.5332322
 ,2.7946681,-3.7624177,-3.5489153,-2.3767995,3.3986366,-1.767065,0.1852
 945,-0.7159172,3.2292787,-2.9341552,-1.5126919,0.6921596,-1.2240756,0.
 7412195,-0.5419448,9.1532272,0.0162844,-0.7038042,1.6186953,-0.4718646
 ,-1.0547626,-1.9318497,0.143454,1.3788345,-1.5022505,-0.4791237,3.9408
 945,-6.9917192,-1.8493122,0.5793791,-7.4274953,-2.4885039,4.992894,46.
 9992396,3.4409946,32.1330189,12.7403281,-3.2996816,3.8514963,32.177880
 7,1.5417892,21.4149144,15.3018346,-0.6791862,-2.2043393,9.8150072,-0.2
 457475,4.3358098,4.2300299,5.4335995,-3.6567192,-45.5718794,-1.2286505
 ,-31.8826569,-10.3903566,3.959264,-3.1509487,-29.2272107,-1.6906989,-2
 5.1262295,-13.8205633\HyperPolar=-56.3370221,-40.8997515,-91.99962,-76
 .3885561,-7.8107388,-4.8895605,-136.3220522,20.9631971,-38.2287577,92.
 0522419\PG=C01 [X(C1H3N2)]\NImag=0\\0.44957029,-0.13300726,0.50667952,
 -0.02203571,-0.01853235,0.61092909,-0.04851826,0.00435855,-0.02701453,
 0.05674568,-0.00152014,-0.05532303,0.01398125,0.00531077,0.05869599,-0
 .03434080,0.01115909,-0.35138556,0.04095976,-0.00686061,0.37395284,-0.
 22119845,0.05775976,0.11147767,0.00557251,0.00033763,-0.00330542,0.262
 48507,0.04562495,-0.06069910,-0.03267480,0.00213960,0.00022480,0.00155
 814,-0.04405506,0.06176924,0.10343664,-0.03753356,-0.10542135,0.028665
 21,-0.00485193,-0.01195425,-0.11797778,0.03112410,0.10953019,-0.104282
 28,0.11550168,-0.04543525,-0.00077130,0.00282897,0.00110711,-0.0083453
 8,0.02510979,-0.00904820,0.10897967,0.10657200,-0.26547009,0.08387621,
 0.00008304,0.00574352,0.00010924,0.00138352,-0.00138957,0.00273481,-0.
 10916672,0.29443853,-0.04792917,0.08077539,-0.08568102,-0.01303244,0.0
 3031437,-0.00553143,0.00595317,-0.01393335,0.00360957,0.04816994,-0.08
 854380,0.08609894,-0.09892037,-0.02486976,0.00590828,-0.01132567,-0.00
 267779,-0.00430941,-0.04222066,-0.03416350,-0.00762358,0.00817011,0.00
 373996,0.00841677,0.22062149,-0.04130830,-0.12197365,-0.03548650,-0.00
 772344,-0.01036623,-0.00569493,-0.00645205,-0.00727304,0.00082584,-0.0
 3314885,-0.03224209,-0.00984450,-0.05436182,0.87328255,-0.00519336,-0.
 04220432,-0.06949143,-0.03024065,-0.03394038,-0.00451501,0.01085995,0.
 01195656,-0.00108647,0.00650796,0.00156802,-0.00210933,-0.10574760,0.5
 7171214,0.47250257,0.02334907,-0.01974296,-0.02290045,-0.00170296,-0.0
 0427944,-0.00011124,0.00370692,0.00534423,0.00254770,-0.00375081,-0.00
 261180,-0.00157828,-0.07632490,0.14299445,0.12381370,0.05472268,0.0236
 3876,-0.00321365,-0.01116382,-0.00416852,0.00102496,-0.00027092,-0.008
 97380,0.00736767,0.00770073,-0.00112488,-0.00108030,0.00123188,0.11233
 291,-0.70142755,-0.50909202,-0.12170447,0.69732887,0.00606241,0.006335
 75,0.00105028,0.00066264,0.00135730,-0.00056658,-0.00700759,0.00196934
 ,0.00532231,-0.00130156,0.00025552,0.00361328,0.10335553,-0.52151206,-
 0.39530032,-0.10177144,0.51159415,0.38588104\\-0.00044155,-0.00016937,
 -0.00004908,0.00003609,-0.00004097,0.00007362,0.00013368,-0.00001587,-
 0.00004925,0.00002367,0.00004060,-0.00004310,0.00031946,0.00024273,0.0
 0009490,-0.00007135,-0.00005712,-0.00002709\\\@


 WE HAVE SEEN THAT MAN ON THE AVERAGE DOES NOT LIVE ABOVE
 TWO-AND-TWENTY YEARS.  DURING THESE TWO AND TWENTY
 YEARS HE IS LIABLE TO TWO AND TWENTY THOUSAND EVILS,
 MANY OF WHICH ARE INCURABLE.  YET EVEN IN THIS DREADFUL STATE
 MEN STILL STRUT AND POSE ON THE STAGE OF LIFE.
 THEY MAKE LOVE AT THE RISK OF DESTRUCTION,
 INTRIGUE, CARRY ON WAR, AND FORM PROJECTS, JUST AS IF THEY
 WERE TO LIVE IN LUXURY AND HAPPINESS FOR A THOUSAND
 AGES.

                                              -- VOLTAIRE
 Job cpu time:       0 days  0 hours  0 minutes 34.4 seconds.
 File lengths (MBytes):  RWF=     10 Int=      0 D2E=      0 Chk=      3 Scr=      1
 Normal termination of Gaussian 09 at Fri Oct 21 11:17:30 2016.
