 Entering Gaussian System, Link 0=g09
 Initial command:
 /cluster/software/gaussian/gaussian-09-D.01/g09/l1.exe "/local/scratch/maxb2/Gau-1469.inp" -scrdir="/local/scratch/maxb2/"
 Entering Link 1 = /cluster/software/gaussian/gaussian-09-D.01/g09/l1.exe PID=      1470.
  
 Copyright (c) 1988,1990,1992,1993,1995,1998,2003,2009,2013,
            Gaussian, Inc.  All Rights Reserved.
  
 This is part of the Gaussian(R) 09 program.  It is based on
 the Gaussian(R) 03 system (copyright 2003, Gaussian, Inc.),
 the Gaussian(R) 98 system (copyright 1998, Gaussian, Inc.),
 the Gaussian(R) 94 system (copyright 1995, Gaussian, Inc.),
 the Gaussian 92(TM) system (copyright 1992, Gaussian, Inc.),
 the Gaussian 90(TM) system (copyright 1990, Gaussian, Inc.),
 the Gaussian 88(TM) system (copyright 1988, Gaussian, Inc.),
 the Gaussian 86(TM) system (copyright 1986, Carnegie Mellon
 University), and the Gaussian 82(TM) system (copyright 1983,
 Carnegie Mellon University). Gaussian is a federally registered
 trademark of Gaussian, Inc.
  
 This software contains proprietary and confidential information,
 including trade secrets, belonging to Gaussian, Inc.
  
 This software is provided under written license and may be
 used, copied, transmitted, or stored only in accord with that
 written license.
  
 The following legend is applicable only to US Government
 contracts under FAR:
  
                    RESTRICTED RIGHTS LEGEND
  
 Use, reproduction and disclosure by the US Government is
 subject to restrictions as set forth in subparagraphs (a)
 and (c) of the Commercial Computer Software - Restricted
 Rights clause in FAR 52.227-19.
  
 Gaussian, Inc.
 340 Quinnipiac St., Bldg. 40, Wallingford CT 06492
  
  
 ---------------------------------------------------------------
 Warning -- This program may not be used in any manner that
 competes with the business of Gaussian, Inc. or will provide
 assistance to any competitor of Gaussian, Inc.  The licensee
 of this program is prohibited from giving any competitor of
 Gaussian, Inc. access to this program.  By using this program,
 the user acknowledges that Gaussian, Inc. is engaged in the
 business of creating and licensing software in the field of
 computational chemistry and represents and warrants to the
 licensee that it is not a competitor of Gaussian, Inc. and that
 it will not use this program in any manner prohibited above.
 ---------------------------------------------------------------
  

 Cite this work as:
 Gaussian 09, Revision D.01,
 M. J. Frisch, G. W. Trucks, H. B. Schlegel, G. E. Scuseria, 
 M. A. Robb, J. R. Cheeseman, G. Scalmani, V. Barone, B. Mennucci, 
 G. A. Petersson, H. Nakatsuji, M. Caricato, X. Li, H. P. Hratchian, 
 A. F. Izmaylov, J. Bloino, G. Zheng, J. L. Sonnenberg, M. Hada, 
 M. Ehara, K. Toyota, R. Fukuda, J. Hasegawa, M. Ishida, T. Nakajima, 
 Y. Honda, O. Kitao, H. Nakai, T. Vreven, J. A. Montgomery, Jr., 
 J. E. Peralta, F. Ogliaro, M. Bearpark, J. J. Heyd, E. Brothers, 
 K. N. Kudin, V. N. Staroverov, T. Keith, R. Kobayashi, J. Normand, 
 K. Raghavachari, A. Rendell, J. C. Burant, S. S. Iyengar, J. Tomasi, 
 M. Cossi, N. Rega, J. M. Millam, M. Klene, J. E. Knox, J. B. Cross, 
 V. Bakken, C. Adamo, J. Jaramillo, R. Gomperts, R. E. Stratmann, 
 O. Yazyev, A. J. Austin, R. Cammi, C. Pomelli, J. W. Ochterski, 
 R. L. Martin, K. Morokuma, V. G. Zakrzewski, G. A. Voth, 
 P. Salvador, J. J. Dannenberg, S. Dapprich, A. D. Daniels, 
 O. Farkas, J. B. Foresman, J. V. Ortiz, J. Cioslowski, 
 and D. J. Fox, Gaussian, Inc., Wallingford CT, 2013.
 
 ******************************************
 Gaussian 09:  ES64L-G09RevD.01 24-Apr-2013
                25-Oct-2016 
 ******************************************
 %nprocshared=8
 Will use up to    8 processors via shared memory.
 %mem=4gb
 %chk=N2cbs4m
 %oldchk=N2opt.chk
 Copying data from "N2opt.chk" to current chk file "N2cbs4m.chk".
 ----------------------
 # cbs-4m geom=allcheck
 ----------------------
 1/18=20,19=15,29=7,38=1/1,3;
 2/9=110,12=2,40=1/2;
 3/5=5,6=3,7=1,11=9,14=-4,16=1,25=1,30=1,71=1/1,2,3;
 4//1;
 5/5=2,38=5/2;
 6/7=2,8=2,9=2,10=2,28=1/1;
 7//1,2,3,16;
 1/18=20,19=15/3(2);
 2/9=110/2;
 99//99;
 2/9=110/2;
 3/5=5,6=3,7=1,11=9,14=-2,16=1,25=1,30=1,71=1/1,2,3;
 4/5=5,16=3,69=1/1;
 5/5=2,38=5/2;
 7//1,2,3,16;
 1/18=20,19=15/3(-5);
 2/9=110/2;
 6/7=2,8=2,9=2,10=2,19=2,28=1/1;
 99/9=1/99;
 Structure from the checkpoint file:  "N2cbs4m.chk"
 -------------------
 Title Card Required
 -------------------
 Charge =  0 Multiplicity = 1
 Redundant internal coordinates found in file.
 N,0,0.,0.,-0.0245458156
 N,0,0.,0.,1.0945458156
 Recover connectivity data from disk.

 GradGradGradGradGradGradGradGradGradGradGradGradGradGradGradGradGradGrad
 Berny optimization.
 Initialization pass.
                           ----------------------------
                           !    Initial Parameters    !
                           ! (Angstroms and Degrees)  !
 --------------------------                            --------------------------
 ! Name  Definition              Value          Derivative Info.                !
 --------------------------------------------------------------------------------
 ! R1    R(1,2)                  1.1191         estimate D2E/DX2                !
 --------------------------------------------------------------------------------
 Trust Radius=3.00D-01 FncErr=1.00D-07 GrdErr=1.00D-07
 Number of steps in this run=     20 maximum allowed number of steps=    100.
 GradGradGradGradGradGradGradGradGradGradGradGradGradGradGradGradGradGrad

                          Input orientation:                          
 ---------------------------------------------------------------------
 Center     Atomic      Atomic             Coordinates (Angstroms)
 Number     Number       Type             X           Y           Z
 ---------------------------------------------------------------------
      1          7           0        0.000000    0.000000   -0.024546
      2          7           0        0.000000    0.000000    1.094546
 ---------------------------------------------------------------------
 Stoichiometry    N2
 Framework group  D*H[C*(N.N)]
 Deg. of freedom     1
 Full point group                 D*H     NOp   8
 Largest Abelian subgroup         D2H     NOp   8
 Largest concise Abelian subgroup C2      NOp   2
                         Standard orientation:                         
 ---------------------------------------------------------------------
 Center     Atomic      Atomic             Coordinates (Angstroms)
 Number     Number       Type             X           Y           Z
 ---------------------------------------------------------------------
      1          7           0        0.000000    0.000000    0.559546
      2          7           0        0.000000    0.000000   -0.559546
 ---------------------------------------------------------------------
 Rotational constants (GHZ):      0.0000000     57.6358247     57.6358247
 Standard basis: 3-21G* (6D, 7F)
 There are     5 symmetry adapted cartesian basis functions of AG  symmetry.
 There are     0 symmetry adapted cartesian basis functions of B1G symmetry.
 There are     2 symmetry adapted cartesian basis functions of B2G symmetry.
 There are     2 symmetry adapted cartesian basis functions of B3G symmetry.
 There are     0 symmetry adapted cartesian basis functions of AU  symmetry.
 There are     5 symmetry adapted cartesian basis functions of B1U symmetry.
 There are     2 symmetry adapted cartesian basis functions of B2U symmetry.
 There are     2 symmetry adapted cartesian basis functions of B3U symmetry.
 There are     5 symmetry adapted basis functions of AG  symmetry.
 There are     0 symmetry adapted basis functions of B1G symmetry.
 There are     2 symmetry adapted basis functions of B2G symmetry.
 There are     2 symmetry adapted basis functions of B3G symmetry.
 There are     0 symmetry adapted basis functions of AU  symmetry.
 There are     5 symmetry adapted basis functions of B1U symmetry.
 There are     2 symmetry adapted basis functions of B2U symmetry.
 There are     2 symmetry adapted basis functions of B3U symmetry.
    18 basis functions,    30 primitive gaussians,    18 cartesian basis functions
     7 alpha electrons        7 beta electrons
       nuclear repulsion energy        23.1702949936 Hartrees.
 NAtoms=    2 NActive=    2 NUniq=    1 SFac= 4.00D+00 NAtFMM=   60 NAOKFM=F Big=F
 Integral buffers will be    131072 words long.
 Raffenetti 1 integral format.
 Two-electron integral symmetry is turned on.
 One-electron integrals computed using PRISM.
 NBasis=    18 RedAO= T EigKep=  2.56D-02  NBF=     5     0     2     2     0     5     2     2
 NBsUse=    18 1.00D-06 EigRej= -1.00D+00 NBFU=     5     0     2     2     0     5     2     2
 ExpMin= 2.83D-01 ExpMax= 2.43D+02 ExpMxC= 2.43D+02 IAcc=1 IRadAn=         1 AccDes= 0.00D+00
 Harris functional with IExCor=  205 and IRadAn=       1 diagonalized for initial guess.
 HarFok:  IExCor=  205 AccDes= 0.00D+00 IRadAn=         1 IDoV= 1 UseB2=F ITyADJ=14
 ICtDFT=  3500011 ScaDFX=  1.000000  1.000000  1.000000  1.000000
 FoFCou: FMM=F IPFlag=           0 FMFlag=      100000 FMFlg1=           0
         NFxFlg=           0 DoJE=T BraDBF=F KetDBF=T FulRan=T
         wScrn=  0.000000 ICntrl=     500 IOpCl=  0 I1Cent=   200000004 NGrid=           0
         NMat0=    1 NMatS0=      1 NMatT0=    0 NMatD0=    1 NMtDS0=    0 NMtDT0=    0
 Petite list used in FoFCou.
 Initial guess orbital symmetries:
       Occupied  (SGU) (SGG) (SGG) (SGU) (PIU) (PIU) (SGG)
       Virtual   (PIG) (PIG) (SGU) (SGG) (PIU) (PIU) (SGU) (PIG)
                 (PIG) (SGG) (SGU)
 The electronic state of the initial guess is 1-SGG.
 Keep R1 ints in memory in symmetry-blocked form, NReq=838596.
 Requested convergence on RMS density matrix=1.00D-08 within 128 cycles.
 Requested convergence on MAX density matrix=1.00D-06.
 Requested convergence on             energy=1.00D-06.
 No special actions if energy rises.
 SCF Done:  E(RHF) =  -108.297070013     A.U. after    8 cycles
            NFock=  8  Conv=0.66D-09     -V/T= 2.0041

 **********************************************************************

            Population analysis using the SCF density.

 **********************************************************************

 Orbital symmetries:
       Occupied  (SGG) (SGU) (SGG) (SGU) (SGG) (PIU) (PIU)
       Virtual   (PIG) (PIG) (SGU) (SGG) (PIU) (PIU) (PIG) (PIG)
                 (SGU) (SGG) (SGU)
 The electronic state is 1-SGG.
 Alpha  occ. eigenvalues --  -15.62159 -15.62135  -1.49081  -0.76885  -0.61169
 Alpha  occ. eigenvalues --   -0.60490  -0.60490
 Alpha virt. eigenvalues --    0.16576   0.16576   0.72495   1.22553   1.28379
 Alpha virt. eigenvalues --    1.28379   1.41265   1.41265   1.44111   1.85590
 Alpha virt. eigenvalues --    2.53534
          Condensed to atoms (all electrons):
               1          2
     1  N    6.563509   0.436491
     2  N    0.436491   6.563509
 Mulliken charges:
               1
     1  N    0.000000
     2  N    0.000000
 Sum of Mulliken charges =   0.00000
 Mulliken charges with hydrogens summed into heavy atoms:
               1
     1  N    0.000000
     2  N    0.000000
 Electronic spatial extent (au):  <R**2>=             39.8812
 Charge=              0.0000 electrons
 Dipole moment (field-independent basis, Debye):
    X=              0.0000    Y=              0.0000    Z=              0.0000  Tot=              0.0000
 Quadrupole moment (field-independent basis, Debye-Ang):
   XX=            -10.1184   YY=            -10.1184   ZZ=            -12.3510
   XY=              0.0000   XZ=              0.0000   YZ=              0.0000
 Traceless Quadrupole moment (field-independent basis, Debye-Ang):
   XX=              0.7442   YY=              0.7442   ZZ=             -1.4884
   XY=              0.0000   XZ=              0.0000   YZ=              0.0000
 Octapole moment (field-independent basis, Debye-Ang**2):
  XXX=              0.0000  YYY=              0.0000  ZZZ=              0.0000  XYY=              0.0000
  XXY=              0.0000  XXZ=              0.0000  XZZ=              0.0000  YZZ=              0.0000
  YYZ=              0.0000  XYZ=              0.0000
 Hexadecapole moment (field-independent basis, Debye-Ang**3):
 XXXX=             -7.4828 YYYY=             -7.4828 ZZZZ=            -30.3366 XXXY=              0.0000
 XXXZ=              0.0000 YYYX=              0.0000 YYYZ=              0.0000 ZZZX=              0.0000
 ZZZY=              0.0000 XXYY=             -2.4943 XXZZ=             -5.9071 YYZZ=             -5.9071
 XXYZ=              0.0000 YYXZ=              0.0000 ZZXY=              0.0000
 N-N= 2.317029499360D+01 E-N=-3.001397285427D+02  KE= 1.078531839540D+02
 Symmetry AG   KE= 5.300877169983D+01
 Symmetry B1G  KE= 0.000000000000D+00
 Symmetry B2G  KE=-8.033987248249D-33
 Symmetry B3G  KE=-5.995594242342D-33
 Symmetry AU   KE= 0.000000000000D+00
 Symmetry B1U  KE= 4.853359906843D+01
 Symmetry B2U  KE= 3.155406592891D+00
 Symmetry B3U  KE= 3.155406592891D+00
 Calling FoFJK, ICntrl=      2127 FMM=F ISym2X=1 I1Cent= 0 IOpClX= 0 NMat=1 NMatS=1 NMatT=0.
 ***** Axes restored to original set *****
 -------------------------------------------------------------------
 Center     Atomic                   Forces (Hartrees/Bohr)
 Number     Number              X              Y              Z
 -------------------------------------------------------------------
      1        7           0.000000000    0.000000000    0.108362316
      2        7           0.000000000    0.000000000   -0.108362316
 -------------------------------------------------------------------
 Cartesian Forces:  Max     0.108362316 RMS     0.062563012

 GradGradGradGradGradGradGradGradGradGradGradGradGradGradGradGradGradGrad
 Berny optimization.
 FormGI is forming the generalized inverse of G from B-inverse, IUseBI=4.
 Internal  Forces:  Max     0.108362316 RMS     0.108362316
 Search for a local minimum.
 Step number   1 out of a maximum of   20
 All quantities printed in internal units (Hartrees-Bohrs-Radians)
 Mixed Optimization -- RFO/linear search
 Second derivative matrix not updated -- first step.
 The second derivative matrix:
                          R1
           R1           1.58789
 ITU=  0
     Eigenvalues ---    1.58789
 RFO step:  Lambda=-7.36085182D-03 EMin= 1.58788815D+00
 Linear search not attempted -- first point.
 Iteration  1 RMS(Cart)=  0.04803246 RMS(Int)=  0.00000000
 Iteration  2 RMS(Cart)=  0.00000000 RMS(Int)=  0.00000000
 ClnCor:  largest displacement from symmetrization is 4.44D-16 for atom     2.
 Variable       Old X    -DE/DX   Delta X   Delta X   Delta X     New X
                                 (Linear)    (Quad)   (Total)
    R1        2.11478  -0.10836   0.00000  -0.06793  -0.06793   2.04685
         Item               Value     Threshold  Converged?
 Maximum Force            0.108362     0.000450     NO 
 RMS     Force            0.108362     0.000300     NO 
 Maximum Displacement     0.033964     0.001800     NO 
 RMS     Displacement     0.048032     0.001200     NO 
 Predicted change in Energy=-3.697408D-03
 GradGradGradGradGradGradGradGradGradGradGradGradGradGradGradGradGradGrad

                          Input orientation:                          
 ---------------------------------------------------------------------
 Center     Atomic      Atomic             Coordinates (Angstroms)
 Number     Number       Type             X           Y           Z
 ---------------------------------------------------------------------
      1          7           0        0.000000    0.000000   -0.006573
      2          7           0        0.000000    0.000000    1.076573
 ---------------------------------------------------------------------
 Stoichiometry    N2
 Framework group  D*H[C*(N.N)]
 Deg. of freedom     1
 Full point group                 D*H     NOp   8
 Largest Abelian subgroup         D2H     NOp   8
 Largest concise Abelian subgroup C2      NOp   2
                         Standard orientation:                         
 ---------------------------------------------------------------------
 Center     Atomic      Atomic             Coordinates (Angstroms)
 Number     Number       Type             X           Y           Z
 ---------------------------------------------------------------------
      1          7           0        0.000000    0.000000    0.541573
      2          7           0        0.000000    0.000000   -0.541573
 ---------------------------------------------------------------------
 Rotational constants (GHZ):      0.0000000     61.5247881     61.5247881
 Standard basis: 3-21G* (6D, 7F)
 There are     5 symmetry adapted cartesian basis functions of AG  symmetry.
 There are     0 symmetry adapted cartesian basis functions of B1G symmetry.
 There are     2 symmetry adapted cartesian basis functions of B2G symmetry.
 There are     2 symmetry adapted cartesian basis functions of B3G symmetry.
 There are     0 symmetry adapted cartesian basis functions of AU  symmetry.
 There are     5 symmetry adapted cartesian basis functions of B1U symmetry.
 There are     2 symmetry adapted cartesian basis functions of B2U symmetry.
 There are     2 symmetry adapted cartesian basis functions of B3U symmetry.
 There are     5 symmetry adapted basis functions of AG  symmetry.
 There are     0 symmetry adapted basis functions of B1G symmetry.
 There are     2 symmetry adapted basis functions of B2G symmetry.
 There are     2 symmetry adapted basis functions of B3G symmetry.
 There are     0 symmetry adapted basis functions of AU  symmetry.
 There are     5 symmetry adapted basis functions of B1U symmetry.
 There are     2 symmetry adapted basis functions of B2U symmetry.
 There are     2 symmetry adapted basis functions of B3U symmetry.
    18 basis functions,    30 primitive gaussians,    18 cartesian basis functions
     7 alpha electrons        7 beta electrons
       nuclear repulsion energy        23.9392406531 Hartrees.
 NAtoms=    2 NActive=    2 NUniq=    1 SFac= 4.00D+00 NAtFMM=   60 NAOKFM=F Big=F
 Integral buffers will be    131072 words long.
 Raffenetti 1 integral format.
 Two-electron integral symmetry is turned on.
 One-electron integrals computed using PRISM.
 NBasis=    18 RedAO= T EigKep=  2.19D-02  NBF=     5     0     2     2     0     5     2     2
 NBsUse=    18 1.00D-06 EigRej= -1.00D+00 NBFU=     5     0     2     2     0     5     2     2
 Initial guess from the checkpoint file:  "N2cbs4m.chk"
 B after Tr=     0.000000    0.000000    0.000000
         Rot=    1.000000    0.000000    0.000000    0.000000 Ang=   0.00 deg.
 Initial guess orbital symmetries:
       Occupied  (SGG) (SGU) (SGG) (SGU) (SGG) (PIU) (PIU)
       Virtual   (SGG) (SGG) (PIG) (PIG) (PIG) (PIG) (SGU) (SGU)
                 (SGU) (PIU) (PIU)
 ExpMin= 2.83D-01 ExpMax= 2.43D+02 ExpMxC= 2.43D+02 IAcc=1 IRadAn=         1 AccDes= 0.00D+00
 Harris functional with IExCor=  205 and IRadAn=       1 diagonalized for initial guess.
 HarFok:  IExCor=  205 AccDes= 0.00D+00 IRadAn=         1 IDoV= 1 UseB2=F ITyADJ=14
 ICtDFT=  3500011 ScaDFX=  1.000000  1.000000  1.000000  1.000000
 FoFCou: FMM=F IPFlag=           0 FMFlag=      100000 FMFlg1=           0
         NFxFlg=           0 DoJE=T BraDBF=F KetDBF=T FulRan=T
         wScrn=  0.000000 ICntrl=     500 IOpCl=  0 I1Cent=   200000004 NGrid=           0
         NMat0=    1 NMatS0=      1 NMatT0=    0 NMatD0=    1 NMtDS0=    0 NMtDT0=    0
 Petite list used in FoFCou.
 Keep R1 ints in memory in symmetry-blocked form, NReq=838596.
 Requested convergence on RMS density matrix=1.00D-08 within 128 cycles.
 Requested convergence on MAX density matrix=1.00D-06.
 Requested convergence on             energy=1.00D-06.
 No special actions if energy rises.
 SCF Done:  E(RHF) =  -108.300953248     A.U. after    7 cycles
            NFock=  7  Conv=0.65D-08     -V/T= 2.0020
 Calling FoFJK, ICntrl=      2127 FMM=F ISym2X=1 I1Cent= 0 IOpClX= 0 NMat=1 NMatS=1 NMatT=0.
 ***** Axes restored to original set *****
 -------------------------------------------------------------------
 Center     Atomic                   Forces (Hartrees/Bohr)
 Number     Number              X              Y              Z
 -------------------------------------------------------------------
      1        7           0.000000000    0.000000000    0.001060917
      2        7           0.000000000    0.000000000   -0.001060917
 -------------------------------------------------------------------
 Cartesian Forces:  Max     0.001060917 RMS     0.000612521

 GradGradGradGradGradGradGradGradGradGradGradGradGradGradGradGradGradGrad
 Berny optimization.
 Using GEDIIS/GDIIS optimizer.
 Internal  Forces:  Max     0.001060917 RMS     0.001060917
 Search for a local minimum.
 Step number   2 out of a maximum of   20
 All quantities printed in internal units (Hartrees-Bohrs-Radians)
 Mixed Optimization -- RFO/linear search
 Update second derivatives using D2CorX and points    1    2
 DE= -3.88D-03 DEPred=-3.70D-03 R= 1.05D+00
 TightC=F SS=  1.41D+00  RLast= 6.79D-02 DXNew= 5.0454D-01 2.0378D-01
 Trust test= 1.05D+00 RLast= 6.79D-02 DXMaxT set to 3.00D-01
 The second derivative matrix:
                          R1
           R1           1.57963
 ITU=  1  0
 Use linear search instead of GDIIS.
     Eigenvalues ---    1.57963
 RFO step:  Lambda= 0.00000000D+00 EMin= 1.57963078D+00
 Quartic linear search produced a step of  0.00866.
 Iteration  1 RMS(Cart)=  0.00041597 RMS(Int)=  0.00000000
 Iteration  2 RMS(Cart)=  0.00000000 RMS(Int)=  0.00000000
 ClnCor:  largest displacement from symmetrization is 1.80D-20 for atom     1.
 Variable       Old X    -DE/DX   Delta X   Delta X   Delta X     New X
                                 (Linear)    (Quad)   (Total)
    R1        2.04685  -0.00106  -0.00059   0.00000  -0.00059   2.04626
         Item               Value     Threshold  Converged?
 Maximum Force            0.001061     0.000450     NO 
 RMS     Force            0.001061     0.000300     NO 
 Maximum Displacement     0.000294     0.001800     YES
 RMS     Displacement     0.000416     0.001200     YES
 Predicted change in Energy=-3.507801D-07
 GradGradGradGradGradGradGradGradGradGradGradGradGradGradGradGradGradGrad

                          Input orientation:                          
 ---------------------------------------------------------------------
 Center     Atomic      Atomic             Coordinates (Angstroms)
 Number     Number       Type             X           Y           Z
 ---------------------------------------------------------------------
      1          7           0        0.000000    0.000000   -0.006417
      2          7           0        0.000000    0.000000    1.076417
 ---------------------------------------------------------------------
 Stoichiometry    N2
 Framework group  D*H[C*(N.N)]
 Deg. of freedom     1
 Full point group                 D*H     NOp   8
 Largest Abelian subgroup         D2H     NOp   8
 Largest concise Abelian subgroup C2      NOp   2
                         Standard orientation:                         
 ---------------------------------------------------------------------
 Center     Atomic      Atomic             Coordinates (Angstroms)
 Number     Number       Type             X           Y           Z
 ---------------------------------------------------------------------
      1          7           0        0.000000    0.000000    0.541417
      2          7           0        0.000000    0.000000   -0.541417
 ---------------------------------------------------------------------
 Rotational constants (GHZ):      0.0000000     61.5601678     61.5601678
 Standard basis: 3-21G* (6D, 7F)
 There are     5 symmetry adapted cartesian basis functions of AG  symmetry.
 There are     0 symmetry adapted cartesian basis functions of B1G symmetry.
 There are     2 symmetry adapted cartesian basis functions of B2G symmetry.
 There are     2 symmetry adapted cartesian basis functions of B3G symmetry.
 There are     0 symmetry adapted cartesian basis functions of AU  symmetry.
 There are     5 symmetry adapted cartesian basis functions of B1U symmetry.
 There are     2 symmetry adapted cartesian basis functions of B2U symmetry.
 There are     2 symmetry adapted cartesian basis functions of B3U symmetry.
 There are     5 symmetry adapted basis functions of AG  symmetry.
 There are     0 symmetry adapted basis functions of B1G symmetry.
 There are     2 symmetry adapted basis functions of B2G symmetry.
 There are     2 symmetry adapted basis functions of B3G symmetry.
 There are     0 symmetry adapted basis functions of AU  symmetry.
 There are     5 symmetry adapted basis functions of B1U symmetry.
 There are     2 symmetry adapted basis functions of B2U symmetry.
 There are     2 symmetry adapted basis functions of B3U symmetry.
    18 basis functions,    30 primitive gaussians,    18 cartesian basis functions
     7 alpha electrons        7 beta electrons
       nuclear repulsion energy        23.9461227631 Hartrees.
 NAtoms=    2 NActive=    2 NUniq=    1 SFac= 4.00D+00 NAtFMM=   60 NAOKFM=F Big=F
 Integral buffers will be    131072 words long.
 Raffenetti 1 integral format.
 Two-electron integral symmetry is turned on.
 One-electron integrals computed using PRISM.
 NBasis=    18 RedAO= T EigKep=  2.18D-02  NBF=     5     0     2     2     0     5     2     2
 NBsUse=    18 1.00D-06 EigRej= -1.00D+00 NBFU=     5     0     2     2     0     5     2     2
 Initial guess from the checkpoint file:  "N2cbs4m.chk"
 B after Tr=     0.000000    0.000000    0.000000
         Rot=    1.000000    0.000000    0.000000    0.000000 Ang=   0.00 deg.
 Initial guess orbital symmetries:
       Occupied  (SGG) (SGU) (SGG) (SGU) (PIU) (PIU) (SGG)
       Virtual   (SGG) (SGG) (PIG) (PIG) (PIG) (PIG) (SGU) (SGU)
                 (SGU) (PIU) (PIU)
 Keep R1 ints in memory in symmetry-blocked form, NReq=838596.
 Requested convergence on RMS density matrix=1.00D-08 within 128 cycles.
 Requested convergence on MAX density matrix=1.00D-06.
 Requested convergence on             energy=1.00D-06.
 No special actions if energy rises.
 SCF Done:  E(RHF) =  -108.300953559     A.U. after    6 cycles
            NFock=  6  Conv=0.32D-09     -V/T= 2.0020
 Calling FoFJK, ICntrl=      2127 FMM=F ISym2X=1 I1Cent= 0 IOpClX= 0 NMat=1 NMatS=1 NMatT=0.
 ***** Axes restored to original set *****
 -------------------------------------------------------------------
 Center     Atomic                   Forces (Hartrees/Bohr)
 Number     Number              X              Y              Z
 -------------------------------------------------------------------
      1        7           0.000000000    0.000000000   -0.000001719
      2        7           0.000000000    0.000000000    0.000001719
 -------------------------------------------------------------------
 Cartesian Forces:  Max     0.000001719 RMS     0.000000992

 GradGradGradGradGradGradGradGradGradGradGradGradGradGradGradGradGradGrad
 Berny optimization.
 Using GEDIIS/GDIIS optimizer.
 Internal  Forces:  Max     0.000001719 RMS     0.000001719
 Search for a local minimum.
 Step number   3 out of a maximum of   20
 All quantities printed in internal units (Hartrees-Bohrs-Radians)
 Mixed Optimization -- En-DIIS/RFO-DIIS
 Update second derivatives using D2CorX and points    3
 DE= -3.12D-07 DEPred=-3.51D-07 R= 8.88D-01
 Trust test= 8.88D-01 RLast= 5.88D-04 DXMaxT set to 3.00D-01
 The second derivative matrix:
                          R1
           R1           1.57963
 ITU=  0  1
 Use linear search instead of GDIIS.
     Eigenvalues ---    1.57963
 RFO step:  Lambda= 0.00000000D+00 EMin= 1.57963078D+00
 Quartic linear search produced a step of -0.00162.
 Iteration  1 RMS(Cart)=  0.00000067 RMS(Int)=  0.00000000
 ClnCor:  largest displacement from symmetrization is 2.91D-23 for atom     1.
 Variable       Old X    -DE/DX   Delta X   Delta X   Delta X     New X
                                 (Linear)    (Quad)   (Total)
    R1        2.04626   0.00000   0.00000   0.00000   0.00000   2.04626
         Item               Value     Threshold  Converged?
 Maximum Force            0.000002     0.000450     YES
 RMS     Force            0.000002     0.000300     YES
 Maximum Displacement     0.000000     0.001800     YES
 RMS     Displacement     0.000001     0.001200     YES
 Predicted change in Energy=-9.200626D-13
 Optimization completed.
    -- Stationary point found.
                           ----------------------------
                           !   Optimized Parameters   !
                           ! (Angstroms and Degrees)  !
 --------------------------                            --------------------------
 ! Name  Definition              Value          Derivative Info.                !
 --------------------------------------------------------------------------------
 ! R1    R(1,2)                  1.0828         -DE/DX =    0.0                 !
 --------------------------------------------------------------------------------
 GradGradGradGradGradGradGradGradGradGradGradGradGradGradGradGradGradGrad

                          Input orientation:                          
 ---------------------------------------------------------------------
 Center     Atomic      Atomic             Coordinates (Angstroms)
 Number     Number       Type             X           Y           Z
 ---------------------------------------------------------------------
      1          7           0        0.000000    0.000000   -0.006417
      2          7           0        0.000000    0.000000    1.076417
 ---------------------------------------------------------------------
 Stoichiometry    N2
 Framework group  D*H[C*(N.N)]
 Deg. of freedom     1
 Full point group                 D*H     NOp   8
 Largest Abelian subgroup         D2H     NOp   8
 Largest concise Abelian subgroup C2      NOp   2
                         Standard orientation:                         
 ---------------------------------------------------------------------
 Center     Atomic      Atomic             Coordinates (Angstroms)
 Number     Number       Type             X           Y           Z
 ---------------------------------------------------------------------
      1          7           0        0.000000    0.000000    0.541417
      2          7           0        0.000000    0.000000   -0.541417
 ---------------------------------------------------------------------
 Rotational constants (GHZ):      0.0000000     61.5601678     61.5601678

 **********************************************************************

            Population analysis using the SCF density.

 **********************************************************************

 Orbital symmetries:
       Occupied  (SGG) (SGU) (SGG) (SGU) (PIU) (PIU) (SGG)
       Virtual   (PIG) (PIG) (SGU) (SGG) (PIU) (PIU) (PIG) (PIG)
                 (SGU) (SGG) (SGU)
 The electronic state is 1-SGG.
 Alpha  occ. eigenvalues --  -15.61029 -15.60937  -1.51914  -0.75676  -0.61965
 Alpha  occ. eigenvalues --   -0.61965  -0.61627
 Alpha virt. eigenvalues --    0.18604   0.18604   0.76210   1.19303   1.27669
 Alpha virt. eigenvalues --    1.27669   1.42212   1.42212   1.49550   1.84465
 Alpha virt. eigenvalues --    2.58431
          Condensed to atoms (all electrons):
               1          2
     1  N    6.562873   0.437127
     2  N    0.437127   6.562873
 Mulliken charges:
               1
     1  N    0.000000
     2  N    0.000000
 Sum of Mulliken charges =   0.00000
 Mulliken charges with hydrogens summed into heavy atoms:
               1
     1  N    0.000000
     2  N    0.000000
 Electronic spatial extent (au):  <R**2>=             38.6618
 Charge=              0.0000 electrons
 Dipole moment (field-independent basis, Debye):
    X=              0.0000    Y=              0.0000    Z=              0.0000  Tot=              0.0000
 Quadrupole moment (field-independent basis, Debye-Ang):
   XX=            -10.0015   YY=            -10.0015   ZZ=            -12.2868
   XY=              0.0000   XZ=              0.0000   YZ=              0.0000
 Traceless Quadrupole moment (field-independent basis, Debye-Ang):
   XX=              0.7618   YY=              0.7618   ZZ=             -1.5236
   XY=              0.0000   XZ=              0.0000   YZ=              0.0000
 Octapole moment (field-independent basis, Debye-Ang**2):
  XXX=              0.0000  YYY=              0.0000  ZZZ=              0.0000  XYY=              0.0000
  XXY=              0.0000  XXZ=              0.0000  XZZ=              0.0000  YZZ=              0.0000
  YYZ=              0.0000  XYZ=              0.0000
 Hexadecapole moment (field-independent basis, Debye-Ang**3):
 XXXX=             -7.3445 YYYY=             -7.3445 ZZZZ=            -28.8756 XXXY=              0.0000
 XXXZ=              0.0000 YYYX=              0.0000 YYYZ=              0.0000 ZZZX=              0.0000
 ZZZY=              0.0000 XXYY=             -2.4482 XXZZ=             -5.6596 YYZZ=             -5.6596
 XXYZ=              0.0000 YYXZ=              0.0000 ZZXY=              0.0000
 N-N= 2.394612276311D+01 E-N=-3.018782385876D+02  KE= 1.080863255902D+02
 Symmetry AG   KE= 5.319824543809D+01
 Symmetry B1G  KE= 0.000000000000D+00
 Symmetry B2G  KE= 1.186901287511D-33
 Symmetry B3G  KE= 2.466812939298D-34
 Symmetry AU   KE= 0.000000000000D+00
 Symmetry B1U  KE= 4.849479189941D+01
 Symmetry B2U  KE= 3.196644126345D+00
 Symmetry B3U  KE= 3.196644126345D+00
 1\1\GINC-TC-NODE161\FOpt\RHF\3-21G*\N2\MAXB2\25-Oct-2016\0\\# cbs-4m g
 eom=allcheck\\Title Card Required\\0,1\N,0.,0.,-0.0064171529\N,0.,0.,1
 .0764171529\\Version=ES64L-G09RevD.01\State=1-SGG\HF=-108.3009536\RMSD
 =3.158e-10\RMSF=9.923e-07\Dipole=0.,0.,0.\Quadrupole=0.5663634,0.56636
 34,-1.1327267,0.,0.,0.\PG=D*H [C*(N1.N1)]\\@


 Spring appears, and we are once more children.
                                  -- Anonymous
 Job cpu time:       0 days  0 hours  0 minutes 21.9 seconds.
 File lengths (MBytes):  RWF=      5 Int=      0 D2E=      0 Chk=      2 Scr=      1
 Normal termination of Gaussian 09 at Tue Oct 25 12:13:48 2016.
 Link1:  Proceeding to internal job step number  2.
 -------------------------------------------------------
 #N Geom=AllCheck Guess=TCheck SCRF=Check HF/3-21G* Freq
 -------------------------------------------------------
 1/10=4,29=7,30=1,38=1,40=1/1,3;
 2/12=2,40=1/2;
 3/5=5,7=1,11=9,14=-4,16=1,25=1,30=1,70=2,71=2,116=-2,140=1/1,2,3;
 4/5=101/1;
 5/5=2,98=1/2;
 8/6=4,10=90,11=11/1;
 10/13=10,15=4/2;
 11/6=3,8=1,9=11,15=111,16=1/1,2,10;
 10/6=1/2;
 6/7=2,8=2,9=2,10=2,18=1,28=1/1;
 7/8=1,10=1,25=1/1,2,3,16;
 1/10=4,30=1/3;
 99//99;
 Structure from the checkpoint file:  "N2cbs4m.chk"
 -------------------
 Title Card Required
 -------------------
 Charge =  0 Multiplicity = 1
 Redundant internal coordinates found in file.
 N,0,0.,0.,-0.0064171529
 N,0,0.,0.,1.0764171529
 Recover connectivity data from disk.

 GradGradGradGradGradGradGradGradGradGradGradGradGradGradGradGradGradGrad
 Berny optimization.
 Initialization pass.
                           ----------------------------
                           !    Initial Parameters    !
                           ! (Angstroms and Degrees)  !
 --------------------------                            --------------------------
 ! Name  Definition              Value          Derivative Info.                !
 --------------------------------------------------------------------------------
 ! R1    R(1,2)                  1.0828         calculate D2E/DX2 analytically  !
 --------------------------------------------------------------------------------
 Trust Radius=3.00D-01 FncErr=1.00D-07 GrdErr=1.00D-07
 Number of steps in this run=      2 maximum allowed number of steps=      2.
 GradGradGradGradGradGradGradGradGradGradGradGradGradGradGradGradGradGrad

                          Input orientation:                          
 ---------------------------------------------------------------------
 Center     Atomic      Atomic             Coordinates (Angstroms)
 Number     Number       Type             X           Y           Z
 ---------------------------------------------------------------------
      1          7           0        0.000000    0.000000   -0.006417
      2          7           0        0.000000    0.000000    1.076417
 ---------------------------------------------------------------------
 Stoichiometry    N2
 Framework group  D*H[C*(N.N)]
 Deg. of freedom     1
 Full point group                 D*H     NOp   8
 Largest Abelian subgroup         D2H     NOp   8
 Largest concise Abelian subgroup C2      NOp   2
                         Standard orientation:                         
 ---------------------------------------------------------------------
 Center     Atomic      Atomic             Coordinates (Angstroms)
 Number     Number       Type             X           Y           Z
 ---------------------------------------------------------------------
      1          7           0        0.000000    0.000000    0.541417
      2          7           0        0.000000    0.000000   -0.541417
 ---------------------------------------------------------------------
 Rotational constants (GHZ):      0.0000000     61.5601678     61.5601678
 Standard basis: 3-21G* (6D, 7F)
 There are     5 symmetry adapted cartesian basis functions of AG  symmetry.
 There are     0 symmetry adapted cartesian basis functions of B1G symmetry.
 There are     2 symmetry adapted cartesian basis functions of B2G symmetry.
 There are     2 symmetry adapted cartesian basis functions of B3G symmetry.
 There are     0 symmetry adapted cartesian basis functions of AU  symmetry.
 There are     5 symmetry adapted cartesian basis functions of B1U symmetry.
 There are     2 symmetry adapted cartesian basis functions of B2U symmetry.
 There are     2 symmetry adapted cartesian basis functions of B3U symmetry.
 There are     5 symmetry adapted basis functions of AG  symmetry.
 There are     0 symmetry adapted basis functions of B1G symmetry.
 There are     2 symmetry adapted basis functions of B2G symmetry.
 There are     2 symmetry adapted basis functions of B3G symmetry.
 There are     0 symmetry adapted basis functions of AU  symmetry.
 There are     5 symmetry adapted basis functions of B1U symmetry.
 There are     2 symmetry adapted basis functions of B2U symmetry.
 There are     2 symmetry adapted basis functions of B3U symmetry.
    18 basis functions,    30 primitive gaussians,    18 cartesian basis functions
     7 alpha electrons        7 beta electrons
       nuclear repulsion energy        23.9461227631 Hartrees.
 NAtoms=    2 NActive=    2 NUniq=    1 SFac= 4.00D+00 NAtFMM=   60 NAOKFM=F Big=F
 Integral buffers will be    131072 words long.
 Raffenetti 1 integral format.
 Two-electron integral symmetry is turned on.
 One-electron integrals computed using PRISM.
 NBasis=    18 RedAO= T EigKep=  2.18D-02  NBF=     5     0     2     2     0     5     2     2
 NBsUse=    18 1.00D-06 EigRej= -1.00D+00 NBFU=     5     0     2     2     0     5     2     2
 Initial guess from the checkpoint file:  "N2cbs4m.chk"
 B after Tr=     0.000000    0.000000    0.000000
         Rot=    1.000000    0.000000    0.000000    0.000000 Ang=   0.00 deg.
 Initial guess orbital symmetries:
       Occupied  (SGG) (SGU) (SGG) (SGU) (PIU) (PIU) (SGG)
       Virtual   (PIG) (PIG) (SGU) (SGG) (PIU) (PIU) (PIG) (PIG)
                 (SGU) (SGG) (SGU)
 Keep R1 ints in memory in symmetry-blocked form, NReq=838596.
 Requested convergence on RMS density matrix=1.00D-08 within 128 cycles.
 Requested convergence on MAX density matrix=1.00D-06.
 Requested convergence on             energy=1.00D-06.
 No special actions if energy rises.
 Skip diagonalization as Alpha Fock matrix is already diagonal.
 SCF Done:  E(RHF) =  -108.300953559     A.U. after    1 cycles
            NFock=  1  Conv=0.00D+00     -V/T= 2.0020
 Range of M.O.s used for correlation:     1    18
 NBasis=    18 NAE=     7 NBE=     7 NFC=     0 NFV=     0
 NROrb=     18 NOA=     7 NOB=     7 NVA=    11 NVB=    11
          Differentiating once with respect to electric field.
                with respect to dipole field.
          Electric field/nuclear overlap derivatives assumed to be zero.
 Keep R1 ints in memory in symmetry-blocked form, NReq=819870.
          There are     3 degrees of freedom in the 1st order CPHF.  IDoFFX=0 NUNeed=     3.
      3 vectors produced by pass  0 Test12= 2.57D-15 3.33D-08 XBig12= 4.45D+00 1.39D+00.
 AX will form     3 AO Fock derivatives at one time.
      3 vectors produced by pass  1 Test12= 2.57D-15 3.33D-08 XBig12= 5.89D-01 4.30D-01.
      3 vectors produced by pass  2 Test12= 2.57D-15 3.33D-08 XBig12= 7.19D-03 4.28D-02.
      3 vectors produced by pass  3 Test12= 2.57D-15 3.33D-08 XBig12= 7.34D-05 5.69D-03.
      3 vectors produced by pass  4 Test12= 2.57D-15 3.33D-08 XBig12= 2.67D-07 2.07D-04.
      3 vectors produced by pass  5 Test12= 2.57D-15 3.33D-08 XBig12= 1.19D-09 1.70D-05.
      1 vectors produced by pass  6 Test12= 2.57D-15 3.33D-08 XBig12= 2.54D-12 8.60D-07.
      1 vectors produced by pass  7 Test12= 2.57D-15 3.33D-08 XBig12= 4.72D-15 4.04D-08.
 InvSVY:  IOpt=1 It=  1 EMax= 1.11D-16
 Solved reduced A of dimension    20 with     3 vectors.
 End of Minotr F.D. properties file   721 does not exist.
 End of Minotr F.D. properties file   722 does not exist.
 End of Minotr F.D. properties file   788 does not exist.
 Symmetrizing basis deriv contribution to polar:
 IMax=3 JMax=2 DiffMx= 0.00D+00
 G2DrvN: will do     3 centers at a time, making    1 passes.
 PxScal for G2LodP:  IOpCl= 0 ISclPx=1 IMOff=     1 NMtTot=     4 NTT=     171 ScalPx= 1.17D+00
 Calling FoFCou, ICntrl=  3107 FMM=F I1Cent=   0 AccDes= 0.00D+00.
 End of G2Drv F.D. properties file   721 does not exist.
 End of G2Drv F.D. properties file   722 does not exist.
 End of G2Drv F.D. properties file   788 does not exist.
          IDoAtm=11
          Differentiating once with respect to electric field.
                with respect to dipole field.
          Differentiating once with respect to nuclear coordinates.
 Keep R1 ints in memory in symmetry-blocked form, NReq=819916.
          There are     6 degrees of freedom in the 1st order CPHF.  IDoFFX=4 NUNeed=     6.
 Will reuse    3 saved solutions.
      3 vectors produced by pass  0 Test12= 1.28D-15 1.67D-08 XBig12= 7.45D-02 1.60D-01.
 AX will form     3 AO Fock derivatives at one time.
      3 vectors produced by pass  1 Test12= 1.28D-15 1.67D-08 XBig12= 2.80D-03 3.30D-02.
      3 vectors produced by pass  2 Test12= 1.28D-15 1.67D-08 XBig12= 9.29D-06 2.05D-03.
      3 vectors produced by pass  3 Test12= 1.28D-15 1.67D-08 XBig12= 2.51D-08 1.12D-04.
      3 vectors produced by pass  4 Test12= 1.28D-15 1.67D-08 XBig12= 7.44D-11 5.52D-06.
      3 vectors produced by pass  5 Test12= 1.28D-15 1.67D-08 XBig12= 3.16D-13 3.07D-07.
      1 vectors produced by pass  6 Test12= 1.28D-15 1.67D-08 XBig12= 1.99D-15 2.47D-08.
 InvSVY:  IOpt=1 It=  1 EMax= 4.44D-16
 Solved reduced A of dimension    19 with     3 vectors.
 Isotropic polarizability for W=    0.000000        6.73 Bohr**3.
 End of Minotr F.D. properties file   721 does not exist.
 End of Minotr F.D. properties file   722 does not exist.
 End of Minotr F.D. properties file   788 does not exist.

 **********************************************************************

            Population analysis using the SCF density.

 **********************************************************************

 Orbital symmetries:
       Occupied  (SGG) (SGU) (SGG) (SGU) (PIU) (PIU) (SGG)
       Virtual   (PIG) (PIG) (SGU) (SGG) (PIU) (PIU) (PIG) (PIG)
                 (SGU) (SGG) (SGU)
 The electronic state is 1-SGG.
 Alpha  occ. eigenvalues --  -15.61029 -15.60937  -1.51914  -0.75676  -0.61965
 Alpha  occ. eigenvalues --   -0.61965  -0.61627
 Alpha virt. eigenvalues --    0.18604   0.18604   0.76210   1.19303   1.27669
 Alpha virt. eigenvalues --    1.27669   1.42212   1.42212   1.49550   1.84465
 Alpha virt. eigenvalues --    2.58431
          Condensed to atoms (all electrons):
               1          2
     1  N    6.562873   0.437127
     2  N    0.437127   6.562873
 Mulliken charges:
               1
     1  N    0.000000
     2  N    0.000000
 Sum of Mulliken charges =   0.00000
 Mulliken charges with hydrogens summed into heavy atoms:
               1
     1  N    0.000000
     2  N    0.000000
 APT charges:
               1
     1  N    0.000000
     2  N    0.000000
 Sum of APT charges =   0.00000
 APT charges with hydrogens summed into heavy atoms:
               1
     1  N    0.000000
     2  N    0.000000
 Electronic spatial extent (au):  <R**2>=             38.6618
 Charge=              0.0000 electrons
 Dipole moment (field-independent basis, Debye):
    X=              0.0000    Y=              0.0000    Z=              0.0000  Tot=              0.0000
 Quadrupole moment (field-independent basis, Debye-Ang):
   XX=            -10.0015   YY=            -10.0015   ZZ=            -12.2868
   XY=              0.0000   XZ=              0.0000   YZ=              0.0000
 Traceless Quadrupole moment (field-independent basis, Debye-Ang):
   XX=              0.7618   YY=              0.7618   ZZ=             -1.5236
   XY=              0.0000   XZ=              0.0000   YZ=              0.0000
 Octapole moment (field-independent basis, Debye-Ang**2):
  XXX=              0.0000  YYY=              0.0000  ZZZ=              0.0000  XYY=              0.0000
  XXY=              0.0000  XXZ=              0.0000  XZZ=              0.0000  YZZ=              0.0000
  YYZ=              0.0000  XYZ=              0.0000
 Hexadecapole moment (field-independent basis, Debye-Ang**3):
 XXXX=             -7.3445 YYYY=             -7.3445 ZZZZ=            -28.8756 XXXY=              0.0000
 XXXZ=              0.0000 YYYX=              0.0000 YYYZ=              0.0000 ZZZX=              0.0000
 ZZZY=              0.0000 XXYY=             -2.4482 XXZZ=             -5.6596 YYZZ=             -5.6596
 XXYZ=              0.0000 YYXZ=              0.0000 ZZXY=              0.0000
 N-N= 2.394612276311D+01 E-N=-3.018782385876D+02  KE= 1.080863255902D+02
 Symmetry AG   KE= 5.319824543809D+01
 Symmetry B1G  KE= 0.000000000000D+00
 Symmetry B2G  KE= 1.186901287511D-33
 Symmetry B3G  KE= 2.364805797665D-34
 Symmetry AU   KE= 0.000000000000D+00
 Symmetry B1U  KE= 4.849479189941D+01
 Symmetry B2U  KE= 3.196644126345D+00
 Symmetry B3U  KE= 3.196644126345D+00
  Exact polarizability:   3.997   0.000   3.997   0.000   0.000  12.206
 Approx polarizability:   3.187   0.000   3.187   0.000   0.000  15.920
 Calling FoFJK, ICntrl=    100127 FMM=F ISym2X=1 I1Cent= 0 IOpClX= 0 NMat=1 NMatS=1 NMatT=0.
 Full mass-weighted force constant matrix:
 Low frequencies ---   -1.8312   -1.8312   -0.0019   -0.0010   -0.0010 2612.5516
 Diagonal vibrational polarizability:
        0.0000000       0.0000000       0.0000000
 Diagonal vibrational hyperpolarizability:
        0.0000000       0.0000000       0.0000000
 Harmonic frequencies (cm**-1), IR intensities (KM/Mole), Raman scattering
 activities (A**4/AMU), depolarization ratios for plane and unpolarized
 incident light, reduced masses (AMU), force constants (mDyne/A),
 and normal coordinates:
                      1
                     SGG
 Frequencies --   2612.5516
 Red. masses --     14.0031
 Frc consts  --     56.3123
 IR Inten    --      0.0000
 Raman Activ --     12.5408
 Depolar (P) --      0.3004
 Depolar (U) --      0.4620
  Atom  AN      X      Y      Z
     1   7     0.00   0.00   0.71
     2   7     0.00   0.00  -0.71

 -------------------
 - Thermochemistry -
 -------------------
 Temperature   298.150 Kelvin.  Pressure   1.00000 Atm.
 Atom     1 has atomic number  7 and mass  14.00307
 Atom     2 has atomic number  7 and mass  14.00307
 Molecular mass:    28.00615 amu.
 Principal axes and moments of inertia in atomic units:
                           1         2         3
     Eigenvalues --     0.00000  29.31670  29.31670
           X            0.00000   1.00000   0.00000
           Y            0.00000   0.00000   1.00000
           Z            1.00000   0.00000   0.00000
 This molecule is a prolate symmetric top.
 Rotational symmetry number  2.
 Rotational temperature (Kelvin)      2.95442
 Rotational constant (GHZ):          61.560168
 Zero-point vibrational energy      15626.5 (Joules/Mol)
                                    3.73483 (Kcal/Mol)
 Vibrational temperatures:   3758.87
          (Kelvin)
 
 Zero-point correction=                           0.005952 (Hartree/Particle)
 Thermal correction to Energy=                    0.008312
 Thermal correction to Enthalpy=                  0.009257
 Thermal correction to Gibbs Free Energy=        -0.012459
 Sum of electronic and zero-point Energies=           -108.295002
 Sum of electronic and thermal Energies=              -108.292641
 Sum of electronic and thermal Enthalpies=            -108.291697
 Sum of electronic and thermal Free Energies=         -108.313412
 
                     E (Thermal)             CV                S
                      KCal/Mol        Cal/Mol-Kelvin    Cal/Mol-Kelvin
 Total                    5.216              4.969             45.704
 Electronic               0.000              0.000              0.000
 Translational            0.889              2.981             35.924
 Rotational               0.592              1.987              9.779
 Vibrational              3.735              0.001              0.000
                       Q            Log10(Q)             Ln(Q)
 Total Bot       0.537803D+06          5.730623         13.195248
 Total V=0       0.293947D+09          8.468270         19.498911
 Vib (Bot)       0.182960D-02         -2.737645         -6.303660
 Vib (V=0)       0.100000D+01          0.000001          0.000003
 Electronic      0.100000D+01          0.000000          0.000000
 Translational   0.582553D+07          6.765335         15.577760
 Rotational      0.504583D+02          1.702933          3.921148
 ***** Axes restored to original set *****
 -------------------------------------------------------------------
 Center     Atomic                   Forces (Hartrees/Bohr)
 Number     Number              X              Y              Z
 -------------------------------------------------------------------
      1        7           0.000000000    0.000000000   -0.000001719
      2        7           0.000000000    0.000000000    0.000001719
 -------------------------------------------------------------------
 Cartesian Forces:  Max     0.000001719 RMS     0.000000992
 FormGI is forming the generalized inverse of G from B-inverse, IUseBI=4.

 GradGradGradGradGradGradGradGradGradGradGradGradGradGradGradGradGradGrad
 Berny optimization.
 Internal  Forces:  Max     0.000001719 RMS     0.000001719
 Search for a local minimum.
 Step number   1 out of a maximum of    2
 All quantities printed in internal units (Hartrees-Bohrs-Radians)
 Second derivative matrix not updated -- analytic derivatives used.
 The second derivative matrix:
                          R1
           R1           1.80848
 ITU=  0
     Eigenvalues ---    1.80848
 Angle between quadratic step and forces=   0.00 degrees.
 Linear search not attempted -- first point.
 Iteration  1 RMS(Cart)=  0.00000067 RMS(Int)=  0.00000000
 ClnCor:  largest displacement from symmetrization is 2.91D-23 for atom     1.
 Variable       Old X    -DE/DX   Delta X   Delta X   Delta X     New X
                                 (Linear)    (Quad)   (Total)
    R1        2.04626   0.00000   0.00000   0.00000   0.00000   2.04626
         Item               Value     Threshold  Converged?
 Maximum Force            0.000002     0.000450     YES
 RMS     Force            0.000002     0.000300     YES
 Maximum Displacement     0.000000     0.001800     YES
 RMS     Displacement     0.000001     0.001200     YES
 Predicted change in Energy=-8.166812D-13
 Optimization completed.
    -- Stationary point found.
                           ----------------------------
                           !   Optimized Parameters   !
                           ! (Angstroms and Degrees)  !
 --------------------------                            --------------------------
 ! Name  Definition              Value          Derivative Info.                !
 --------------------------------------------------------------------------------
 ! R1    R(1,2)                  1.0828         -DE/DX =    0.0                 !
 --------------------------------------------------------------------------------
 GradGradGradGradGradGradGradGradGradGradGradGradGradGradGradGradGradGrad

 1\1\GINC-TC-NODE161\Freq\RHF\3-21G*\N2\MAXB2\25-Oct-2016\0\\#N Geom=Al
 lCheck Guess=TCheck SCRF=Check HF/3-21G* Freq\\Title Card Required\\0,
 1\N,0.,0.,-0.0064171529\N,0.,0.,1.0764171529\\Version=ES64L-G09RevD.01
 \State=1-SGG\HF=-108.3009536\RMSD=0.000e+00\RMSF=9.923e-07\ZeroPoint=0
 .0059518\Thermal=0.0083123\Dipole=0.,0.,0.\DipoleDeriv=0.,0.,0.,0.,0.,
 0.,0.,0.,0.,0.,0.,0.,0.,0.,0.,0.,0.,0.\Polar=3.9965593,0.,3.9965593,0.
 ,0.,12.2057947\PolarDeriv=0.,0.,0.,-4.0118238,0.,0.,0.,0.,0.,0.,-4.011
 8238,0.,-0.2920839,0.,-0.2920839,0.,0.,-9.5770617,0.,0.,0.,4.0118238,0
 .,0.,0.,0.,0.,0.,4.0118238,0.,0.2920839,0.,0.2920839,0.,0.,9.5770617\H
 yperPolar=0.,0.,0.,0.,0.,0.,0.,0.,0.,0.\PG=D*H [C*(N1.N1)]\NImag=0\\-0
 .00000089,0.,-0.00000089,0.,0.,1.80848360,0.00000089,0.,0.,-0.00000089
 ,0.,0.00000089,0.,0.,-0.00000089,0.,0.,-1.80848360,0.,0.,1.80848360\\0
 .,0.,0.00000172,0.,0.,-0.00000172\\\@


 IN-LAWS ARE LIKE SEEDS. YOU DON'T NEED THEM
 BUT THEY COME WITH THE TOMATO.
 Job cpu time:       0 days  0 hours  0 minutes 12.6 seconds.
 File lengths (MBytes):  RWF=      5 Int=      0 D2E=      0 Chk=      2 Scr=      1
 Normal termination of Gaussian 09 at Tue Oct 25 12:13:50 2016.
 Link1:  Proceeding to internal job step number  3.
 -----------------------------------------------------
 #N Geom=AllCheck Guess=TCheck SCRF=Check MP4SDQ/6-31G
 -----------------------------------------------------
 1/29=7,38=1,40=1/1;
 2/12=2,40=1/2;
 3/5=1,6=6,11=9,14=-4,16=1,25=1,30=1,70=2,116=-2/1,2,3;
 4/5=101/1;
 5/5=2/2;
 8/6=3,9=120000,10=2/1,4;
 9/5=4/13;
 6/7=2,8=2,9=2,10=2/1;
 99/5=1,9=1/99;
 Structure from the checkpoint file:  "N2cbs4m.chk"
 -------------------
 Title Card Required
 -------------------
 Charge =  0 Multiplicity = 1
 Redundant internal coordinates found in file.
 N,0,0.,0.,-0.0064171529
 N,0,0.,0.,1.0764171529
 Recover connectivity data from disk.
                          Input orientation:                          
 ---------------------------------------------------------------------
 Center     Atomic      Atomic             Coordinates (Angstroms)
 Number     Number       Type             X           Y           Z
 ---------------------------------------------------------------------
      1          7           0        0.000000    0.000000   -0.006417
      2          7           0        0.000000    0.000000    1.076417
 ---------------------------------------------------------------------
 Stoichiometry    N2
 Framework group  D*H[C*(N.N)]
 Deg. of freedom     1
 Full point group                 D*H     NOp   8
 Largest Abelian subgroup         D2H     NOp   8
 Largest concise Abelian subgroup C2      NOp   2
                         Standard orientation:                         
 ---------------------------------------------------------------------
 Center     Atomic      Atomic             Coordinates (Angstroms)
 Number     Number       Type             X           Y           Z
 ---------------------------------------------------------------------
      1          7           0        0.000000    0.000000    0.541417
      2          7           0        0.000000    0.000000   -0.541417
 ---------------------------------------------------------------------
 Rotational constants (GHZ):      0.0000000     61.5601678     61.5601678
 Standard basis: 6-31G (6D, 7F)
 There are     5 symmetry adapted cartesian basis functions of AG  symmetry.
 There are     0 symmetry adapted cartesian basis functions of B1G symmetry.
 There are     2 symmetry adapted cartesian basis functions of B2G symmetry.
 There are     2 symmetry adapted cartesian basis functions of B3G symmetry.
 There are     0 symmetry adapted cartesian basis functions of AU  symmetry.
 There are     5 symmetry adapted cartesian basis functions of B1U symmetry.
 There are     2 symmetry adapted cartesian basis functions of B2U symmetry.
 There are     2 symmetry adapted cartesian basis functions of B3U symmetry.
 There are     5 symmetry adapted basis functions of AG  symmetry.
 There are     0 symmetry adapted basis functions of B1G symmetry.
 There are     2 symmetry adapted basis functions of B2G symmetry.
 There are     2 symmetry adapted basis functions of B3G symmetry.
 There are     0 symmetry adapted basis functions of AU  symmetry.
 There are     5 symmetry adapted basis functions of B1U symmetry.
 There are     2 symmetry adapted basis functions of B2U symmetry.
 There are     2 symmetry adapted basis functions of B3U symmetry.
    18 basis functions,    44 primitive gaussians,    18 cartesian basis functions
     7 alpha electrons        7 beta electrons
       nuclear repulsion energy        23.9461227631 Hartrees.
 NAtoms=    2 NActive=    2 NUniq=    1 SFac= 4.00D+00 NAtFMM=   60 NAOKFM=F Big=F
 Integral buffers will be    131072 words long.
 Raffenetti 1 integral format.
 Two-electron integral symmetry is turned on.
 One-electron integrals computed using PRISM.
 NBasis=    18 RedAO= T EigKep=  9.96D-03  NBF=     5     0     2     2     0     5     2     2
 NBsUse=    18 1.00D-06 EigRej= -1.00D+00 NBFU=     5     0     2     2     0     5     2     2
 Initial guess from the checkpoint file:  "N2cbs4m.chk"
 B after Tr=     0.000000    0.000000    0.000000
         Rot=    1.000000    0.000000    0.000000    0.000000 Ang=   0.00 deg.
 Initial guess orbital symmetries:
       Occupied  (SGG) (SGU) (SGG) (SGU) (PIU) (PIU) (SGG)
       Virtual   (PIG) (PIG) (SGU) (SGG) (PIU) (PIU) (PIG) (PIG)
                 (SGU) (SGG) (SGU)
 Keep R1 ints in memory in symmetry-blocked form, NReq=841463.
 Requested convergence on RMS density matrix=1.00D-08 within 128 cycles.
 Requested convergence on MAX density matrix=1.00D-06.
 Requested convergence on             energy=1.00D-06.
 No special actions if energy rises.
 SCF Done:  E(RHF) =  -108.867870402     A.U. after    8 cycles
            NFock=  8  Conv=0.76D-08     -V/T= 2.0007
 ExpMin= 2.12D-01 ExpMax= 4.17D+03 ExpMxC= 6.27D+02 IAcc=3 IRadAn=         5 AccDes= 0.00D+00
 HarFok:  IExCor=  205 AccDes= 0.00D+00 IRadAn=         5 IDoV=-2 UseB2=F ITyADJ=14
 ICtDFT= 12500011 ScaDFX=  1.000000  1.000000  1.000000  1.000000
 Range of M.O.s used for correlation:     3    18
 NBasis=    18 NAE=     7 NBE=     7 NFC=     2 NFV=     0
 NROrb=     16 NOA=     5 NOB=     5 NVA=    11 NVB=    11
 Semi-Direct transformation.
 ModeAB=           4 MOrb=             5 LenV=     536757907
 LASXX=          610 LTotXX=         610 LenRXX=        1399
 LTotAB=         789 MaxLAS=        9120 LenRXY=           0
 NonZer=        2009 LenScr=      785920 LnRSAI=        9120
 LnScr1=      785920 LExtra=           0 Total=      1582359
 MaxDsk=          -1 SrtSym=           T ITran=            3
 JobTyp=0 Pass  1:  I=   1 to   5.
 (rs|ai) integrals will be sorted in core.
 Spin components of T(2) and E(2):
     alpha-alpha T2 =       0.1281731563D-01 E2=     -0.3183646040D-01
     alpha-beta  T2 =       0.6982802185D-01 E2=     -0.1680687148D+00
     beta-beta   T2 =       0.1281731563D-01 E2=     -0.3183646040D-01
 ANorm=    0.1046643518D+01
 E2 =    -0.2317416356D+00 EUMP2 =    -0.10909961203745D+03
 Keep R2 and R3 ints in memory in symmetry-blocked form, NReq=817300.
 DD1Dir will call FoFMem   1 times, MxPair=        30
 NAB=    15 NAA=     0 NBB=     0.
 MP4(R+Q)= -0.81479794D-04
 E3=        0.21441038D-01        EUMP3=      -0.10907817100D+03
 E4(DQ)=   -0.10564704D-01        UMP4(DQ)=   -0.10908873570D+03
 E4(SDQ)=  -0.13931814D-01        UMP4(SDQ)=  -0.10909210281D+03
 Largest amplitude= 9.38D-02
 Discarding MO integrals.

 **********************************************************************

            Population analysis using the SCF density.

 **********************************************************************

 Orbital symmetries:
       Occupied  (SGG) (SGU) (SGG) (SGU) (SGG) (PIU) (PIU)
       Virtual   (PIG) (PIG) (SGU) (SGG) (PIU) (PIU) (SGG) (PIG)
                 (PIG) (SGU) (SGU)
 The electronic state is 1-SGG.
 Alpha  occ. eigenvalues --  -15.71388 -15.71016  -1.53864  -0.76996  -0.63094
 Alpha  occ. eigenvalues --   -0.62858  -0.62858
 Alpha virt. eigenvalues --    0.15901   0.15901   0.59551   0.77953   0.84400
 Alpha virt. eigenvalues --    0.84400   0.94601   1.01452   1.01452   1.17556
 Alpha virt. eigenvalues --    1.59750
          Condensed to atoms (all electrons):
               1          2
     1  N    6.624031   0.375969
     2  N    0.375969   6.624031
 Mulliken charges:
               1
     1  N    0.000000
     2  N    0.000000
 Sum of Mulliken charges =   0.00000
 Mulliken charges with hydrogens summed into heavy atoms:
               1
     1  N    0.000000
     2  N    0.000000
 Electronic spatial extent (au):  <R**2>=             39.1996
 Charge=              0.0000 electrons
 Dipole moment (field-independent basis, Debye):
    X=              0.0000    Y=              0.0000    Z=              0.0000  Tot=              0.0000
 Quadrupole moment (field-independent basis, Debye-Ang):
   XX=            -10.2416   YY=            -10.2416   ZZ=            -12.5298
   XY=              0.0000   XZ=              0.0000   YZ=              0.0000
 Traceless Quadrupole moment (field-independent basis, Debye-Ang):
   XX=              0.7627   YY=              0.7627   ZZ=             -1.5255
   XY=              0.0000   XZ=              0.0000   YZ=              0.0000
 Octapole moment (field-independent basis, Debye-Ang**2):
  XXX=              0.0000  YYY=              0.0000  ZZZ=              0.0000  XYY=              0.0000
  XXY=              0.0000  XXZ=              0.0000  XZZ=              0.0000  YZZ=              0.0000
  YYZ=              0.0000  XYZ=              0.0000
 Hexadecapole moment (field-independent basis, Debye-Ang**3):
 XXXX=             -8.3790 YYYY=             -8.3790 ZZZZ=            -30.4676 XXXY=              0.0000
 XXXZ=              0.0000 YYYX=              0.0000 YYYZ=              0.0000 ZZZX=              0.0000
 ZZZY=              0.0000 XXYY=             -2.7930 XXZZ=             -6.1381 YYZZ=             -6.1381
 XXYZ=              0.0000 YYXZ=              0.0000 ZZXY=              0.0000
 N-N= 2.394612276311D+01 E-N=-3.031824390564D+02  KE= 1.087959358194D+02
 Symmetry AG   KE= 5.341234662843D+01
 Symmetry B1G  KE= 0.000000000000D+00
 Symmetry B2G  KE= 2.101147319973D-32
 Symmetry B3G  KE= 3.573699350957D-32
 Symmetry AU   KE= 0.000000000000D+00
 Symmetry B1U  KE= 4.884245927327D+01
 Symmetry B2U  KE= 3.270564958844D+00
 Symmetry B3U  KE= 3.270564958844D+00
 1\1\GINC-TC-NODE161\SP\RMP4SDQ-FC\6-31G\N2\MAXB2\25-Oct-2016\0\\#N Geo
 m=AllCheck Guess=TCheck SCRF=Check MP4SDQ/6-31G\\Title Card Required\\
 0,1\N,0,0.,0.,-0.0064171529\N,0,0.,0.,1.0764171529\\Version=ES64L-G09R
 evD.01\State=1-SGG\HF=-108.8678704\MP2=-109.099612\MP3=-109.078171\MP4
 D=-109.0886542\MP4DQ=-109.0887357\MP4SDQ=-109.0921028\RMSD=7.638e-09\P
 G=D*H [C*(N1.N1)]\\@


 IN NATURE THERE ARE NEITHER REWARDS OR
 PUNISHMENTS -- THERE ARE CONSEQUENCES.

                            -- ROBERT GREEN INGERSOLL
 Job cpu time:       0 days  0 hours  0 minutes  7.5 seconds.
 File lengths (MBytes):  RWF=     18 Int=      0 D2E=      0 Chk=      2 Scr=      1
 Normal termination of Gaussian 09 at Tue Oct 25 12:13:52 2016.
 Link1:  Proceeding to internal job step number  4.
 ----------------------------------------------------------------------
 #N Geom=AllCheck Guess=TCheck SCRF=Check MP2/6-31+D** CBSExtrap=(NMin=
 5,MinPop)
 ----------------------------------------------------------------------
 1/29=7,38=1,40=1/1;
 2/12=2,40=1/2;
 3/5=11,6=6,7=111,11=9,14=-4,16=1,25=1,30=1,70=2,116=-2/1,2,3;
 4/5=101/1;
 5/5=2/2;
 8/10=1/1;
 9/16=-3,75=2,81=5,83=4/6,4;
 6/7=2,8=2,9=2,10=2/1;
 99/5=1,9=1/99;
 Structure from the checkpoint file:  "N2cbs4m.chk"
 -------------------
 Title Card Required
 -------------------
 Charge =  0 Multiplicity = 1
 Redundant internal coordinates found in file.
 N,0,0.,0.,-0.0064171529
 N,0,0.,0.,1.0764171529
 Recover connectivity data from disk.
                          Input orientation:                          
 ---------------------------------------------------------------------
 Center     Atomic      Atomic             Coordinates (Angstroms)
 Number     Number       Type             X           Y           Z
 ---------------------------------------------------------------------
      1          7           0        0.000000    0.000000   -0.006417
      2          7           0        0.000000    0.000000    1.076417
 ---------------------------------------------------------------------
 Stoichiometry    N2
 Framework group  D*H[C*(N.N)]
 Deg. of freedom     1
 Full point group                 D*H     NOp   8
 Largest Abelian subgroup         D2H     NOp   8
 Largest concise Abelian subgroup C2      NOp   2
                         Standard orientation:                         
 ---------------------------------------------------------------------
 Center     Atomic      Atomic             Coordinates (Angstroms)
 Number     Number       Type             X           Y           Z
 ---------------------------------------------------------------------
      1          7           0        0.000000    0.000000    0.541417
      2          7           0        0.000000    0.000000   -0.541417
 ---------------------------------------------------------------------
 Rotational constants (GHZ):      0.0000000     61.5601678     61.5601678
 Standard basis: 6-31+(d',p') (6D, 7F)
 There are    10 symmetry adapted cartesian basis functions of AG  symmetry.
 There are     1 symmetry adapted cartesian basis functions of B1G symmetry.
 There are     4 symmetry adapted cartesian basis functions of B2G symmetry.
 There are     4 symmetry adapted cartesian basis functions of B3G symmetry.
 There are     1 symmetry adapted cartesian basis functions of AU  symmetry.
 There are    10 symmetry adapted cartesian basis functions of B1U symmetry.
 There are     4 symmetry adapted cartesian basis functions of B2U symmetry.
 There are     4 symmetry adapted cartesian basis functions of B3U symmetry.
 There are    10 symmetry adapted basis functions of AG  symmetry.
 There are     1 symmetry adapted basis functions of B1G symmetry.
 There are     4 symmetry adapted basis functions of B2G symmetry.
 There are     4 symmetry adapted basis functions of B3G symmetry.
 There are     1 symmetry adapted basis functions of AU  symmetry.
 There are    10 symmetry adapted basis functions of B1U symmetry.
 There are     4 symmetry adapted basis functions of B2U symmetry.
 There are     4 symmetry adapted basis functions of B3U symmetry.
    38 basis functions,    64 primitive gaussians,    38 cartesian basis functions
     7 alpha electrons        7 beta electrons
       nuclear repulsion energy        23.9461227631 Hartrees.
 NAtoms=    2 NActive=    2 NUniq=    1 SFac= 4.00D+00 NAtFMM=   60 NAOKFM=F Big=F
 Integral buffers will be    131072 words long.
 Raffenetti 1 integral format.
 Two-electron integral symmetry is turned on.
 One-electron integrals computed using PRISM.
 NBasis=    38 RedAO= T EigKep=  2.85D-04  NBF=    10     1     4     4     1    10     4     4
 NBsUse=    38 1.00D-06 EigRej= -1.00D+00 NBFU=    10     1     4     4     1    10     4     4
 Initial guess from the checkpoint file:  "N2cbs4m.chk"
 B after Tr=     0.000000    0.000000    0.000000
         Rot=    1.000000    0.000000    0.000000    0.000000 Ang=   0.00 deg.
 Initial guess orbital symmetries:
       Occupied  (SGG) (SGU) (SGG) (SGU) (SGG) (PIU) (PIU)
       Virtual   (PIG) (PIG) (SGU) (SGG) (PIU) (PIU) (SGG) (PIG)
                 (PIG) (SGU) (SGU) (SGG) (SGG) (SGG) (SGG) (DLTG)
                 (DLTG) (PIG) (PIG) (PIG) (PIG) (DLTU) (SGU) (SGU)
                 (SGU) (DLTU) (SGU) (PIU) (PIU) (PIU) (PIU)
 Keep R1 ints in memory in symmetry-blocked form, NReq=1130254.
 Requested convergence on RMS density matrix=1.00D-08 within 128 cycles.
 Requested convergence on MAX density matrix=1.00D-06.
 Requested convergence on             energy=1.00D-06.
 No special actions if energy rises.
 SCF Done:  E(RHF) =  -108.948448996     A.U. after    9 cycles
            NFock=  9  Conv=0.20D-08     -V/T= 2.0034
 ExpMin= 6.39D-02 ExpMax= 4.17D+03 ExpMxC= 6.27D+02 IAcc=3 IRadAn=         5 AccDes= 0.00D+00
 HarFok:  IExCor=  205 AccDes= 0.00D+00 IRadAn=         5 IDoV=-2 UseB2=F ITyADJ=14
 ICtDFT= 12500011 ScaDFX=  1.000000  1.000000  1.000000  1.000000
 Range of M.O.s used for correlation:     3    38
 NBasis=    38 NAE=     7 NBE=     7 NFC=     2 NFV=     0
 NROrb=     36 NOA=     5 NOB=     5 NVA=    31 NVB=    31

 **** Warning!!: The largest alpha MO coefficient is  0.40008499D+02

 Disk-based method using OVN memory for  5 occupieds at a time.
 Permanent disk used for amplitudes and <ij||ab> integrals=       57350 words.
 Estimated scratch disk usage=      855050 words.
 Actual    scratch disk usage=      855050 words.
 JobTyp=1 Pass  1:  I=   1 to   5 NPSUse=  8 ParTrn=T ParDer=T DoDerP=F.
 (rs|ai) integrals will be sorted in core.
 Spin components of T(2) and E(2):
     alpha-alpha T2 =       0.1422400685D-01 E2=     -0.4153298266D-01
     alpha-beta  T2 =       0.7805504369D-01 E2=     -0.2292000536D+00
     beta-beta   T2 =       0.1422400685D-01 E2=     -0.4153298266D-01
 ANorm=    0.1051904491D+01
 E2 =    -0.3122660189D+00 EUMP2 =    -0.10926071501524D+03

 Complete Basis Set (CBS) Extrapolation:
 M. R. Nyden and G. A. Petersson, JCP 75, 1843 (1981)
 G. A. Petersson and M. A. Al-Laham, JCP 94, 6081 (1991)
 G. A. Petersson, T. Tensfeldt, and J. A. Montgomery, JCP 94, 6091 (1991)
 J. A. Montgomery, J. W. Ochterski, and G. A. Petersson, JCP 101, 5900 (1994)
 
 Minimum Number of PNO for Extrapolation =   5
 Absolute Overlaps: IRadAn =     99590
 LocTrn: ILocal=3 LocCor=F DoCore=F.
 LocMO: Using population method
 Initial Trace= 0.50000000D+01 Initial TraceA= 0.25000000D+01
 RMSG= 0.12880459D-12
 There are a total of       96760 grid points.
 ElSum from         orbitals=        6.9999999706
 E2(CBS)=      -0.386807 CBS-Int=       0.019695 OIii=       3.119413

 **********************************************************************

            Population analysis using the SCF density.

 **********************************************************************

 Orbital symmetries:
       Occupied  (SGG) (SGU) (SGG) (SGU) (SGG) (PIU) (PIU)
       Virtual   (PIG) (PIG) (SGU) (SGG) (PIU) (PIU) (SGG) (PIG)
                 (PIG) (SGU) (SGU) (SGG) (PIU) (PIU) (PIG) (PIG)
                 (SGG) (SGU) (SGU) (DLTG) (DLTG) (PIU) (PIU) (DLTU)
                 (DLTU) (SGG) (PIG) (PIG) (SGU) (SGG) (SGU)
 The electronic state is 1-SGG.
 Alpha  occ. eigenvalues --  -15.69640 -15.69267  -1.49098  -0.77666  -0.63637
 Alpha  occ. eigenvalues --   -0.62323  -0.62323
 Alpha virt. eigenvalues --    0.13279   0.13279   0.14358   0.14699   0.16770
 Alpha virt. eigenvalues --    0.16770   0.22122   0.27898   0.27898   0.33539
 Alpha virt. eigenvalues --    0.71850   0.93874   1.03914   1.03914   1.16093
 Alpha virt. eigenvalues --    1.16093   1.21617   1.27110   1.67094   1.95094
 Alpha virt. eigenvalues --    1.95094   2.02218   2.02218   2.50298   2.50298
 Alpha virt. eigenvalues --    3.02989   3.26352   3.26352   3.60991   4.56275
 Alpha virt. eigenvalues --    4.82878
          Condensed to atoms (all electrons):
               1          2
     1  N    5.964912   1.035088
     2  N    1.035088   5.964912
 Mulliken charges:
               1
     1  N    0.000000
     2  N    0.000000
 Sum of Mulliken charges =   0.00000
 Mulliken charges with hydrogens summed into heavy atoms:
               1
     1  N    0.000000
     2  N    0.000000
 Electronic spatial extent (au):  <R**2>=             38.9158
 Charge=              0.0000 electrons
 Dipole moment (field-independent basis, Debye):
    X=              0.0000    Y=              0.0000    Z=              0.0000  Tot=              0.0000
 Quadrupole moment (field-independent basis, Debye-Ang):
   XX=            -10.3625   YY=            -10.3625   ZZ=            -11.9063
   XY=              0.0000   XZ=              0.0000   YZ=              0.0000
 Traceless Quadrupole moment (field-independent basis, Debye-Ang):
   XX=              0.5146   YY=              0.5146   ZZ=             -1.0292
   XY=              0.0000   XZ=              0.0000   YZ=              0.0000
 Octapole moment (field-independent basis, Debye-Ang**2):
  XXX=              0.0000  YYY=              0.0000  ZZZ=              0.0000  XYY=              0.0000
  XXY=              0.0000  XXZ=              0.0000  XZZ=              0.0000  YZZ=              0.0000
  YYZ=              0.0000  XYZ=              0.0000
 Hexadecapole moment (field-independent basis, Debye-Ang**3):
 XXXX=             -8.8771 YYYY=             -8.8771 ZZZZ=            -31.5030 XXXY=              0.0000
 XXXZ=              0.0000 YYYX=              0.0000 YYYZ=              0.0000 ZZZX=              0.0000
 ZZZY=              0.0000 XXYY=             -2.9590 XXZZ=             -6.3421 YYZZ=             -6.3421
 XXYZ=              0.0000 YYXZ=              0.0000 ZZXY=              0.0000
 N-N= 2.394612276311D+01 E-N=-3.032932646992D+02  KE= 1.085832063614D+02
 Symmetry AG   KE= 5.326120063081D+01
 Symmetry B1G  KE= 1.308053433921D-34
 Symmetry B2G  KE= 4.604258522789D-32
 Symmetry B3G  KE= 3.598274465744D-32
 Symmetry AU   KE= 4.893148262827D-34
 Symmetry B1U  KE= 4.880406272461D+01
 Symmetry B2U  KE= 3.258971503010D+00
 Symmetry B3U  KE= 3.258971503010D+00
 1\1\GINC-TC-NODE161\SP\RMP2-FC\6-31+(d',p')\N2\MAXB2\25-Oct-2016\0\\#N
  Geom=AllCheck Guess=TCheck SCRF=Check MP2/6-31+D** CBSExtrap=(NMin=5,
 MinPop)\\Title Card Required\\0,1\N,0,0.,0.,-0.0064171529\N,0,0.,0.,1.
 0764171529\\Version=ES64L-G09RevD.01\State=1-SGG\HF=-108.948449\MP2=-1
 09.260715\E2(CBS)=-0.3868065\CBS-Int=-0.3671115\OIii=3.1194134\RMSD=2.
 032e-09\PG=D*H [C*(N1.N1)]\\@


                                                                                    A
                                                                                  AA
                                                                                 AAA
                                                                                AAAA
                                                                               AAAAA
                                                                              AAAAAA   KKKKKKKK
                                                                             AAAAAAA   KKKKKKKK
                                                                            AAAAAAAA   KKKKKKKK
                                       ZZZZZZZZZZZZZZZZZZZZ                AAAA  AAA   KKKKKKKK
                                       ZZZZZZZZZZZZZZZZZZZ                AAAA   AAA   KKKKKKKK          K
                                       ZZZZZZZZZZZZZZZZZZ                AAAA    AAA   KKKKKKKK         KKK
                                       ZZZZZZZZZZZZZZZZZ                AAAA     AAA   KKKKKKKK        KKKKK
                                       ZZZZZZZZZZZZZZZZ                AAAA      AAA   KKKKKKKK       KKKKKKK
                                                ZZZZZZ                AAAA       AAA   KKKKKKKK      KKKKKKK
                                               ZZZZZZ                AAAA        AAA   KKKKKKKK     KKKKKKK
                                              ZZZZZZ                AAAA         AAA   KKKKKKKK    KKKKKKK
                                             ZZZZZZ                AAAA          AAA   KKKKKKKK   KKKKKKK
                                            ZZZZZZ                AAAAAAAAAAAAAAAAAA   KKKKKKKK  KKKKKKK
                                           ZZZZZZ                AAAAAAAAAAAAAAAAAAA   KKKKKKKK KKKKKKK
                                          ZZZZZZ                AAAAAAAAAAAAAAAAAAAA   KKKKKKKKKKKKKKK
                                         ZZZZZZ                AAAAAAAAAAAAAAAAAAAAA   KKKKKKKKKKKKKK
                                        ZZZZZZ                AAAAAA        AAAAAAAA   KKKKKKKKKKKKK
                                       ZZZZZZ                AAAAAA         AAAAAAAA   KKKKKKKKKKKK
                                      ZZZZZZ                AAAAAA          AAAAAAAA   KKKKKKKKKKK
                                     ZZZZZZ                AAAAAA           AAAAAAAA   KKKKKKKKKKKK
                                    ZZZZZZ                AAAAAA            AAAAAAAA   KKKKKKKKKKKKK
                                   ZZZZZZ                AAAAAA             AAAAAAAA   KKKKKKKKKKKKKK
                                  ZZZZZZ                AAAAAA              AAAAAAAA   KKKKKKKKKKKKKKK
                                 ZZZZZZ                AAAAAA               AAAAAAAA   KKKKK KKKKKKKKKK
                                ZZZZZZ                AAAAAA                AAAAAAAA   KKKKK  KKKKKKKKKK
                               ZZZZZZ                AAAAAA                            KKKKK   KKKKKKKKKK
                              ZZZZZZ                AAAAAA                             KKKKK    KKKKKKKKKK
                             ZZZZZZ                                                    KKKKK     KKKKKKKKKK
                            ZZZZZZ                                                     KKKKK      KKKKKKKKKK
                           ZZZZZZ                                                      KKKKK       KKKKKKKKKK
                          ZZZZZZ                                                       KKKKK        KKKKKKKKKK
                         ZZZZZZZZZZZZZZZZZZZZZZZZZZZZZZZZZZZZZZZZ                      KKKKK         KKKKKKKKKK
                        ZZZZZZZZZZZZZZZZZZZZZZZZZZZZZZZZZZZZZZZZZ                      KKKKK          KKKKKKKKKK
                       ZZZZZZZZZZZZZZZZZZZZZZZZZZZZZZZZZZZZZZZZZZ                      KKKKK           KKKKKKKKKK
                       ZZZZZZZZZZZZZZZZZZZZZZZZZZZZZZZZZZZZZZZZZZ                      KKKKK            KKKKKKKKKK
                       ZZZZZZZZZZZZZZZZZZZZZZZZZZZZZZZZZZZZZZZZZZ                      KKKKK             KKKKKKKKKK
                       ZZZZZZZZZZZZZZZZZZZZZZZZZZZZZZZZZZZZZZZZZZ                      KKKKK              KKKKKKKKKK
                       ZZZZZZZZZZZZZZZZZZZZZZZZZZZZZZZZZZZZZZZZZZ                      KKKKK               KKKKKKKKKK
                       ZZZZZZZZZZZZZZZZZZZZZZZZZZZZZZZZZZZZZZZZZZ                      KKKKK                KKKKKKKKKK
                       ZZZZZZZZZZZZZZZZZZZZZZZZZZZZZZZZZZZZZZZZZZ                      KKKKK
                                                                                       KKKKK
                                                                                          (J.P.)
 Job cpu time:       0 days  0 hours  0 minutes 14.7 seconds.
 File lengths (MBytes):  RWF=     18 Int=      0 D2E=      0 Chk=      2 Scr=      1
 Normal termination of Gaussian 09 at Tue Oct 25 12:13:54 2016.
 Link1:  Proceeding to internal job step number  5.
 -----------------------------------------------------------
 #N Geom=AllCheck Guess=TCheck SCRF=Check HF/CBSB1 SCF=Tight
 -----------------------------------------------------------
 1/29=7,38=1,40=1/1;
 2/12=2,40=1/2;
 3/5=10,11=9,14=-4,16=1,25=1,30=1,70=2,116=-2/1,2,3;
 4/5=101/1;
 5/5=2,32=2/2;
 6/7=2,8=2,9=2,10=2,28=1/1;
 99/5=1,9=1/99;
 Structure from the checkpoint file:  "N2cbs4m.chk"
 -------------------
 Title Card Required
 -------------------
 Charge =  0 Multiplicity = 1
 Redundant internal coordinates found in file.
 N,0,0.,0.,-0.0064171529
 N,0,0.,0.,1.0764171529
 Recover connectivity data from disk.
                          Input orientation:                          
 ---------------------------------------------------------------------
 Center     Atomic      Atomic             Coordinates (Angstroms)
 Number     Number       Type             X           Y           Z
 ---------------------------------------------------------------------
      1          7           0        0.000000    0.000000   -0.006417
      2          7           0        0.000000    0.000000    1.076417
 ---------------------------------------------------------------------
 Stoichiometry    N2
 Framework group  D*H[C*(N.N)]
 Deg. of freedom     1
 Full point group                 D*H     NOp   8
 Largest Abelian subgroup         D2H     NOp   8
 Largest concise Abelian subgroup C2      NOp   2
                         Standard orientation:                         
 ---------------------------------------------------------------------
 Center     Atomic      Atomic             Coordinates (Angstroms)
 Number     Number       Type             X           Y           Z
 ---------------------------------------------------------------------
      1          7           0        0.000000    0.000000    0.541417
      2          7           0        0.000000    0.000000   -0.541417
 ---------------------------------------------------------------------
 Rotational constants (GHZ):      0.0000000     61.5601678     61.5601678
 Standard basis: CBSB1 (5D, 7F)
 There are    18 symmetry adapted cartesian basis functions of AG  symmetry.
 There are     3 symmetry adapted cartesian basis functions of B1G symmetry.
 There are     9 symmetry adapted cartesian basis functions of B2G symmetry.
 There are     9 symmetry adapted cartesian basis functions of B3G symmetry.
 There are     3 symmetry adapted cartesian basis functions of AU  symmetry.
 There are    18 symmetry adapted cartesian basis functions of B1U symmetry.
 There are     9 symmetry adapted cartesian basis functions of B2U symmetry.
 There are     9 symmetry adapted cartesian basis functions of B3U symmetry.
 There are    15 symmetry adapted basis functions of AG  symmetry.
 There are     3 symmetry adapted basis functions of B1G symmetry.
 There are     8 symmetry adapted basis functions of B2G symmetry.
 There are     8 symmetry adapted basis functions of B3G symmetry.
 There are     3 symmetry adapted basis functions of AU  symmetry.
 There are    15 symmetry adapted basis functions of B1U symmetry.
 There are     8 symmetry adapted basis functions of B2U symmetry.
 There are     8 symmetry adapted basis functions of B3U symmetry.
    68 basis functions,   104 primitive gaussians,    78 cartesian basis functions
     7 alpha electrons        7 beta electrons
       nuclear repulsion energy        23.9461227631 Hartrees.
 NAtoms=    2 NActive=    2 NUniq=    1 SFac= 4.00D+00 NAtFMM=   60 NAOKFM=F Big=F
 Integral buffers will be    131072 words long.
 Raffenetti 1 integral format.
 Two-electron integral symmetry is turned on.
 One-electron integrals computed using PRISM.
 NBasis=    68 RedAO= T EigKep=  2.57D-04  NBF=    15     3     8     8     3    15     8     8
 NBsUse=    68 1.00D-06 EigRej= -1.00D+00 NBFU=    15     3     8     8     3    15     8     8
 Initial guess from the checkpoint file:  "N2cbs4m.chk"
 B after Tr=     0.000000    0.000000    0.000000
         Rot=    1.000000    0.000000    0.000000    0.000000 Ang=   0.00 deg.
 Initial guess orbital symmetries:
       Occupied  (SGG) (SGU) (SGG) (SGU) (SGG) (PIU) (PIU)
       Virtual   (SGG) (SGG) (SGG) (DLTG) (SGG) (DLTG) (SGG) (SGG)
                 (SGG) (DLTG) (SGG) (SGG) (DLTG) (DLTG) (DLTG)
                 (PIG) (PIG) (PHIG) (PIG) (PIG) (PIG) (PIG) (PIG)
                 (PIG) (PIG) (PHIG) (PIG) (PIG) (PIG) (PIG) (PIG)
                 (DLTU) (DLTU) (DLTU) (SGU) (SGU) (SGU) (DLTU)
                 (SGU) (SGU) (DLTU) (SGU) (SGU) (DLTU) (SGU) (SGU)
                 (SGU) (PIU) (PIU) (PIU) (PHIU) (PIU) (PIU) (PIU)
                 (PIU) (PIU) (PIU) (PHIU) (PIU) (PIU) (PIU)
 Keep R1 ints in memory in symmetry-blocked form, NReq=4752944.
 Requested convergence on RMS density matrix=1.00D-08 within 128 cycles.
 Requested convergence on MAX density matrix=1.00D-06.
 Requested convergence on             energy=1.00D-06.
 No special actions if energy rises.
 SCF Done:  E(RHF) =  -108.982985871     A.U. after    8 cycles
            NFock=  8  Conv=0.18D-08     -V/T= 2.0011

 **********************************************************************

            Population analysis using the SCF density.

 **********************************************************************

 Orbital symmetries:
       Occupied  (SGG) (SGU) (SGG) (SGU) (SGG) (PIU) (PIU)
       Virtual   (PIG) (PIG) (SGU) (SGG) (PIU) (PIU) (SGG) (PIG)
                 (PIG) (SGU) (SGU) (SGG) (PIU) (PIU) (PIG) (PIG)
                 (DLTG) (DLTG) (SGG) (SGU) (PIU) (PIU) (SGU) (DLTU)
                 (DLTU) (PIG) (PIG) (SGG) (SGU) (SGG) (DLTG) (DLTG)
                 (PHIU) (PHIU) (PIU) (PIU) (PIG) (PIG) (PHIG) (PHIG)
                 (PIU) (PIU) (SGU) (SGG) (DLTU) (DLTU) (PIG) (PIG)
                 (DLTG) (DLTG) (SGU) (DLTU) (DLTU) (PIU) (PIU)
                 (SGG) (PIG) (PIG) (SGU) (SGG) (SGU)
 The electronic state is 1-SGG.
 Alpha  occ. eigenvalues --  -15.67988 -15.67601  -1.48439  -0.77528  -0.63684
 Alpha  occ. eigenvalues --   -0.62168  -0.62168
 Alpha virt. eigenvalues --    0.13400   0.13400   0.13849   0.14303   0.16450
 Alpha virt. eigenvalues --    0.16450   0.22018   0.27341   0.27341   0.33147
 Alpha virt. eigenvalues --    0.65397   0.82102   0.88914   0.88914   1.00658
 Alpha virt. eigenvalues --    1.00658   1.02088   1.02088   1.08003   1.13269
 Alpha virt. eigenvalues --    1.34234   1.34234   1.38361   1.48692   1.48692
 Alpha virt. eigenvalues --    1.98216   1.98216   2.06272   2.32635   3.55808
 Alpha virt. eigenvalues --    3.58627   3.58627   3.61032   3.61032   3.98242
 Alpha virt. eigenvalues --    3.98242   4.07505   4.07505   4.13419   4.13419
 Alpha virt. eigenvalues --    4.13458   4.13458   4.67655   4.79636   4.95797
 Alpha virt. eigenvalues --    4.95797   4.97925   4.97925   5.06030   5.06030
 Alpha virt. eigenvalues --    5.10908   5.22523   5.22523   5.53405   5.53405
 Alpha virt. eigenvalues --    6.48938   6.92145   6.92145   7.34400  36.52614
 Alpha virt. eigenvalues --   38.20621
          Condensed to atoms (all electrons):
               1          2
     1  N    5.964887   1.035113
     2  N    1.035113   5.964887
 Mulliken charges:
               1
     1  N    0.000000
     2  N    0.000000
 Sum of Mulliken charges =   0.00000
 Mulliken charges with hydrogens summed into heavy atoms:
               1
     1  N    0.000000
     2  N    0.000000
 Electronic spatial extent (au):  <R**2>=             38.7394
 Charge=              0.0000 electrons
 Dipole moment (field-independent basis, Debye):
    X=              0.0000    Y=              0.0000    Z=              0.0000  Tot=              0.0000
 Quadrupole moment (field-independent basis, Debye-Ang):
   XX=            -10.3548   YY=            -10.3548   ZZ=            -11.6847
   XY=              0.0000   XZ=              0.0000   YZ=              0.0000
 Traceless Quadrupole moment (field-independent basis, Debye-Ang):
   XX=              0.4433   YY=              0.4433   ZZ=             -0.8866
   XY=              0.0000   XZ=              0.0000   YZ=              0.0000
 Octapole moment (field-independent basis, Debye-Ang**2):
  XXX=              0.0000  YYY=              0.0000  ZZZ=              0.0000  XYY=              0.0000
  XXY=              0.0000  XXZ=              0.0000  XZZ=              0.0000  YZZ=              0.0000
  YYZ=              0.0000  XYZ=              0.0000
 Hexadecapole moment (field-independent basis, Debye-Ang**3):
 XXXX=             -8.9410 YYYY=             -8.9410 ZZZZ=            -31.0707 XXXY=              0.0000
 XXXZ=              0.0000 YYYX=              0.0000 YYYZ=              0.0000 ZZZX=              0.0000
 ZZZY=              0.0000 XXYY=             -2.9803 XXZZ=             -6.2020 YYZZ=             -6.2020
 XXYZ=              0.0000 YYXZ=              0.0000 ZZXY=              0.0000
 N-N= 2.394612276311D+01 E-N=-3.037273692096D+02  KE= 1.088606542995D+02
 Symmetry AG   KE= 5.345040460072D+01
 Symmetry B1G  KE= 5.030592258782D-34
 Symmetry B2G  KE= 6.375080139243D-31
 Symmetry B3G  KE= 1.094477766227D-19
 Symmetry AU   KE= 4.472191464284D-33
 Symmetry B1U  KE= 4.888481073529D+01
 Symmetry B2U  KE= 3.262719481753D+00
 Symmetry B3U  KE= 3.262719481753D+00
 1\1\GINC-TC-NODE161\SP\RHF\CBSB1\N2\MAXB2\25-Oct-2016\0\\#N Geom=AllCh
 eck Guess=TCheck SCRF=Check HF/CBSB1 SCF=Tight\\Title Card Required\\0
 ,1\N,0,0.,0.,-0.0064171529\N,0,0.,0.,1.0764171529\\Version=ES64L-G09Re
 vD.01\State=1-SGG\HF=-108.9829859\RMSD=1.755e-09\Dipole=0.,0.,0.\Quadr
 upole=0.3295798,0.3295798,-0.6591595,0.,0.,0.\PG=D*H [C*(N1.N1)]\\@


 A SOLDIER'S LIFE IS A LIFE OF HONOR, BUT A DOG WOULD NOT LEAD IT.
 -- PRINCE RUPERT, FOUNDER OF THE HUDSON'S BAY COMPANY
 Diagonal vibrational polarizability:
        0.0000000       0.0000000       0.0000000

 Complete Basis Set (CBS) Extrapolation:
 M. R. Nyden and G. A. Petersson, JCP 75, 1843 (1981)
 G. A. Petersson and M. A. Al-Laham, JCP 94, 6081 (1991)
 G. A. Petersson, T. Tensfeldt, and J. A. Montgomery, JCP 94, 6091 (1991)
 J. A. Montgomery, J. W. Ochterski, and G. A. Petersson, JCP 101, 5900 (1994)

 Temperature=               298.150000 Pressure=                       1.000000
 E(ZPE)=                      0.005456 E(Thermal)=                     0.007817
 E(SCF)=                   -108.982986 DE(MP2)=                       -0.312266
 DE(CBS)=                    -0.074541 DE(MP34)=                       0.007509
 DE(Int)=                     0.019695 DE(Empirical)=                 -0.064154
 CBS-4 (0 K)=              -109.401286 CBS-4 Energy=                -109.398926
 CBS-4 Enthalpy=           -109.397981 CBS-4 Free Energy=           -109.419697
 1\1\GINC-TC-NODE161\Mixed\CBS-4M\CBS-4M\N2\MAXB2\25-Oct-2016\0\\# cbs-
 4m geom=allcheck\\Title Card Required\\0,1\N,0,0.,0.,-0.0064171529\N,0
 ,0.,0.,1.0764171529\\Version=ES64L-G09RevD.01\State=1-SGG\HF/CbsB1=-10
 8.9829859\HF/CbsB2=-108.948449\MP2/CbsB2=-109.260715\E2(CBS)/CbsB2=-0.
 3868065\CBS-Int/CbsB2=0.019695\OIii/CbsB2=3.1194134\MP2/6-31G=-109.099
 612\MP4(SDQ)/6-31G=-109.0921028\CBS4M=-109.4012862\FreqCoord=0.,0.,-0.
 0121266616,0.,0.,2.0341336238\PG=D*H [C*(N1.N1)]\NImag=0\\-0.00000089,
 0.,-0.00000089,0.,0.,1.80848360,0.00000089,0.,0.,-0.00000089,0.,0.0000
 0089,0.,0.,-0.00000089,0.,0.,-1.80848360,0.,0.,1.80848360\\0.,0.,0.000
 00172,0.,0.,-0.00000172\\\@
 Job cpu time:       0 days  0 hours  0 minutes 10.1 seconds.
 File lengths (MBytes):  RWF=     18 Int=      0 D2E=      0 Chk=      2 Scr=      1
 Normal termination of Gaussian 09 at Tue Oct 25 12:13:56 2016.
