 Entering Gaussian System, Link 0=g09
 Initial command:
 /cluster/software/gaussian/gaussian-09-D.01/g09/l1.exe "/local/scratch/maxb2/Gau-3128.inp" -scrdir="/local/scratch/maxb2/"
 Entering Link 1 = /cluster/software/gaussian/gaussian-09-D.01/g09/l1.exe PID=      3129.
  
 Copyright (c) 1988,1990,1992,1993,1995,1998,2003,2009,2013,
            Gaussian, Inc.  All Rights Reserved.
  
 This is part of the Gaussian(R) 09 program.  It is based on
 the Gaussian(R) 03 system (copyright 2003, Gaussian, Inc.),
 the Gaussian(R) 98 system (copyright 1998, Gaussian, Inc.),
 the Gaussian(R) 94 system (copyright 1995, Gaussian, Inc.),
 the Gaussian 92(TM) system (copyright 1992, Gaussian, Inc.),
 the Gaussian 90(TM) system (copyright 1990, Gaussian, Inc.),
 the Gaussian 88(TM) system (copyright 1988, Gaussian, Inc.),
 the Gaussian 86(TM) system (copyright 1986, Carnegie Mellon
 University), and the Gaussian 82(TM) system (copyright 1983,
 Carnegie Mellon University). Gaussian is a federally registered
 trademark of Gaussian, Inc.
  
 This software contains proprietary and confidential information,
 including trade secrets, belonging to Gaussian, Inc.
  
 This software is provided under written license and may be
 used, copied, transmitted, or stored only in accord with that
 written license.
  
 The following legend is applicable only to US Government
 contracts under FAR:
  
                    RESTRICTED RIGHTS LEGEND
  
 Use, reproduction and disclosure by the US Government is
 subject to restrictions as set forth in subparagraphs (a)
 and (c) of the Commercial Computer Software - Restricted
 Rights clause in FAR 52.227-19.
  
 Gaussian, Inc.
 340 Quinnipiac St., Bldg. 40, Wallingford CT 06492
  
  
 ---------------------------------------------------------------
 Warning -- This program may not be used in any manner that
 competes with the business of Gaussian, Inc. or will provide
 assistance to any competitor of Gaussian, Inc.  The licensee
 of this program is prohibited from giving any competitor of
 Gaussian, Inc. access to this program.  By using this program,
 the user acknowledges that Gaussian, Inc. is engaged in the
 business of creating and licensing software in the field of
 computational chemistry and represents and warrants to the
 licensee that it is not a competitor of Gaussian, Inc. and that
 it will not use this program in any manner prohibited above.
 ---------------------------------------------------------------
  

 Cite this work as:
 Gaussian 09, Revision D.01,
 M. J. Frisch, G. W. Trucks, H. B. Schlegel, G. E. Scuseria, 
 M. A. Robb, J. R. Cheeseman, G. Scalmani, V. Barone, B. Mennucci, 
 G. A. Petersson, H. Nakatsuji, M. Caricato, X. Li, H. P. Hratchian, 
 A. F. Izmaylov, J. Bloino, G. Zheng, J. L. Sonnenberg, M. Hada, 
 M. Ehara, K. Toyota, R. Fukuda, J. Hasegawa, M. Ishida, T. Nakajima, 
 Y. Honda, O. Kitao, H. Nakai, T. Vreven, J. A. Montgomery, Jr., 
 J. E. Peralta, F. Ogliaro, M. Bearpark, J. J. Heyd, E. Brothers, 
 K. N. Kudin, V. N. Staroverov, T. Keith, R. Kobayashi, J. Normand, 
 K. Raghavachari, A. Rendell, J. C. Burant, S. S. Iyengar, J. Tomasi, 
 M. Cossi, N. Rega, J. M. Millam, M. Klene, J. E. Knox, J. B. Cross, 
 V. Bakken, C. Adamo, J. Jaramillo, R. Gomperts, R. E. Stratmann, 
 O. Yazyev, A. J. Austin, R. Cammi, C. Pomelli, J. W. Ochterski, 
 R. L. Martin, K. Morokuma, V. G. Zakrzewski, G. A. Voth, 
 P. Salvador, J. J. Dannenberg, S. Dapprich, A. D. Daniels, 
 O. Farkas, J. B. Foresman, J. V. Ortiz, J. Cioslowski, 
 and D. J. Fox, Gaussian, Inc., Wallingford CT, 2013.
 
 ******************************************
 Gaussian 09:  ES64L-G09RevD.01 24-Apr-2013
                25-Oct-2016 
 ******************************************
 %nprocshared=8
 Will use up to    8 processors via shared memory.
 %mem=4gb
 %chk=N2smd
 %oldchk=N2opt.chk
 Copying data from "N2opt.chk" to current chk file "N2smd.chk".
 --------------------------------------------------------------------
 # opt freq mp2(full)/6-311g** scrf=(smd,solvent=water) geom=allcheck
 --------------------------------------------------------------------
 1/14=-1,18=20,19=15,29=7,38=1/1,3;
 2/9=110,12=2,40=1/2;
 3/5=4,6=6,7=101,11=9,14=-4,16=1,25=1,30=1,70=32201,71=1,72=1/1,2,3;
 4//1;
 5/5=2,38=5,53=1/2;
 8/6=4,10=90/1;
 9/15=2,16=-3/6;
 10/5=1/2;
 6/7=2,8=2,9=2,10=2/1;
 7/12=2/1,2,3,16;
 1/14=-1,18=20,19=15/3(2);
 2/9=110/2;
 99//99;
 2/9=110/2;
 3/5=4,6=6,7=101,11=9,14=-2,16=1,25=1,30=1,70=32205,71=1,72=1/1,2,3;
 4/5=5,16=3,69=1/1;
 5/5=2,38=5,53=1/2;
 8/6=4,10=90/1;
 9/15=2,16=-3/6;
 10/5=1/2;
 7/12=2/1,2,3,16;
 1/14=-1,18=20,19=15/3(-8);
 2/9=110/2;
 6/7=2,8=2,9=2,10=2/1;
 99//99;
 Structure from the checkpoint file:  "N2smd.chk"
 -------------------
 Title Card Required
 -------------------
 Charge =  0 Multiplicity = 1
 Redundant internal coordinates found in file.
 N,0,0.,0.,-0.0245458156
 N,0,0.,0.,1.0945458156
 Recover connectivity data from disk.

 GradGradGradGradGradGradGradGradGradGradGradGradGradGradGradGradGradGrad
 Berny optimization.
 Initialization pass.
                           ----------------------------
                           !    Initial Parameters    !
                           ! (Angstroms and Degrees)  !
 --------------------------                            --------------------------
 ! Name  Definition              Value          Derivative Info.                !
 --------------------------------------------------------------------------------
 ! R1    R(1,2)                  1.1191         estimate D2E/DX2                !
 --------------------------------------------------------------------------------
 Trust Radius=3.00D-01 FncErr=1.00D-07 GrdErr=1.00D-07
 Number of steps in this run=     20 maximum allowed number of steps=    100.
 GradGradGradGradGradGradGradGradGradGradGradGradGradGradGradGradGradGrad

                          Input orientation:                          
 ---------------------------------------------------------------------
 Center     Atomic      Atomic             Coordinates (Angstroms)
 Number     Number       Type             X           Y           Z
 ---------------------------------------------------------------------
      1          7           0        0.000000    0.000000   -0.024546
      2          7           0        0.000000    0.000000    1.094546
 ---------------------------------------------------------------------
 Stoichiometry    N2
 Framework group  D*H[C*(N.N)]
 Deg. of freedom     1
 Full point group                 D*H     NOp   8
 Largest Abelian subgroup         D2H     NOp   8
 Largest concise Abelian subgroup C2      NOp   2
                         Standard orientation:                         
 ---------------------------------------------------------------------
 Center     Atomic      Atomic             Coordinates (Angstroms)
 Number     Number       Type             X           Y           Z
 ---------------------------------------------------------------------
      1          7           0        0.000000    0.000000    0.559546
      2          7           0        0.000000    0.000000   -0.559546
 ---------------------------------------------------------------------
 Rotational constants (GHZ):      0.0000000     57.6358247     57.6358247
 Standard basis: 6-311G(d,p) (5D, 7F)
 There are    10 symmetry adapted cartesian basis functions of AG  symmetry.
 There are     1 symmetry adapted cartesian basis functions of B1G symmetry.
 There are     4 symmetry adapted cartesian basis functions of B2G symmetry.
 There are     4 symmetry adapted cartesian basis functions of B3G symmetry.
 There are     1 symmetry adapted cartesian basis functions of AU  symmetry.
 There are    10 symmetry adapted cartesian basis functions of B1U symmetry.
 There are     4 symmetry adapted cartesian basis functions of B2U symmetry.
 There are     4 symmetry adapted cartesian basis functions of B3U symmetry.
 There are     9 symmetry adapted basis functions of AG  symmetry.
 There are     1 symmetry adapted basis functions of B1G symmetry.
 There are     4 symmetry adapted basis functions of B2G symmetry.
 There are     4 symmetry adapted basis functions of B3G symmetry.
 There are     1 symmetry adapted basis functions of AU  symmetry.
 There are     9 symmetry adapted basis functions of B1U symmetry.
 There are     4 symmetry adapted basis functions of B2U symmetry.
 There are     4 symmetry adapted basis functions of B3U symmetry.
    36 basis functions,    64 primitive gaussians,    38 cartesian basis functions
     7 alpha electrons        7 beta electrons
       nuclear repulsion energy        23.1702949936 Hartrees.
 NAtoms=    2 NActive=    2 NUniq=    1 SFac= 4.00D+00 NAtFMM=   60 NAOKFM=F Big=F
 Integral buffers will be    131072 words long.
 Raffenetti 1 integral format.
 Two-electron integral symmetry is turned on.
 ------------------------------------------------------------------------------
 Polarizable Continuum Model (PCM)
 =================================
 Model                : PCM (using non-symmetric T matrix).
 Atomic radii         : SMD-Coulomb.
 Polarization charges : Total charges.
 Charge compensation  : None.
 Solution method      : On-the-fly selection.
 Cavity type          : VdW (van der Waals Surface) (Alpha=1.000).
 Cavity algorithm     : GePol (No added spheres)
                        Default sphere list used, NSphG=    2.
                        Lebedev-Laikov grids with approx.  5.0 points / Ang**2.
                        Smoothing algorithm: Karplus/York (Gamma=1.0000).
                        Polarization charges: spherical gaussians, with
                                              point-specific exponents (IZeta= 3).
                        Self-potential: point-specific (ISelfS= 7).
                        Self-field    : sphere-specific E.n sum rule (ISelfD= 2).
 1st derivatives      : Analytical E(r).r(x)/FMM algorithm (CHGder, D1EAlg=3).
                        Cavity 1st derivative terms included.
 Solvent              : Water, Eps=  78.355300 Eps(inf)=   1.777849
 ------------------------------------------------------------------------------
 Spheres list:
 ISph  on   Nord     Re0    Alpha      Xe            Ye            Ze
    1   N      1    1.8900  1.000      0.000000      0.000000      0.559546
    2   N      2    1.8900  1.000      0.000000      0.000000     -0.559546
 ------------------------------------------------------------------------------
 ------------------------------------------------------------------------------
 Atomic radii for non-electrostatic terms: SMD-CDS.
 ------------------------------------------------------------------------------
 One-electron integrals computed using PRISM.
 NBasis=    36 RedAO= T EigKep=  7.81D-03  NBF=     9     1     4     4     1     9     4     4
 NBsUse=    36 1.00D-06 EigRej= -1.00D+00 NBFU=     9     1     4     4     1     9     4     4
 ExpMin= 2.01D-01 ExpMax= 6.29D+03 ExpMxC= 9.49D+02 IAcc=1 IRadAn=         1 AccDes= 0.00D+00
 Harris functional with IExCor=  205 and IRadAn=       1 diagonalized for initial guess.
 HarFok:  IExCor=  205 AccDes= 0.00D+00 IRadAn=         1 IDoV= 1 UseB2=F ITyADJ=14
 ICtDFT=  3500011 ScaDFX=  1.000000  1.000000  1.000000  1.000000
 FoFCou: FMM=F IPFlag=           0 FMFlag=      100000 FMFlg1=           0
         NFxFlg=           0 DoJE=T BraDBF=F KetDBF=T FulRan=T
         wScrn=  0.000000 ICntrl=     500 IOpCl=  0 I1Cent=   200000004 NGrid=           0
         NMat0=    1 NMatS0=      1 NMatT0=    0 NMatD0=    1 NMtDS0=    0 NMtDT0=    0
 Petite list used in FoFCou.
 Initial guess orbital symmetries:
       Occupied  (SGG) (SGU) (SGG) (SGU) (PIU) (PIU) (SGG)
       Virtual   (PIG) (PIG) (SGU) (PIU) (PIU) (SGG) (SGG) (PIG)
                 (PIG) (SGU) (SGU) (PIU) (PIU) (DLTG) (DLTG) (DLTU)
                 (DLTU) (SGG) (PIG) (PIG) (SGU) (PIU) (PIU) (PIG)
                 (PIG) (SGG) (SGU) (SGG) (SGU)
 The electronic state of the initial guess is 1-SGG.
 Keep R1 ints in memory in symmetry-blocked form, NReq=3319124.
 Requested convergence on RMS density matrix=1.00D-08 within 128 cycles.
 Requested convergence on MAX density matrix=1.00D-06.
 Requested convergence on             energy=1.00D-06.
 No special actions if energy rises.
 Inv3:  Mode=1 IEnd=      544428.
 Iteration    1 A*A^-1 deviation from unit magnitude is 3.00D-15 for    411.
 Iteration    1 A*A^-1 deviation from orthogonality  is 1.39D-15 for    256    110.
 Iteration    1 A^-1*A deviation from unit magnitude is 3.00D-15 for    411.
 Iteration    1 A^-1*A deviation from orthogonality  is 7.22D-16 for    370    156.
 Error on total polarization charges =  0.00495
 SCF Done:  E(RHF) =  -108.964859090     A.U. after    9 cycles
            NFock=  9  Conv=0.79D-09     -V/T= 2.0029
 SMD-CDS (non-electrostatic) energy       (kcal/mol) =       0.00
 (included in total energy above)
 Range of M.O.s used for correlation:     1    36
 NBasis=    36 NAE=     7 NBE=     7 NFC=     0 NFV=     0
 NROrb=     36 NOA=     7 NOB=     7 NVA=    29 NVB=    29
 Fully direct method using O(ONN) memory.
 JobTyp=1 Pass  1:  I=   1 to   7 NPSUse=  8 ParTrn=T ParDer=T DoDerP=T.
 Spin components of T(2) and E(2):
     alpha-alpha T2 =       0.1554888074D-01 E2=     -0.4642129925D-01
     alpha-beta  T2 =       0.8535611298D-01 E2=     -0.2771318586D+00
     beta-beta   T2 =       0.1554888074D-01 E2=     -0.4642129925D-01
 ANorm=    0.1056623809D+01
 E2 =    -0.3699744571D+00 EUMP2 =    -0.10933483354743D+03
          IDoAtm=11
 NEqPCM:  Using equilibrium solvation (IEInf=0, Eps=  78.3553, EpsInf=   1.7778)
          Differentiating once with respect to electric field.
                with respect to dipole field.
          Differentiating once with respect to nuclear coordinates.
 Keep R1 ints in memory in symmetry-blocked form, NReq=2124125.
          There are     1 degrees of freedom in the 1st order CPHF.  IDoFFX=0 NUNeed=     1.
 LinEq1:  Iter=  0 NonCon=     1 RMS=1.06D-02 Max=7.99D-02 NDo=     1
 AX will form     1 AO Fock derivatives at one time.
 LinEq1:  Iter=  1 NonCon=     1 RMS=2.45D-03 Max=2.05D-02 NDo=     1
 LinEq1:  Iter=  2 NonCon=     1 RMS=3.25D-04 Max=2.05D-03 NDo=     1
 LinEq1:  Iter=  3 NonCon=     1 RMS=4.86D-05 Max=4.02D-04 NDo=     1
 LinEq1:  Iter=  4 NonCon=     1 RMS=3.51D-06 Max=2.07D-05 NDo=     1
 LinEq1:  Iter=  5 NonCon=     1 RMS=3.58D-07 Max=2.05D-06 NDo=     1
 LinEq1:  Iter=  6 NonCon=     1 RMS=1.55D-08 Max=8.78D-08 NDo=     1
 LinEq1:  Iter=  7 NonCon=     1 RMS=8.50D-10 Max=4.32D-09 NDo=     1
 LinEq1:  Iter=  8 NonCon=     0 RMS=3.42D-11 Max=2.30D-10 NDo=     1
 Linear equations converged to 1.000D-10 1.000D-09 after     8 iterations.
 End of Minotr F.D. properties file   721 does not exist.
 End of Minotr F.D. properties file   722 does not exist.
 End of Minotr F.D. properties file   788 does not exist.

 **********************************************************************

            Population analysis using the SCF density.

 **********************************************************************

 Orbital symmetries:
       Occupied  (SGG) (SGU) (SGG) (SGU) (SGG) (PIU) (PIU)
       Virtual   (PIG) (PIG) (SGU) (SGG) (PIU) (PIU) (SGG) (PIG)
                 (PIG) (SGU) (SGU) (DLTG) (DLTG) (PIU) (PIU) (DLTU)
                 (DLTU) (SGG) (PIG) (PIG) (SGU) (PIU) (PIU) (PIG)
                 (PIG) (SGG) (SGU) (SGG) (SGU)
 The electronic state is 1-SGG.
 Alpha  occ. eigenvalues --  -15.68689 -15.68376  -1.45493  -0.78185  -0.62845
 Alpha  occ. eigenvalues --   -0.60014  -0.60014
 Alpha virt. eigenvalues --    0.15759   0.15759   0.54604   0.68888   0.71538
 Alpha virt. eigenvalues --    0.71538   0.81437   0.89367   0.89367   1.00084
 Alpha virt. eigenvalues --    1.35408   1.97487   1.97487   1.99439   1.99439
 Alpha virt. eigenvalues --    2.48554   2.48554   2.73430   3.16799   3.16799
 Alpha virt. eigenvalues --    3.46475   3.98795   3.98795   4.32751   4.32751
 Alpha virt. eigenvalues --    4.57058   4.78603  36.33217  37.56559
          Condensed to atoms (all electrons):
               1          2
     1  N    6.354868   0.645132
     2  N    0.645132   6.354868
 Mulliken charges:
               1
     1  N    0.000000
     2  N    0.000000
 Sum of Mulliken charges =   0.00000
 Mulliken charges with hydrogens summed into heavy atoms:
               1
     1  N    0.000000
     2  N    0.000000
 Electronic spatial extent (au):  <R**2>=             39.8229
 Charge=              0.0000 electrons
 Dipole moment (field-independent basis, Debye):
    X=              0.0000    Y=              0.0000    Z=              0.0000  Tot=              0.0000
 Quadrupole moment (field-independent basis, Debye-Ang):
   XX=            -10.3052   YY=            -10.3052   ZZ=            -11.8989
   XY=              0.0000   XZ=              0.0000   YZ=              0.0000
 Traceless Quadrupole moment (field-independent basis, Debye-Ang):
   XX=              0.5312   YY=              0.5312   ZZ=             -1.0625
   XY=              0.0000   XZ=              0.0000   YZ=              0.0000
 Octapole moment (field-independent basis, Debye-Ang**2):
  XXX=              0.0000  YYY=              0.0000  ZZZ=              0.0000  XYY=              0.0000
  XXY=              0.0000  XXZ=              0.0000  XZZ=              0.0000  YZZ=              0.0000
  YYZ=              0.0000  XYZ=              0.0000
 Hexadecapole moment (field-independent basis, Debye-Ang**3):
 XXXX=             -8.5184 YYYY=             -8.5184 ZZZZ=            -32.1964 XXXY=              0.0000
 XXXZ=              0.0000 YYYX=              0.0000 YYYZ=              0.0000 ZZZX=              0.0000
 ZZZY=              0.0000 XXYY=             -2.8395 XXZZ=             -6.3577 YYZZ=             -6.3577
 XXYZ=              0.0000 YYXZ=              0.0000 ZZXY=              0.0000
 N-N= 2.317029499360D+01 E-N=-3.020079891804D+02  KE= 1.086547677977D+02
 Symmetry AG   KE= 5.330482763369D+01
 Symmetry B1G  KE= 1.177013744735D-34
 Symmetry B2G  KE= 1.055158421786D-32
 Symmetry B3G  KE= 1.130869051688D-32
 Symmetry AU   KE= 4.320142806699D-34
 Symmetry B1U  KE= 4.890666970507D+01
 Symmetry B2U  KE= 3.221635229449D+00
 Symmetry B3U  KE= 3.221635229449D+00
 D1PCM: PCM CHGder 1st derivatives, ID1Alg=3 FixD1E=F DoIter=F DoCFld=F I1PDM=2.
 Calling FoFJK, ICntrl=  10002127 FMM=F ISym2X=1 I1Cent= 0 IOpClX= 0 NMat=1 NMatS=1 NMatT=0.
 ***** Axes restored to original set *****
 -------------------------------------------------------------------
 Center     Atomic                   Forces (Hartrees/Bohr)
 Number     Number              X              Y              Z
 -------------------------------------------------------------------
      1        7           0.000000000    0.000000000    0.001066052
      2        7           0.000000000    0.000000000   -0.001066052
 -------------------------------------------------------------------
 Cartesian Forces:  Max     0.001066052 RMS     0.000615486

 GradGradGradGradGradGradGradGradGradGradGradGradGradGradGradGradGradGrad
 Berny optimization.
 FormGI is forming the generalized inverse of G from B-inverse, IUseBI=4.
 Internal  Forces:  Max     0.001066052 RMS     0.001066052
 Search for a local minimum.
 Step number   1 out of a maximum of   20
 All quantities printed in internal units (Hartrees-Bohrs-Radians)
 Mixed Optimization -- RFO/linear search
 Second derivative matrix not updated -- first step.
 The second derivative matrix:
                          R1
           R1           1.58789
 ITU=  0
     Eigenvalues ---    1.58789
 RFO step:  Lambda=-7.15709650D-07 EMin= 1.58788815D+00
 Linear search not attempted -- first point.
 Iteration  1 RMS(Cart)=  0.00047473 RMS(Int)=  0.00000000
 Iteration  2 RMS(Cart)=  0.00000000 RMS(Int)=  0.00000000
 ClnCor:  largest displacement from symmetrization is 4.44D-16 for atom     2.
 Variable       Old X    -DE/DX   Delta X   Delta X   Delta X     New X
                                 (Linear)    (Quad)   (Total)
    R1        2.11478  -0.00107   0.00000  -0.00067  -0.00067   2.11411
         Item               Value     Threshold  Converged?
 Maximum Force            0.001066     0.000450     NO 
 RMS     Force            0.001066     0.000300     NO 
 Maximum Displacement     0.000336     0.001800     YES
 RMS     Displacement     0.000475     0.001200     YES
 Predicted change in Energy=-3.578550D-07
 GradGradGradGradGradGradGradGradGradGradGradGradGradGradGradGradGradGrad

                          Input orientation:                          
 ---------------------------------------------------------------------
 Center     Atomic      Atomic             Coordinates (Angstroms)
 Number     Number       Type             X           Y           Z
 ---------------------------------------------------------------------
      1          7           0        0.000000    0.000000   -0.024368
      2          7           0        0.000000    0.000000    1.094368
 ---------------------------------------------------------------------
 Stoichiometry    N2
 Framework group  D*H[C*(N.N)]
 Deg. of freedom     1
 Full point group                 D*H     NOp   8
 Largest Abelian subgroup         D2H     NOp   8
 Largest concise Abelian subgroup C2      NOp   2
                         Standard orientation:                         
 ---------------------------------------------------------------------
 Center     Atomic      Atomic             Coordinates (Angstroms)
 Number     Number       Type             X           Y           Z
 ---------------------------------------------------------------------
      1          7           0        0.000000    0.000000    0.559368
      2          7           0        0.000000    0.000000   -0.559368
 ---------------------------------------------------------------------
 Rotational constants (GHZ):      0.0000000     57.6724366     57.6724366
 Standard basis: 6-311G(d,p) (5D, 7F)
 There are    10 symmetry adapted cartesian basis functions of AG  symmetry.
 There are     1 symmetry adapted cartesian basis functions of B1G symmetry.
 There are     4 symmetry adapted cartesian basis functions of B2G symmetry.
 There are     4 symmetry adapted cartesian basis functions of B3G symmetry.
 There are     1 symmetry adapted cartesian basis functions of AU  symmetry.
 There are    10 symmetry adapted cartesian basis functions of B1U symmetry.
 There are     4 symmetry adapted cartesian basis functions of B2U symmetry.
 There are     4 symmetry adapted cartesian basis functions of B3U symmetry.
 There are     9 symmetry adapted basis functions of AG  symmetry.
 There are     1 symmetry adapted basis functions of B1G symmetry.
 There are     4 symmetry adapted basis functions of B2G symmetry.
 There are     4 symmetry adapted basis functions of B3G symmetry.
 There are     1 symmetry adapted basis functions of AU  symmetry.
 There are     9 symmetry adapted basis functions of B1U symmetry.
 There are     4 symmetry adapted basis functions of B2U symmetry.
 There are     4 symmetry adapted basis functions of B3U symmetry.
    36 basis functions,    64 primitive gaussians,    38 cartesian basis functions
     7 alpha electrons        7 beta electrons
       nuclear repulsion energy        23.1776530536 Hartrees.
 NAtoms=    2 NActive=    2 NUniq=    1 SFac= 4.00D+00 NAtFMM=   60 NAOKFM=F Big=F
 Integral buffers will be    131072 words long.
 Raffenetti 1 integral format.
 Two-electron integral symmetry is turned on.
 ------------------------------------------------------------------------------
 Polarizable Continuum Model (PCM)
 =================================
 Model                : PCM (using non-symmetric T matrix).
 Atomic radii         : SMD-Coulomb.
 Polarization charges : Total charges.
 Charge compensation  : None.
 Solution method      : On-the-fly selection.
 Cavity type          : VdW (van der Waals Surface) (Alpha=1.000).
 Cavity algorithm     : GePol (No added spheres)
                        Default sphere list used, NSphG=    2.
                        Lebedev-Laikov grids with approx.  5.0 points / Ang**2.
                        Smoothing algorithm: Karplus/York (Gamma=1.0000).
                        Polarization charges: spherical gaussians, with
                                              point-specific exponents (IZeta= 3).
                        Self-potential: point-specific (ISelfS= 7).
                        Self-field    : sphere-specific E.n sum rule (ISelfD= 2).
 1st derivatives      : Analytical E(r).r(x)/FMM algorithm (CHGder, D1EAlg=3).
                        Cavity 1st derivative terms included.
 Solvent              : Water, Eps=  78.355300 Eps(inf)=   1.777849
 ------------------------------------------------------------------------------
 Spheres list:
 ISph  on   Nord     Re0    Alpha      Xe            Ye            Ze
    1   N      1    1.8900  1.000      0.000000      0.000000      0.559368
    2   N      2    1.8900  1.000      0.000000      0.000000     -0.559368
 ------------------------------------------------------------------------------
 ------------------------------------------------------------------------------
 Atomic radii for non-electrostatic terms: SMD-CDS.
 ------------------------------------------------------------------------------
 One-electron integrals computed using PRISM.
 NBasis=    36 RedAO= T EigKep=  7.80D-03  NBF=     9     1     4     4     1     9     4     4
 NBsUse=    36 1.00D-06 EigRej= -1.00D+00 NBFU=     9     1     4     4     1     9     4     4
 Initial guess from the checkpoint file:  "N2smd.chk"
 B after Tr=     0.000000    0.000000    0.000000
         Rot=    1.000000    0.000000    0.000000    0.000000 Ang=   0.00 deg.
 Initial guess orbital symmetries:
       Occupied  (SGG) (SGU) (SGG) (SGU) (SGG) (PIU) (PIU)
       Virtual   (SGG) (SGG) (SGG) (SGG) (DLTG) (SGG) (DLTG) (PIG)
                 (PIG) (PIG) (PIG) (PIG) (PIG) (PIG) (PIG) (DLTU)
                 (SGU) (SGU) (SGU) (DLTU) (SGU) (SGU) (SGU) (PIU)
                 (PIU) (PIU) (PIU) (PIU) (PIU)
 Keep R1 ints in memory in symmetry-blocked form, NReq=3319124.
 Requested convergence on RMS density matrix=1.00D-08 within 128 cycles.
 Requested convergence on MAX density matrix=1.00D-06.
 Requested convergence on             energy=1.00D-06.
 No special actions if energy rises.
 Inv3:  Mode=1 IEnd=      544428.
 Iteration    1 A*A^-1 deviation from unit magnitude is 2.22D-15 for     89.
 Iteration    1 A*A^-1 deviation from orthogonality  is 1.18D-15 for    368    154.
 Iteration    1 A^-1*A deviation from unit magnitude is 2.44D-15 for      1.
 Iteration    1 A^-1*A deviation from orthogonality  is 6.43D-16 for    368    154.
 Error on total polarization charges =  0.00495
 SCF Done:  E(RHF) =  -108.964964544     A.U. after    6 cycles
            NFock=  6  Conv=0.25D-08     -V/T= 2.0028
 SMD-CDS (non-electrostatic) energy       (kcal/mol) =       0.00
 (included in total energy above)
 Range of M.O.s used for correlation:     1    36
 NBasis=    36 NAE=     7 NBE=     7 NFC=     0 NFV=     0
 NROrb=     36 NOA=     7 NOB=     7 NVA=    29 NVB=    29
 Fully direct method using O(ONN) memory.
 JobTyp=1 Pass  1:  I=   1 to   7 NPSUse=  8 ParTrn=T ParDer=T DoDerP=T.
 Spin components of T(2) and E(2):
     alpha-alpha T2 =       0.1553590223D-01 E2=     -0.4640544963D-01
     alpha-beta  T2 =       0.8529312462D-01 E2=     -0.2770585352D+00
     beta-beta   T2 =       0.1553590223D-01 E2=     -0.4640544963D-01
 ANorm=    0.1056581719D+01
 E2 =    -0.3698694345D+00 EUMP2 =    -0.10933483397809D+03
          IDoAtm=11
 NEqPCM:  Using equilibrium solvation (IEInf=0, Eps=  78.3553, EpsInf=   1.7778)
          Differentiating once with respect to electric field.
                with respect to dipole field.
          Differentiating once with respect to nuclear coordinates.
 Keep R1 ints in memory in symmetry-blocked form, NReq=2124125.
          There are     1 degrees of freedom in the 1st order CPHF.  IDoFFX=0 NUNeed=     1.
 LinEq1:  Iter=  0 NonCon=     1 RMS=1.06D-02 Max=7.98D-02 NDo=     1
 AX will form     1 AO Fock derivatives at one time.
 LinEq1:  Iter=  1 NonCon=     1 RMS=2.44D-03 Max=2.05D-02 NDo=     1
 LinEq1:  Iter=  2 NonCon=     1 RMS=3.24D-04 Max=2.05D-03 NDo=     1
 LinEq1:  Iter=  3 NonCon=     1 RMS=4.86D-05 Max=4.02D-04 NDo=     1
 LinEq1:  Iter=  4 NonCon=     1 RMS=3.51D-06 Max=2.07D-05 NDo=     1
 LinEq1:  Iter=  5 NonCon=     1 RMS=3.57D-07 Max=2.05D-06 NDo=     1
 LinEq1:  Iter=  6 NonCon=     1 RMS=1.55D-08 Max=8.76D-08 NDo=     1
 LinEq1:  Iter=  7 NonCon=     1 RMS=8.49D-10 Max=4.32D-09 NDo=     1
 LinEq1:  Iter=  8 NonCon=     0 RMS=3.40D-11 Max=2.30D-10 NDo=     1
 Linear equations converged to 1.000D-10 1.000D-09 after     8 iterations.
 End of Minotr F.D. properties file   721 does not exist.
 End of Minotr F.D. properties file   722 does not exist.
 End of Minotr F.D. properties file   788 does not exist.
 D1PCM: PCM CHGder 1st derivatives, ID1Alg=3 FixD1E=F DoIter=F DoCFld=F I1PDM=2.
 Calling FoFJK, ICntrl=  10002127 FMM=F ISym2X=1 I1Cent= 0 IOpClX= 0 NMat=1 NMatS=1 NMatT=0.
 ***** Axes restored to original set *****
 -------------------------------------------------------------------
 Center     Atomic                   Forces (Hartrees/Bohr)
 Number     Number              X              Y              Z
 -------------------------------------------------------------------
      1        7           0.000000000    0.000000000    0.000215761
      2        7           0.000000000    0.000000000   -0.000215761
 -------------------------------------------------------------------
 Cartesian Forces:  Max     0.000215761 RMS     0.000124569

 GradGradGradGradGradGradGradGradGradGradGradGradGradGradGradGradGradGrad
 Berny optimization.
 Using GEDIIS/GDIIS optimizer.
 Internal  Forces:  Max     0.000215761 RMS     0.000215761
 Search for a local minimum.
 Step number   2 out of a maximum of   20
 All quantities printed in internal units (Hartrees-Bohrs-Radians)
 Mixed Optimization -- En-DIIS/RFO-DIIS
 Update second derivatives using D2CorX and points    2
 DE= -4.31D-07 DEPred=-3.58D-07 R= 1.20D+00
 Trust test= 1.20D+00 RLast= 6.71D-04 DXMaxT set to 3.00D-01
 The second derivative matrix:
                          R1
           R1           1.58789
 ITU=  0  0
 Use linear search instead of GDIIS.
     Eigenvalues ---    1.58789
 RFO step:  Lambda= 0.00000000D+00 EMin= 1.58788815D+00
 Quartic linear search produced a step of  0.25247.
 Iteration  1 RMS(Cart)=  0.00011986 RMS(Int)=  0.00000000
 Iteration  2 RMS(Cart)=  0.00000000 RMS(Int)=  0.00000000
 ClnCor:  largest displacement from symmetrization is 5.19D-21 for atom     1.
 Variable       Old X    -DE/DX   Delta X   Delta X   Delta X     New X
                                 (Linear)    (Quad)   (Total)
    R1        2.11411  -0.00022  -0.00017   0.00000  -0.00017   2.11394
         Item               Value     Threshold  Converged?
 Maximum Force            0.000216     0.000450     YES
 RMS     Force            0.000216     0.000300     YES
 Maximum Displacement     0.000085     0.001800     YES
 RMS     Displacement     0.000120     0.001200     YES
 Predicted change in Energy=-1.376112D-08
 Optimization completed.
    -- Stationary point found.
                           ----------------------------
                           !   Optimized Parameters   !
                           ! (Angstroms and Degrees)  !
 --------------------------                            --------------------------
 ! Name  Definition              Value          Derivative Info.                !
 --------------------------------------------------------------------------------
 ! R1    R(1,2)                  1.1187         -DE/DX =   -0.0002              !
 --------------------------------------------------------------------------------
 GradGradGradGradGradGradGradGradGradGradGradGradGradGradGradGradGradGrad

                          Input orientation:                          
 ---------------------------------------------------------------------
 Center     Atomic      Atomic             Coordinates (Angstroms)
 Number     Number       Type             X           Y           Z
 ---------------------------------------------------------------------
      1          7           0        0.000000    0.000000   -0.024368
      2          7           0        0.000000    0.000000    1.094368
 ---------------------------------------------------------------------
 Stoichiometry    N2
 Framework group  D*H[C*(N.N)]
 Deg. of freedom     1
 Full point group                 D*H     NOp   8
 Largest Abelian subgroup         D2H     NOp   8
 Largest concise Abelian subgroup C2      NOp   2
                         Standard orientation:                         
 ---------------------------------------------------------------------
 Center     Atomic      Atomic             Coordinates (Angstroms)
 Number     Number       Type             X           Y           Z
 ---------------------------------------------------------------------
      1          7           0        0.000000    0.000000    0.559368
      2          7           0        0.000000    0.000000   -0.559368
 ---------------------------------------------------------------------
 Rotational constants (GHZ):      0.0000000     57.6724366     57.6724366

 **********************************************************************

            Population analysis using the SCF density.

 **********************************************************************

 Orbital symmetries:
       Occupied  (SGG) (SGU) (SGG) (SGU) (SGG) (PIU) (PIU)
       Virtual   (PIG) (PIG) (SGU) (SGG) (PIU) (PIU) (SGG) (PIG)
                 (PIG) (SGU) (SGU) (DLTG) (DLTG) (PIU) (PIU) (DLTU)
                 (DLTU) (SGG) (PIG) (PIG) (SGU) (PIU) (PIU) (PIG)
                 (PIG) (SGG) (SGU) (SGG) (SGU)
 The electronic state is 1-SGG.
 Alpha  occ. eigenvalues --  -15.68677 -15.68364  -1.45519  -0.78174  -0.62848
 Alpha  occ. eigenvalues --   -0.60029  -0.60029
 Alpha virt. eigenvalues --    0.15777   0.15777   0.54615   0.68882   0.71531
 Alpha virt. eigenvalues --    0.71531   0.81439   0.89376   0.89376   1.00116
 Alpha virt. eigenvalues --    1.35455   1.97472   1.97472   1.99470   1.99470
 Alpha virt. eigenvalues --    2.48580   2.48580   2.73449   3.16847   3.16847
 Alpha virt. eigenvalues --    3.46550   3.98808   3.98808   4.32773   4.32773
 Alpha virt. eigenvalues --    4.57146   4.78511  36.33210  37.56785
          Condensed to atoms (all electrons):
               1          2
     1  N    6.354685   0.645315
     2  N    0.645315   6.354685
 Mulliken charges:
               1
     1  N    0.000000
     2  N    0.000000
 Sum of Mulliken charges =   0.00000
 Mulliken charges with hydrogens summed into heavy atoms:
               1
     1  N    0.000000
     2  N    0.000000
 Electronic spatial extent (au):  <R**2>=             39.8109
 Charge=              0.0000 electrons
 Dipole moment (field-independent basis, Debye):
    X=              0.0000    Y=              0.0000    Z=              0.0000  Tot=              0.0000
 Quadrupole moment (field-independent basis, Debye-Ang):
   XX=            -10.3040   YY=            -10.3040   ZZ=            -11.8987
   XY=              0.0000   XZ=              0.0000   YZ=              0.0000
 Traceless Quadrupole moment (field-independent basis, Debye-Ang):
   XX=              0.5316   YY=              0.5316   ZZ=             -1.0631
   XY=              0.0000   XZ=              0.0000   YZ=              0.0000
 Octapole moment (field-independent basis, Debye-Ang**2):
  XXX=              0.0000  YYY=              0.0000  ZZZ=              0.0000  XYY=              0.0000
  XXY=              0.0000  XXZ=              0.0000  XZZ=              0.0000  YZZ=              0.0000
  YYZ=              0.0000  XYZ=              0.0000
 Hexadecapole moment (field-independent basis, Debye-Ang**3):
 XXXX=             -8.5164 YYYY=             -8.5164 ZZZZ=            -32.1826 XXXY=              0.0000
 XXXZ=              0.0000 YYYX=              0.0000 YYYZ=              0.0000 ZZZX=              0.0000
 ZZZY=              0.0000 XXYY=             -2.8388 XXZZ=             -6.3551 YYZZ=             -6.3551
 XXYZ=              0.0000 YYXZ=              0.0000 ZZXY=              0.0000
 N-N= 2.317765305360D+01 E-N=-3.020245948068D+02  KE= 1.086569070753D+02
 Symmetry AG   KE= 5.330647554520D+01
 Symmetry B1G  KE= 1.178369619538D-34
 Symmetry B2G  KE= 2.725419287423D-32
 Symmetry B3G  KE= 3.526790123945D-32
 Symmetry AU   KE= 4.325375906839D-34
 Symmetry B1U  KE= 4.890627625580D+01
 Symmetry B2U  KE= 3.222077637138D+00
 Symmetry B3U  KE= 3.222077637138D+00
 1\1\GINC-TC-NODE161\FOpt\RMP2-Full\6-311G(d,p)\N2\MAXB2\25-Oct-2016\0\
 \# opt freq mp2(full)/6-311g** scrf=(smd,solvent=water) geom=allcheck\
 \Title Card Required\\0,1\N,0.,0.,-0.0243681802\N,0.,0.,1.0943681802\\
 Version=ES64L-G09RevD.01\State=1-SGG\HF=-108.9649645\MP2=-109.334834\R
 MSD=2.545e-09\RMSF=1.246e-04\Dipole=0.,0.,0.\PG=D*H [C*(N1.N1)]\\@


 HE WHO LOVES TO READ, AND KNOWS HOW TO REFLECT,
 HAS LAID BY A PERPETUAL FEAST FOR HIS OLD AGE.
 -- UNCLE ESEK, "SCRIBNER'S MONTHLY", SEPT. 1880
 Job cpu time:       0 days  0 hours  0 minutes 47.7 seconds.
 File lengths (MBytes):  RWF=      9 Int=      0 D2E=      0 Chk=      2 Scr=      1
 Normal termination of Gaussian 09 at Tue Oct 25 12:14:35 2016.
 Link1:  Proceeding to internal job step number  2.
 ----------------------------------------------------------------------
 #N Geom=AllCheck Guess=TCheck SCRF=Check GenChk RMP2-Full/6-311G(d,p) 
 Freq
 ----------------------------------------------------------------------
 1/10=4,29=7,30=1,38=1,40=1/1,3;
 2/12=2,40=1/2;
 3/5=4,6=6,7=101,11=1,14=-4,16=1,25=1,30=1,70=2,71=2,72=1,116=1,140=1/1,2,3;
 4/5=101/1;
 5/5=2,53=1,98=1/2;
 8/6=3,8=1,10=90,19=11/1;
 9/15=3,16=-3/6;
 11/6=1,8=1,15=11,17=11,24=-1,27=1,28=-2,29=300,32=6,42=3/1,2,10;
 10/6=2,21=1/2;
 8/6=4,8=1,10=90,19=11/11,4;
 10/5=1,20=4/2;
 11/12=2,14=11,16=1,28=-2,42=3/2,10,12;
 6/7=2,8=2,9=2,10=2/1;
 7/8=1,10=1,12=2,25=1,44=2/1,2,3,16;
 1/10=4,30=1/3;
 99//99;
 Structure from the checkpoint file:  "N2smd.chk"
 -------------------
 Title Card Required
 -------------------
 Charge =  0 Multiplicity = 1
 Redundant internal coordinates found in file.
 N,0,0.,0.,-0.0243681802
 N,0,0.,0.,1.0943681802
 Recover connectivity data from disk.

 GradGradGradGradGradGradGradGradGradGradGradGradGradGradGradGradGradGrad
 Berny optimization.
 Initialization pass.
                           ----------------------------
                           !    Initial Parameters    !
                           ! (Angstroms and Degrees)  !
 --------------------------                            --------------------------
 ! Name  Definition              Value          Derivative Info.                !
 --------------------------------------------------------------------------------
 ! R1    R(1,2)                  1.1187         calculate D2E/DX2 analytically  !
 --------------------------------------------------------------------------------
 Trust Radius=3.00D-01 FncErr=1.00D-07 GrdErr=1.00D-07
 Number of steps in this run=      2 maximum allowed number of steps=      2.
 GradGradGradGradGradGradGradGradGradGradGradGradGradGradGradGradGradGrad

                          Input orientation:                          
 ---------------------------------------------------------------------
 Center     Atomic      Atomic             Coordinates (Angstroms)
 Number     Number       Type             X           Y           Z
 ---------------------------------------------------------------------
      1          7           0        0.000000    0.000000   -0.024368
      2          7           0        0.000000    0.000000    1.094368
 ---------------------------------------------------------------------
 Stoichiometry    N2
 Framework group  D*H[C*(N.N)]
 Deg. of freedom     1
 Full point group                 D*H     NOp   8
 Largest Abelian subgroup         D2H     NOp   8
 Largest concise Abelian subgroup C2      NOp   2
                         Standard orientation:                         
 ---------------------------------------------------------------------
 Center     Atomic      Atomic             Coordinates (Angstroms)
 Number     Number       Type             X           Y           Z
 ---------------------------------------------------------------------
      1          7           0        0.000000    0.000000    0.559368
      2          7           0        0.000000    0.000000   -0.559368
 ---------------------------------------------------------------------
 Rotational constants (GHZ):      0.0000000     57.6724366     57.6724366
 Standard basis: 6-311G(d,p) (5D, 7F)
 There are    10 symmetry adapted cartesian basis functions of AG  symmetry.
 There are     1 symmetry adapted cartesian basis functions of B1G symmetry.
 There are     4 symmetry adapted cartesian basis functions of B2G symmetry.
 There are     4 symmetry adapted cartesian basis functions of B3G symmetry.
 There are     1 symmetry adapted cartesian basis functions of AU  symmetry.
 There are    10 symmetry adapted cartesian basis functions of B1U symmetry.
 There are     4 symmetry adapted cartesian basis functions of B2U symmetry.
 There are     4 symmetry adapted cartesian basis functions of B3U symmetry.
 There are     9 symmetry adapted basis functions of AG  symmetry.
 There are     1 symmetry adapted basis functions of B1G symmetry.
 There are     4 symmetry adapted basis functions of B2G symmetry.
 There are     4 symmetry adapted basis functions of B3G symmetry.
 There are     1 symmetry adapted basis functions of AU  symmetry.
 There are     9 symmetry adapted basis functions of B1U symmetry.
 There are     4 symmetry adapted basis functions of B2U symmetry.
 There are     4 symmetry adapted basis functions of B3U symmetry.
    36 basis functions,    64 primitive gaussians,    38 cartesian basis functions
     7 alpha electrons        7 beta electrons
       nuclear repulsion energy        23.1776530536 Hartrees.
 NAtoms=    2 NActive=    2 NUniq=    1 SFac= 4.00D+00 NAtFMM=   60 NAOKFM=F Big=F
 Integral buffers will be    131072 words long.
 Raffenetti 1 integral format.
 Two-electron integral symmetry is turned on.
 Force inversion solution in PCM.
 ------------------------------------------------------------------------------
 Polarizable Continuum Model (PCM)
 =================================
 Model                : PCM (using non-symmetric T matrix).
 Atomic radii         : SMD-Coulomb.
 Polarization charges : Total charges.
 Charge compensation  : None.
 Solution method      : Matrix inversion.
 Cavity type          : VdW (van der Waals Surface) (Alpha=1.000).
 Cavity algorithm     : GePol (No added spheres)
                        Default sphere list used, NSphG=    2.
                        Lebedev-Laikov grids with approx.  5.0 points / Ang**2.
                        Smoothing algorithm: Karplus/York (Gamma=1.0000).
                        Polarization charges: spherical gaussians, with
                                              point-specific exponents (IZeta= 3).
                        Self-potential: point-specific (ISelfS= 7).
                        Self-field    : sphere-specific E.n sum rule (ISelfD= 2).
 1st derivatives      : Analytical E(r).r(x)/FMM algorithm (CHGder, D1EAlg=3).
                        Cavity 1st derivative terms included.
 2nd derivatives      : Analytical E(r).r(xy)/FMM algorithm (CHGder, D2EAlg=3).
                        Cavity 2nd derivative terms included.
 Solvent              : Water, Eps=  78.355300 Eps(inf)=   1.777849
 ------------------------------------------------------------------------------
 Spheres list:
 ISph  on   Nord     Re0    Alpha      Xe            Ye            Ze
    1   N      1    1.8900  1.000      0.000000      0.000000      0.559368
    2   N      2    1.8900  1.000      0.000000      0.000000     -0.559368
 ------------------------------------------------------------------------------
 ------------------------------------------------------------------------------
 Atomic radii for non-electrostatic terms: SMD-CDS.
 ------------------------------------------------------------------------------
 One-electron integrals computed using PRISM.
 NBasis=    36 RedAO= T EigKep=  7.80D-03  NBF=     9     1     4     4     1     9     4     4
 NBsUse=    36 1.00D-06 EigRej= -1.00D+00 NBFU=     9     1     4     4     1     9     4     4
 Initial guess from the checkpoint file:  "N2smd.chk"
 B after Tr=     0.000000    0.000000    0.000000
         Rot=    1.000000    0.000000    0.000000    0.000000 Ang=   0.00 deg.
 Initial guess orbital symmetries:
       Occupied  (SGG) (SGU) (SGG) (SGU) (SGG) (PIU) (PIU)
       Virtual   (PIG) (PIG) (SGU) (SGG) (PIU) (PIU) (SGG) (PIG)
                 (PIG) (SGU) (SGU) (DLTG) (DLTG) (PIU) (PIU) (DLTU)
                 (DLTU) (SGG) (PIG) (PIG) (SGU) (PIU) (PIU) (PIG)
                 (PIG) (SGG) (SGU) (SGG) (SGU)
 Keep R1 ints in memory in symmetry-blocked form, NReq=3319124.
 Requested convergence on RMS density matrix=1.00D-08 within 128 cycles.
 Requested convergence on MAX density matrix=1.00D-06.
 Requested convergence on             energy=1.00D-06.
 No special actions if energy rises.
 Inv3:  Mode=1 IEnd=      544428.
 Iteration    1 A*A^-1 deviation from unit magnitude is 2.44D-15 for    120.
 Iteration    1 A*A^-1 deviation from orthogonality  is 1.16D-15 for    256    110.
 Iteration    1 A^-1*A deviation from unit magnitude is 2.44D-15 for      1.
 Iteration    1 A^-1*A deviation from orthogonality  is 6.11D-16 for    426    424.
 Error on total polarization charges =  0.00495
 SCF Done:  E(RHF) =  -108.964964544     A.U. after    1 cycles
            NFock=  1  Conv=0.14D-09     -V/T= 2.0028
 SMD-CDS (non-electrostatic) energy       (kcal/mol) =       0.00
 (included in total energy above)
 Range of M.O.s used for correlation:     1    36
 NBasis=    36 NAE=     7 NBE=     7 NFC=     0 NFV=     0
 NROrb=     36 NOA=     7 NOB=     7 NVA=    29 NVB=    29
 Disk-based method using ON**2 memory for  7 occupieds at a time.
 Permanent disk used for amplitudes=       49735 words.
 Estimated scratch disk usage=     1007136 words.
 Actual    scratch disk usage=     1007136 words.
 JobTyp=1 Pass  1:  I=   1 to   7 NPSUse=  8 ParTrn=T ParDer=T DoDerP=T.
 (rs|ai) integrals will be sorted in core.
 Spin components of T(2) and E(2):
     alpha-alpha T2 =       0.1553590222D-01 E2=     -0.4640544962D-01
     alpha-beta  T2 =       0.8529312458D-01 E2=     -0.2770585352D+00
     beta-beta   T2 =       0.1553590222D-01 E2=     -0.4640544962D-01
 ANorm=    0.1056581719D+01
 E2 =    -0.3698694344D+00 EUMP2 =    -0.10933483397801D+03
 G2DrvN: will do     3 centers at a time, making    1 passes.
 Calling FoFCou, ICntrl=  3107 FMM=F I1Cent=   0 AccDes= 0.00D+00.
 NEqPCM:  Using equilibrium solvation (IEInf=0, Eps=  78.3553, EpsInf=   1.7778)
 G2PCM: DoFxE=T DoFxN=T DoGrad=T DoDP/DQ/DG/TGxP=FFFF NFrqRd=   0 IEInf=0 SqF1=F DoCFld=F IF1Alg=4.
 End of G2Drv F.D. properties file   721 does not exist.
 End of G2Drv F.D. properties file   722 does not exist.
 End of G2Drv F.D. properties file   788 does not exist.
          IDoAtm=11
 NEqPCM:  Using equilibrium solvation (IEInf=0, Eps=  78.3553, EpsInf=   1.7778)
          Differentiating once with respect to electric field.
                with respect to dipole field.
          Differentiating once with respect to nuclear coordinates.
 Keep R1 ints in memory in symmetry-blocked form, NReq=2124125.
          There are     9 degrees of freedom in the 1st order CPHF.  IDoFFX=6 NUNeed=     9.
      6 vectors produced by pass  0 Test12= 2.26D-15 1.11D-08 XBig12= 5.05D+00 1.47D+00.
 AX will form     6 AO Fock derivatives at one time.
      6 vectors produced by pass  1 Test12= 2.26D-15 1.11D-08 XBig12= 1.02D+00 4.68D-01.
      6 vectors produced by pass  2 Test12= 2.26D-15 1.11D-08 XBig12= 1.87D-02 6.79D-02.
      6 vectors produced by pass  3 Test12= 2.26D-15 1.11D-08 XBig12= 2.87D-04 6.76D-03.
      6 vectors produced by pass  4 Test12= 2.26D-15 1.11D-08 XBig12= 5.28D-06 8.52D-04.
      6 vectors produced by pass  5 Test12= 2.26D-15 1.11D-08 XBig12= 8.37D-09 3.80D-05.
      6 vectors produced by pass  6 Test12= 2.26D-15 1.11D-08 XBig12= 3.46D-11 2.62D-06.
      3 vectors produced by pass  7 Test12= 2.26D-15 1.11D-08 XBig12= 1.66D-13 1.94D-07.
      1 vectors produced by pass  8 Test12= 2.26D-15 1.11D-08 XBig12= 1.14D-15 1.77D-08.
 InvSVY:  IOpt=1 It=  1 EMax= 2.22D-16
 Solved reduced A of dimension    46 with     6 vectors.
 End of Minotr F.D. properties file   721 does not exist.
 End of Minotr F.D. properties file   722 does not exist.
 End of Minotr F.D. properties file   788 does not exist.
 MDV=   536870912.
 Form MO integral derivatives with frozen-active canonical formalism.
 Discarding MO integrals.
 Reordered first order wavefunction length =        82418
 In DefCFB: NBatch=  1 ICI=  7 ICA= 29 LFMax= 29
            Large arrays: LIAPS=     1110816 LIARS=     1025962 words.
 Semi-Direct transformation.
 ModeAB=           4 MOrb=             7 LenV=     536691560
 LASXX=       136647 LTotXX=      136647 LenRXX=      284809
 LTotAB=      148162 MaxLAS=      112392 LenRXY=           0
 NonZer=      421456 LenScr=     1263616 LnRSAI=      112392
 LnScr1=      785920 LExtra=           0 Total=      2446737
 MaxDsk=          -1 SrtSym=           T ITran=            4
 JobTyp=0 Pass  1:  I=   1 to   7.
 (rs|ai) integrals will be sorted in core.
 Spin components of T(2) and E(2):
     alpha-alpha T2 =       0.1553590222D-01 E2=     -0.4640544962D-01
     alpha-beta  T2 =       0.8529312458D-01 E2=     -0.2770585352D+00
     beta-beta   T2 =       0.1553590222D-01 E2=     -0.4640544962D-01
 ANorm=    0.1494232197D+01
 E2 =    -0.3698694344D+00 EUMP2 =    -0.10933483397801D+03
          IDoAtm=11
 NEqPCM:  Using equilibrium solvation (IEInf=0, Eps=  78.3553, EpsInf=   1.7778)
          Differentiating once with respect to electric field.
                with respect to dipole field.
          Differentiating once with respect to nuclear coordinates.
          There are     1 degrees of freedom in the 1st order CPHF.  IDoFFX=0 NUNeed=     1.
 LinEq1:  Iter=  0 NonCon=     1 RMS=1.06D-02 Max=7.98D-02 NDo=     1
 AX will form     1 AO Fock derivatives at one time.
 LinEq1:  Iter=  1 NonCon=     1 RMS=2.44D-03 Max=2.05D-02 NDo=     1
 LinEq1:  Iter=  2 NonCon=     1 RMS=3.24D-04 Max=2.05D-03 NDo=     1
 LinEq1:  Iter=  3 NonCon=     1 RMS=4.86D-05 Max=4.02D-04 NDo=     1
 LinEq1:  Iter=  4 NonCon=     1 RMS=3.51D-06 Max=2.07D-05 NDo=     1
 LinEq1:  Iter=  5 NonCon=     1 RMS=3.57D-07 Max=2.05D-06 NDo=     1
 LinEq1:  Iter=  6 NonCon=     1 RMS=1.55D-08 Max=8.76D-08 NDo=     1
 LinEq1:  Iter=  7 NonCon=     1 RMS=8.49D-10 Max=4.32D-09 NDo=     1
 LinEq1:  Iter=  8 NonCon=     0 RMS=3.40D-11 Max=2.30D-10 NDo=     1
 Linear equations converged to 1.000D-10 1.000D-09 after     8 iterations.
 End of Minotr F.D. properties file   721 does not exist.
 End of Minotr F.D. properties file   722 does not exist.
 End of Minotr F.D. properties file   788 does not exist.
 Symmetrizing basis deriv contribution to polar:
 IMax=3 JMax=2 DiffMx= 0.00D+00
 G2DrvN: will do     3 centers at a time, making    1 passes.
 Calling FoFCou, ICntrl=  3107 FMM=F I1Cent=   0 AccDes= 0.00D+00.
 NEqPCM:  Using equilibrium solvation (IEInf=0, Eps=  78.3553, EpsInf=   1.7778)
 G2PCM: DoFxE=T DoFxN=F DoGrad=F DoDP/DQ/DG/TGxP=FFFF NFrqRd=   0 IEInf=0 SqF1=F DoCFld=F IF1Alg=4.
 End of G2Drv F.D. properties file   721 does not exist.
 End of G2Drv F.D. properties file   722 does not exist.
 End of G2Drv F.D. properties file   788 does not exist.
 R2 and R3 integrals will be kept in memory, NReq=     1369822.
 DD1Dir will call FoFMem   1 times, MxPair=        56
 NAB=    28 NAA=     0 NBB=     0.
 G2PCM: DoFxE=F DoFxN=F DoGrad=T DoDP/DQ/DG/TGxP=FFFF NFrqRd=   0 IEInf=0 SqF1=F DoCFld=F IF1Alg=4.
 Discarding MO integrals.

 **********************************************************************

            Population analysis using the SCF density.

 **********************************************************************

 Orbital symmetries:
       Occupied  (SGG) (SGU) (SGG) (SGU) (SGG) (PIU) (PIU)
       Virtual   (PIG) (PIG) (SGU) (SGG) (PIU) (PIU) (SGG) (PIG)
                 (PIG) (SGU) (SGU) (DLTG) (DLTG) (PIU) (PIU) (DLTU)
                 (DLTU) (SGG) (PIG) (PIG) (SGU) (PIU) (PIU) (PIG)
                 (PIG) (SGG) (SGU) (SGG) (SGU)
 The electronic state is 1-SGG.
 Alpha  occ. eigenvalues --  -15.68677 -15.68364  -1.45519  -0.78174  -0.62848
 Alpha  occ. eigenvalues --   -0.60029  -0.60029
 Alpha virt. eigenvalues --    0.15777   0.15777   0.54615   0.68882   0.71531
 Alpha virt. eigenvalues --    0.71531   0.81439   0.89376   0.89376   1.00116
 Alpha virt. eigenvalues --    1.35455   1.97472   1.97472   1.99470   1.99470
 Alpha virt. eigenvalues --    2.48580   2.48580   2.73449   3.16847   3.16847
 Alpha virt. eigenvalues --    3.46550   3.98808   3.98808   4.32773   4.32773
 Alpha virt. eigenvalues --    4.57146   4.78511  36.33210  37.56785
          Condensed to atoms (all electrons):
               1          2
     1  N    6.354685   0.645315
     2  N    0.645315   6.354685
 Mulliken charges:
               1
     1  N    0.000000
     2  N    0.000000
 Sum of Mulliken charges =   0.00000
 Mulliken charges with hydrogens summed into heavy atoms:
               1
     1  N    0.000000
     2  N    0.000000
 APT charges:
               1
     1  N    0.000000
     2  N    0.000000
 Sum of APT charges =   0.00000
 APT charges with hydrogens summed into heavy atoms:
               1
     1  N    0.000000
     2  N    0.000000
 Electronic spatial extent (au):  <R**2>=             39.8109
 Charge=              0.0000 electrons
 Dipole moment (field-independent basis, Debye):
    X=              0.0000    Y=              0.0000    Z=              0.0000  Tot=              0.0000
 Quadrupole moment (field-independent basis, Debye-Ang):
   XX=            -10.3040   YY=            -10.3040   ZZ=            -11.8987
   XY=              0.0000   XZ=              0.0000   YZ=              0.0000
 Traceless Quadrupole moment (field-independent basis, Debye-Ang):
   XX=              0.5316   YY=              0.5316   ZZ=             -1.0631
   XY=              0.0000   XZ=              0.0000   YZ=              0.0000
 Octapole moment (field-independent basis, Debye-Ang**2):
  XXX=              0.0000  YYY=              0.0000  ZZZ=              0.0000  XYY=              0.0000
  XXY=              0.0000  XXZ=              0.0000  XZZ=              0.0000  YZZ=              0.0000
  YYZ=              0.0000  XYZ=              0.0000
 Hexadecapole moment (field-independent basis, Debye-Ang**3):
 XXXX=             -8.5164 YYYY=             -8.5164 ZZZZ=            -32.1826 XXXY=              0.0000
 XXXZ=              0.0000 YYYX=              0.0000 YYYZ=              0.0000 ZZZX=              0.0000
 ZZZY=              0.0000 XXYY=             -2.8388 XXZZ=             -6.3551 YYZZ=             -6.3551
 XXYZ=              0.0000 YYXZ=              0.0000 ZZXY=              0.0000
 N-N= 2.317765305360D+01 E-N=-3.020245948065D+02  KE= 1.086569070756D+02
 Symmetry AG   KE= 5.330647554477D+01
 Symmetry B1G  KE= 1.178369619539D-34
 Symmetry B2G  KE= 1.434058390556D-32
 Symmetry B3G  KE= 1.537701875969D-32
 Symmetry AU   KE= 4.325375917640D-34
 Symmetry B1U  KE= 4.890627625690D+01
 Symmetry B2U  KE= 3.222077636985D+00
 Symmetry B3U  KE= 3.222077636985D+00
  Exact polarizability:   6.765   0.000   6.765   0.000   0.000  15.686
 Approx polarizability:   5.506   0.000   5.506   0.000   0.000  17.023
 D2PCM: PCM CHGder 2nd derivatives, FixD1E=F FixD2E=F DoIter=F DoCFld=F I1PDM=2
 Calling FoFJK, ICntrl=  10100127 FMM=F ISym2X=1 I1Cent= 0 IOpClX= 0 NMat=1 NMatS=1 NMatT=0.
 Full mass-weighted force constant matrix:
 Low frequencies ---   -0.0013   -0.0012   -0.0012   17.7429   17.7429 2187.8825
 Diagonal vibrational polarizability:
        0.0000000       0.0000000       0.0000000
 Harmonic frequencies (cm**-1), IR intensities (KM/Mole), Raman scattering
 activities (A**4/AMU), depolarization ratios for plane and unpolarized
 incident light, reduced masses (AMU), force constants (mDyne/A),
 and normal coordinates:
                      1
                     SGG
 Frequencies --   2187.8825
 Red. masses --     14.0031
 Frc consts  --     39.4931
 IR Inten    --      0.0000
  Atom  AN      X      Y      Z
     1   7     0.00   0.00   0.71
     2   7     0.00   0.00  -0.71

 -------------------
 - Thermochemistry -
 -------------------
 Temperature   298.150 Kelvin.  Pressure   1.00000 Atm.
 Atom     1 has atomic number  7 and mass  14.00307
 Atom     2 has atomic number  7 and mass  14.00307
 Molecular mass:    28.00615 amu.
 Principal axes and moments of inertia in atomic units:
                           1         2         3
     Eigenvalues --     0.00000  31.29296  31.29296
           X            0.00000   1.00000   0.00000
           Y            0.00000   0.00000   1.00000
           Z            1.00000   0.00000   0.00000
 This molecule is a prolate symmetric top.
 Rotational symmetry number  2.
 Rotational temperature (Kelvin)      2.76784
 Rotational constant (GHZ):          57.672437
 Zero-point vibrational energy      13086.4 (Joules/Mol)
                                    3.12773 (Kcal/Mol)
 Vibrational temperatures:   3147.87
          (Kelvin)
 
 Zero-point correction=                           0.004984 (Hartree/Particle)
 Thermal correction to Energy=                    0.007345
 Thermal correction to Enthalpy=                  0.008289
 Thermal correction to Gibbs Free Energy=        -0.013488
 Sum of electronic and zero-point Energies=           -109.329850
 Sum of electronic and thermal Energies=              -109.327489
 Sum of electronic and thermal Enthalpies=            -109.326545
 Sum of electronic and thermal Free Energies=         -109.348322
 
                     E (Thermal)             CV                S
                      KCal/Mol        Cal/Mol-Kelvin    Cal/Mol-Kelvin
 Total                    4.609              4.974             45.834
 Electronic               0.000              0.000              0.000
 Translational            0.889              2.981             35.924
 Rotational               0.592              1.987              9.909
 Vibrational              3.128              0.006              0.001
                       Q            Log10(Q)             Ln(Q)
 Total Bot       0.159944D+07          6.203968         14.285164
 Total V=0       0.313770D+09          8.496611         19.564169
 Vib (Bot)       0.509763D-02         -2.292632         -5.278979
 Vib (V=0)       0.100003D+01          0.000011          0.000026
 Electronic      0.100000D+01          0.000000          0.000000
 Translational   0.582553D+07          6.765335         15.577760
 Rotational      0.538597D+02          1.731264          3.986383
 ***** Axes restored to original set *****
 -------------------------------------------------------------------
 Center     Atomic                   Forces (Hartrees/Bohr)
 Number     Number              X              Y              Z
 -------------------------------------------------------------------
      1        7           0.000000000    0.000000000    0.000215760
      2        7           0.000000000    0.000000000   -0.000215760
 -------------------------------------------------------------------
 Cartesian Forces:  Max     0.000215760 RMS     0.000124569
 FormGI is forming the generalized inverse of G from B-inverse, IUseBI=4.

 GradGradGradGradGradGradGradGradGradGradGradGradGradGradGradGradGradGrad
 Berny optimization.
 Internal  Forces:  Max     0.000215760 RMS     0.000215760
 Search for a local minimum.
 Step number   1 out of a maximum of    2
 All quantities printed in internal units (Hartrees-Bohrs-Radians)
 Second derivative matrix not updated -- analytic derivatives used.
 The second derivative matrix:
                          R1
           R1           1.26833
 ITU=  0
     Eigenvalues ---    1.26833
 Angle between quadratic step and forces=   0.00 degrees.
 Linear search not attempted -- first point.
 Iteration  1 RMS(Cart)=  0.00012029 RMS(Int)=  0.00000000
 Iteration  2 RMS(Cart)=  0.00000000 RMS(Int)=  0.00000000
 ClnCor:  largest displacement from symmetrization is 4.44D-16 for atom     2.
 Variable       Old X    -DE/DX   Delta X   Delta X   Delta X     New X
                                 (Linear)    (Quad)   (Total)
    R1        2.11411  -0.00022   0.00000  -0.00017  -0.00017   2.11394
         Item               Value     Threshold  Converged?
 Maximum Force            0.000216     0.000450     YES
 RMS     Force            0.000216     0.000300     YES
 Maximum Displacement     0.000085     0.001800     YES
 RMS     Displacement     0.000120     0.001200     YES
 Predicted change in Energy=-1.835176D-08
 Optimization completed.
    -- Stationary point found.
                           ----------------------------
                           !   Optimized Parameters   !
                           ! (Angstroms and Degrees)  !
 --------------------------                            --------------------------
 ! Name  Definition              Value          Derivative Info.                !
 --------------------------------------------------------------------------------
 ! R1    R(1,2)                  1.1187         -DE/DX =   -0.0002              !
 --------------------------------------------------------------------------------
 GradGradGradGradGradGradGradGradGradGradGradGradGradGradGradGradGradGrad

 1\1\GINC-TC-NODE161\Freq\RMP2-Full\6-311G(d,p)\N2\MAXB2\25-Oct-2016\0\
 \#N Geom=AllCheck Guess=TCheck SCRF=Check GenChk RMP2-Full/6-311G(d,p)
  Freq\\Title Card Required\\0,1\N,0.,0.,-0.0243681802\N,0.,0.,1.094368
 1802\\Version=ES64L-G09RevD.01\State=1-SGG\HF=-108.9649645\MP2=-109.33
 4834\RMSD=1.421e-10\RMSF=1.246e-04\ZeroPoint=0.0049844\Thermal=0.00734
 51\Dipole=0.,0.,0.\DipoleDeriv=0.,0.,0.,0.,0.,0.,0.,0.,0.,0.,0.,0.,0.,
 0.,0.,0.,0.,0.\Polar=6.765289,0.,6.765289,0.,0.,15.6859519\PG=D*H [C*(
 N1.N1)]\NImag=0\\0.00008341,0.,0.00008341,0.,0.,1.26833160,-0.00008341
 ,0.,0.,0.00008341,0.,-0.00008341,0.,0.,0.00008341,0.,0.,-1.26833160,0.
 ,0.,1.26833160\\0.,0.,-0.00021576,0.,0.,0.00021576\\\@


 IT'S WHAT YOU LEARN AFTER YOU KNOW IT ALL
 THAT COUNTS.
 Job cpu time:       0 days  0 hours  1 minutes  7.9 seconds.
 File lengths (MBytes):  RWF=     28 Int=      0 D2E=      0 Chk=      3 Scr=      1
 Normal termination of Gaussian 09 at Tue Oct 25 12:14:44 2016.
