 Entering Gaussian System, Link 0=g09
 Initial command:
 /cluster/software/gaussian/gaussian-09-D.01/g09/l1.exe "/local/scratch/epktb/Gau-18545.inp" -scrdir="/local/scratch/epktb/"
 Entering Link 1 = /cluster/software/gaussian/gaussian-09-D.01/g09/l1.exe PID=     18546.
  
 Copyright (c) 1988,1990,1992,1993,1995,1998,2003,2009,2013,
            Gaussian, Inc.  All Rights Reserved.
  
 This is part of the Gaussian(R) 09 program.  It is based on
 the Gaussian(R) 03 system (copyright 2003, Gaussian, Inc.),
 the Gaussian(R) 98 system (copyright 1998, Gaussian, Inc.),
 the Gaussian(R) 94 system (copyright 1995, Gaussian, Inc.),
 the Gaussian 92(TM) system (copyright 1992, Gaussian, Inc.),
 the Gaussian 90(TM) system (copyright 1990, Gaussian, Inc.),
 the Gaussian 88(TM) system (copyright 1988, Gaussian, Inc.),
 the Gaussian 86(TM) system (copyright 1986, Carnegie Mellon
 University), and the Gaussian 82(TM) system (copyright 1983,
 Carnegie Mellon University). Gaussian is a federally registered
 trademark of Gaussian, Inc.
  
 This software contains proprietary and confidential information,
 including trade secrets, belonging to Gaussian, Inc.
  
 This software is provided under written license and may be
 used, copied, transmitted, or stored only in accord with that
 written license.
  
 The following legend is applicable only to US Government
 contracts under FAR:
  
                    RESTRICTED RIGHTS LEGEND
  
 Use, reproduction and disclosure by the US Government is
 subject to restrictions as set forth in subparagraphs (a)
 and (c) of the Commercial Computer Software - Restricted
 Rights clause in FAR 52.227-19.
  
 Gaussian, Inc.
 340 Quinnipiac St., Bldg. 40, Wallingford CT 06492
  
  
 ---------------------------------------------------------------
 Warning -- This program may not be used in any manner that
 competes with the business of Gaussian, Inc. or will provide
 assistance to any competitor of Gaussian, Inc.  The licensee
 of this program is prohibited from giving any competitor of
 Gaussian, Inc. access to this program.  By using this program,
 the user acknowledges that Gaussian, Inc. is engaged in the
 business of creating and licensing software in the field of
 computational chemistry and represents and warrants to the
 licensee that it is not a competitor of Gaussian, Inc. and that
 it will not use this program in any manner prohibited above.
 ---------------------------------------------------------------
  

 Cite this work as:
 Gaussian 09, Revision D.01,
 M. J. Frisch, G. W. Trucks, H. B. Schlegel, G. E. Scuseria, 
 M. A. Robb, J. R. Cheeseman, G. Scalmani, V. Barone, B. Mennucci, 
 G. A. Petersson, H. Nakatsuji, M. Caricato, X. Li, H. P. Hratchian, 
 A. F. Izmaylov, J. Bloino, G. Zheng, J. L. Sonnenberg, M. Hada, 
 M. Ehara, K. Toyota, R. Fukuda, J. Hasegawa, M. Ishida, T. Nakajima, 
 Y. Honda, O. Kitao, H. Nakai, T. Vreven, J. A. Montgomery, Jr., 
 J. E. Peralta, F. Ogliaro, M. Bearpark, J. J. Heyd, E. Brothers, 
 K. N. Kudin, V. N. Staroverov, T. Keith, R. Kobayashi, J. Normand, 
 K. Raghavachari, A. Rendell, J. C. Burant, S. S. Iyengar, J. Tomasi, 
 M. Cossi, N. Rega, J. M. Millam, M. Klene, J. E. Knox, J. B. Cross, 
 V. Bakken, C. Adamo, J. Jaramillo, R. Gomperts, R. E. Stratmann, 
 O. Yazyev, A. J. Austin, R. Cammi, C. Pomelli, J. W. Ochterski, 
 R. L. Martin, K. Morokuma, V. G. Zakrzewski, G. A. Voth, 
 P. Salvador, J. J. Dannenberg, S. Dapprich, A. D. Daniels, 
 O. Farkas, J. B. Foresman, J. V. Ortiz, J. Cioslowski, 
 and D. J. Fox, Gaussian, Inc., Wallingford CT, 2013.
 
 ******************************************
 Gaussian 09:  ES64L-G09RevD.01 24-Apr-2013
                21-Oct-2016 
 ******************************************
 %mem=6GB
 %nprocshared=6
 Will use up to    6 processors via shared memory.
 %oldchk=h3c+-gasopt
 %chk=sp-h3c+
 Copying data from "h3c+-gasopt.chk" to current chk file "sp-h3c+.chk".
 --------------------------------------------------------
 # scrf=(smd,solvent=water) mp2(full)/6-311G** geom=check
 --------------------------------------------------------
 1/29=2,38=1/1;
 2/12=2,40=1/2;
 3/5=4,6=6,7=101,11=9,14=-4,16=1,25=1,30=1,70=32201,72=1/1,2,3;
 4//1;
 5/5=2,38=5,53=1/2;
 8/10=90/1;
 9/16=-3/6;
 6/7=2,8=2,9=2,10=2/1;
 99/5=1,9=1/99;
 -------------------
 Title Card Required
 -------------------
 Structure from the checkpoint file:  "sp-h3c+.chk"
 Charge =  0 Multiplicity = 2
 Redundant internal coordinates found in file.
 C,0,0.1264285254,-0.2189806313,0.0893984671
 H,0,-0.0537480653,0.0930943962,1.1063310456
 H,0,1.0251428871,0.0930943857,-0.419451192
 H,0,-0.5931935637,-0.8412525818,-0.4194511809
 Recover connectivity data from disk.
                          Input orientation:                          
 ---------------------------------------------------------------------
 Center     Atomic      Atomic             Coordinates (Angstroms)
 Number     Number       Type             X           Y           Z
 ---------------------------------------------------------------------
      1          6           0        0.126429   -0.218981    0.089398
      2          1           0       -0.053748    0.093094    1.106331
      3          1           0        1.025143    0.093094   -0.419451
      4          1           0       -0.593194   -0.841253   -0.419451
 ---------------------------------------------------------------------
                    Distance matrix (angstroms):
                    1          2          3          4
     1  C    0.000000
     2  H    1.078891   0.000000
     3  H    1.078891   1.868694   0.000000
     4  H    1.078891   1.868694   1.868694   0.000000
 Stoichiometry    CH3(2)
 Framework group  C3V[C3(C),3SGV(H)]
 Deg. of freedom     2
 Full point group                 C3V     NOp   6
 Largest Abelian subgroup         CS      NOp   2
 Largest concise Abelian subgroup CS      NOp   2
                         Standard orientation:                         
 ---------------------------------------------------------------------
 Center     Atomic      Atomic             Coordinates (Angstroms)
 Number     Number       Type             X           Y           Z
 ---------------------------------------------------------------------
      1          6           0        0.000000    0.000000   -0.000256
      2          1           0        0.000000    1.078891    0.000511
      3          1           0       -0.934347   -0.539445    0.000511
      4          1           0        0.934347   -0.539445    0.000511
 ---------------------------------------------------------------------
 Rotational constants (GHZ):    287.2005938    287.2005938    143.6004127
 Standard basis: 6-311G(d,p) (5D, 7F)
 There are    25 symmetry adapted cartesian basis functions of A'  symmetry.
 There are    12 symmetry adapted cartesian basis functions of A"  symmetry.
 There are    24 symmetry adapted basis functions of A'  symmetry.
 There are    12 symmetry adapted basis functions of A"  symmetry.
    36 basis functions,    56 primitive gaussians,    37 cartesian basis functions
     5 alpha electrons        4 beta electrons
       nuclear repulsion energy         9.6782247034 Hartrees.
 NAtoms=    4 NActive=    4 NUniq=    2 SFac= 4.00D+00 NAtFMM=   60 NAOKFM=F Big=F
 Integral buffers will be    131072 words long.
 Raffenetti 2 integral format.
 Two-electron integral symmetry is turned on.
 ------------------------------------------------------------------------------
 Polarizable Continuum Model (PCM)
 =================================
 Model                : PCM (using non-symmetric T matrix).
 Atomic radii         : SMD-Coulomb.
 Polarization charges : Total charges.
 Charge compensation  : None.
 Solution method      : On-the-fly selection.
 Cavity type          : VdW (van der Waals Surface) (Alpha=1.000).
 Cavity algorithm     : GePol (No added spheres)
                        Default sphere list used, NSphG=    4.
                        Lebedev-Laikov grids with approx.  5.0 points / Ang**2.
                        Smoothing algorithm: Karplus/York (Gamma=1.0000).
                        Polarization charges: spherical gaussians, with
                                              point-specific exponents (IZeta= 3).
                        Self-potential: point-specific (ISelfS= 7).
                        Self-field    : sphere-specific E.n sum rule (ISelfD= 2).
 Solvent              : Water, Eps=  78.355300 Eps(inf)=   1.777849
 ------------------------------------------------------------------------------
 Spheres list:
 ISph  on   Nord     Re0    Alpha      Xe            Ye            Ze
    1   C      1    1.8500  1.000      0.000000      0.000000     -0.000256
    2   H      2    1.2000  1.000      0.000000      1.078891      0.000511
    3   H      3    1.2000  1.000     -0.934347     -0.539445      0.000511
    4   H      4    1.2000  1.000      0.934347     -0.539445      0.000511
 ------------------------------------------------------------------------------
 ------------------------------------------------------------------------------
 Atomic radii for non-electrostatic terms: SMD-CDS.
 ------------------------------------------------------------------------------
 Nuclear repulsion after PCM non-electrostatic terms =        9.6843827717 Hartrees.
 One-electron integrals computed using PRISM.
 NBasis=    36 RedAO= T EigKep=  2.03D-02  NBF=    24    12
 NBsUse=    36 1.00D-06 EigRej= -1.00D+00 NBFU=    24    12
 ExpMin= 1.03D-01 ExpMax= 4.56D+03 ExpMxC= 6.82D+02 IAcc=1 IRadAn=         1 AccDes= 0.00D+00
 Harris functional with IExCor=  205 and IRadAn=       1 diagonalized for initial guess.
 HarFok:  IExCor=  205 AccDes= 0.00D+00 IRadAn=         1 IDoV= 1 UseB2=F ITyADJ=14
 ICtDFT=  3500011 ScaDFX=  1.000000  1.000000  1.000000  1.000000
 FoFCou: FMM=F IPFlag=           0 FMFlag=      100000 FMFlg1=           0
         NFxFlg=           0 DoJE=T BraDBF=F KetDBF=T FulRan=T
         wScrn=  0.000000 ICntrl=     500 IOpCl=  0 I1Cent=   200000004 NGrid=           0
         NMat0=    1 NMatS0=      1 NMatT0=    0 NMatD0=    1 NMtDS0=    0 NMtDT0=    0
 Petite list used in FoFCou.
 Initial guess orbital symmetries:
 Alpha Orbitals:
       Occupied  (?A) (?A) (?B) (?B) (A1)
       Virtual   (?A) (?B) (?B) (?B) (?B) (?A) (A1) (?B) (?B) (?A)
                 (E) (E) (?B) (?B) (?A) (?A) (A1) (?B) (?B) (E)
                 (E) (?A) (?B) (?B) (?B) (?B) (A1) (?A) (?B) (?B)
                 (?A)
 Beta  Orbitals:
       Occupied  (?A) (?A) (?B) (?B)
       Virtual   (A1) (?A) (?B) (?B) (?B) (?B) (?A) (A1) (?B) (?B)
                 (?A) (E) (E) (?B) (?B) (?A) (?A) (A1) (?B) (?B)
                 (E) (E) (?A) (?B) (?B) (?B) (?B) (A1) (?A) (?B)
                 (?B) (?A)
 Initial guess <Sx>= 0.0000 <Sy>= 0.0000 <Sz>= 0.5000 <S**2>= 0.7500 S= 0.5000
 Keep R1 and R2 ints in memory in symmetry-blocked form, NReq=3292830.
 Requested convergence on RMS density matrix=1.00D-08 within 128 cycles.
 Requested convergence on MAX density matrix=1.00D-06.
 Requested convergence on             energy=1.00D-06.
 No special actions if energy rises.
 Inv3:  Mode=1 IEnd=      446988.
 Iteration    1 A*A^-1 deviation from unit magnitude is 2.89D-15 for     31.
 Iteration    1 A*A^-1 deviation from orthogonality  is 2.91D-15 for    337     94.
 Iteration    1 A^-1*A deviation from unit magnitude is 2.78D-15 for    363.
 Iteration    1 A^-1*A deviation from orthogonality  is 2.54D-09 for    205    165.
 Iteration    2 A*A^-1 deviation from unit magnitude is 1.55D-15 for    259.
 Iteration    2 A*A^-1 deviation from orthogonality  is 1.98D-15 for    361     70.
 Iteration    2 A^-1*A deviation from unit magnitude is 6.66D-16 for     63.
 Iteration    2 A^-1*A deviation from orthogonality  is 2.69D-16 for     61     60.
 Error on total polarization charges =  0.02328
 SCF Done:  E(UHF) =  -39.5684243628     A.U. after   11 cycles
            NFock= 11  Conv=0.62D-08     -V/T= 2.0006
 <Sx>= 0.0000 <Sy>= 0.0000 <Sz>= 0.5000 <S**2>= 0.7612 S= 0.5056
 <L.S>= 0.000000000000E+00
 SMD-CDS (non-electrostatic) energy       (kcal/mol) =       3.86
 (included in total energy above)
 Annihilation of the first spin contaminant:
 S**2 before annihilation     0.7612,   after     0.7501
 Range of M.O.s used for correlation:     1    36
 NBasis=    36 NAE=     5 NBE=     4 NFC=     0 NFV=     0
 NROrb=     36 NOA=     5 NOB=     4 NVA=    31 NVB=    32
 Fully in-core method, ICMem=     6597945.
 JobTyp=2 Pass  1 fully in-core, NPsUse=  6.
 JobTyp=3 Pass  1 fully in-core, NPsUse=  6.
 Spin components of T(2) and E(2):
     alpha-alpha T2 =       0.6561852956D-02 E2=     -0.2048259341D-01
     alpha-beta  T2 =       0.3486661251D-01 E2=     -0.1248666810D+00
     beta-beta   T2 =       0.2329635504D-02 E2=     -0.7495913581D-02
 (S**2,0)=  0.76121D+00           (S**2,1)=  0.75310D+00
 E(PUHF)=      -0.39571401929D+02        E(PMP2)=      -0.39723173478D+02
 ANorm=    0.1021644802D+01
 E2 =    -0.1528451880D+00 EUMP2 =    -0.39721269550789D+02

 **********************************************************************

            Population analysis using the SCF density.

 **********************************************************************

 Orbital symmetries:
 Alpha Orbitals:
       Occupied  (?A) (?A) (?B) (?B) (A1)
       Virtual   (?A) (?B) (?B) (?B) (?B) (?A) (A1) (?B) (?B) (?A)
                 (?B) (?B) (?B) (?B) (?A) (?A) (A1) (?B) (?B) (?B)
                 (?B) (?A) (?B) (?B) (?B) (?B) (?A) (A1) (?B) (?B)
                 (?A)
 Beta  Orbitals:
       Occupied  (?A) (?A) (?B) (?B)
       Virtual   (A1) (?A) (?B) (?B) (?B) (?B) (?A) (A1) (?B) (?B)
                 (?A) (?C) (?C) (?B) (?B) (?A) (?A) (A1) (?B) (?B)
                 (?C) (?C) (?A) (?B) (?B) (?B) (?B) (?A) (A1) (?B)
                 (?B) (?A)
 Unable to determine electronic state:  an orbital has unidentified symmetry.
 Alpha  occ. eigenvalues --  -11.22513  -0.94137  -0.57273  -0.57272  -0.38125
 Alpha virt. eigenvalues --    0.17095   0.23878   0.23880   0.45391   0.45392
 Alpha virt. eigenvalues --    0.51642   0.57689   0.81961   0.81961   0.88624
 Alpha virt. eigenvalues --    1.27916   1.27917   1.64754   1.64755   1.67125
 Alpha virt. eigenvalues --    1.74810   1.91713   2.15862   2.15863   2.24270
 Alpha virt. eigenvalues --    2.24271   2.60658   2.73089   2.73090   2.98928
 Alpha virt. eigenvalues --    2.98929   3.01220   3.04713   4.13376   4.13377
 Alpha virt. eigenvalues --   25.06753
  Beta  occ. eigenvalues --  -11.20173  -0.84944  -0.55785  -0.55784
  Beta virt. eigenvalues --    0.13591   0.18292   0.24380   0.24381   0.45799
  Beta virt. eigenvalues --    0.45800   0.56281   0.71232   0.83634   0.83634
  Beta virt. eigenvalues --    0.92243   1.34031   1.34033   1.65328   1.65329
  Beta virt. eigenvalues --    1.66645   1.83200   1.93178   2.15610   2.15611
  Beta virt. eigenvalues --    2.28189   2.28190   2.60733   2.73347   2.73349
  Beta virt. eigenvalues --    2.99877   2.99878   3.02094   3.13362   4.15437
  Beta virt. eigenvalues --    4.15438  25.08337
          Condensed to atoms (all electrons):
               1          2          3          4
     1  C    5.173833   0.406251   0.406251   0.406251
     2  H    0.406251   0.513834  -0.025474  -0.025474
     3  H    0.406251  -0.025474   0.513834  -0.025474
     4  H    0.406251  -0.025474  -0.025474   0.513834
          Atomic-Atomic Spin Densities.
               1          2          3          4
     1  C    1.298817  -0.008290  -0.008290  -0.008290
     2  H   -0.008290  -0.087406   0.002190   0.002190
     3  H   -0.008290   0.002190  -0.087406   0.002190
     4  H   -0.008290   0.002190   0.002190  -0.087406
 Mulliken charges and spin densities:
               1          2
     1  C   -0.392586   1.273947
     2  H    0.130862  -0.091316
     3  H    0.130862  -0.091316
     4  H    0.130862  -0.091316
 Sum of Mulliken charges =   0.00000   1.00000
 Mulliken charges and spin densities with hydrogens summed into heavy atoms:
               1          2
     1  C    0.000000   1.000000
 Electronic spatial extent (au):  <R**2>=             29.6251
 Charge=              0.0000 electrons
 Dipole moment (field-independent basis, Debye):
    X=              0.0000    Y=              0.0000    Z=              0.0020  Tot=              0.0020
 Quadrupole moment (field-independent basis, Debye-Ang):
   XX=             -7.0887   YY=             -7.0887   ZZ=             -8.8965
   XY=              0.0000   XZ=              0.0000   YZ=              0.0000
 Traceless Quadrupole moment (field-independent basis, Debye-Ang):
   XX=              0.6026   YY=              0.6026   ZZ=             -1.2052
   XY=              0.0000   XZ=              0.0000   YZ=              0.0000
 Octapole moment (field-independent basis, Debye-Ang**2):
  XXX=              0.0000  YYY=              0.9652  ZZZ=              0.0029  XYY=              0.0000
  XXY=             -0.9652  XXZ=              0.0018  XZZ=              0.0000  YZZ=              0.0000
  YYZ=              0.0018  XYZ=              0.0000
 Hexadecapole moment (field-independent basis, Debye-Ang**3):
 XXXX=            -14.0385 YYYY=            -14.0385 ZZZZ=             -9.9953 XXXY=              0.0000
 XXXZ=              0.0000 YYYX=              0.0000 YYYZ=              0.0009 ZZZX=              0.0000
 ZZZY=              0.0000 XXYY=             -4.6795 XXZZ=             -4.4191 YYZZ=             -4.4191
 XXYZ=             -0.0009 YYXZ=              0.0000 ZZXY=              0.0000
 N-N= 9.684382771742D+00 E-N=-1.111533940457D+02  KE= 3.954576566475D+01
 Symmetry A'   KE= 3.760437139036D+01
 Symmetry A"   KE= 1.941394274390D+00
 1\1\GINC-TC-NODE162\SP\UMP2-Full\6-311G(d,p)\C1H3(2)\EPKTB\21-Oct-2016
 \0\\# scrf=(smd,solvent=water) mp2(full)/6-311G** geom=check\\Title Ca
 rd Required\\0,2\C,0,0.1264285254,-0.2189806313,0.0893984671\H,0,-0.05
 37480653,0.0930943962,1.1063310456\H,0,1.0251428871,0.0930943857,-0.41
 9451192\H,0,-0.5931935637,-0.8412525818,-0.4194511809\\Version=ES64L-G
 09RevD.01\HF=-39.5684244\MP2=-39.7212696\PUHF=-39.5714019\PMP2-0=-39.7
 231735\S2=0.76121\S2-1=0.753096\S2A=0.750069\RMSD=6.223e-09\PG=C03V [C
 3(C1),3SGV(H1)]\\@


 NATURE GIVES TO EVERY TIME AND SEASON SOME BEAUTY OF ITS OWN.

                                                    --DICKENS
 Job cpu time:       0 days  0 hours  0 minutes 15.2 seconds.
 File lengths (MBytes):  RWF=      6 Int=      0 D2E=      0 Chk=      2 Scr=      1
 Normal termination of Gaussian 09 at Fri Oct 21 11:31:00 2016.
