 Entering Gaussian System, Link 0=g09
 Initial command:
 /cluster/software/gaussian/gaussian-09-D.01/g09/l1.exe "/local/scratch/epktb/Gau-18627.inp" -scrdir="/local/scratch/epktb/"
 Entering Link 1 = /cluster/software/gaussian/gaussian-09-D.01/g09/l1.exe PID=     18628.
  
 Copyright (c) 1988,1990,1992,1993,1995,1998,2003,2009,2013,
            Gaussian, Inc.  All Rights Reserved.
  
 This is part of the Gaussian(R) 09 program.  It is based on
 the Gaussian(R) 03 system (copyright 2003, Gaussian, Inc.),
 the Gaussian(R) 98 system (copyright 1998, Gaussian, Inc.),
 the Gaussian(R) 94 system (copyright 1995, Gaussian, Inc.),
 the Gaussian 92(TM) system (copyright 1992, Gaussian, Inc.),
 the Gaussian 90(TM) system (copyright 1990, Gaussian, Inc.),
 the Gaussian 88(TM) system (copyright 1988, Gaussian, Inc.),
 the Gaussian 86(TM) system (copyright 1986, Carnegie Mellon
 University), and the Gaussian 82(TM) system (copyright 1983,
 Carnegie Mellon University). Gaussian is a federally registered
 trademark of Gaussian, Inc.
  
 This software contains proprietary and confidential information,
 including trade secrets, belonging to Gaussian, Inc.
  
 This software is provided under written license and may be
 used, copied, transmitted, or stored only in accord with that
 written license.
  
 The following legend is applicable only to US Government
 contracts under FAR:
  
                    RESTRICTED RIGHTS LEGEND
  
 Use, reproduction and disclosure by the US Government is
 subject to restrictions as set forth in subparagraphs (a)
 and (c) of the Commercial Computer Software - Restricted
 Rights clause in FAR 52.227-19.
  
 Gaussian, Inc.
 340 Quinnipiac St., Bldg. 40, Wallingford CT 06492
  
  
 ---------------------------------------------------------------
 Warning -- This program may not be used in any manner that
 competes with the business of Gaussian, Inc. or will provide
 assistance to any competitor of Gaussian, Inc.  The licensee
 of this program is prohibited from giving any competitor of
 Gaussian, Inc. access to this program.  By using this program,
 the user acknowledges that Gaussian, Inc. is engaged in the
 business of creating and licensing software in the field of
 computational chemistry and represents and warrants to the
 licensee that it is not a competitor of Gaussian, Inc. and that
 it will not use this program in any manner prohibited above.
 ---------------------------------------------------------------
  

 Cite this work as:
 Gaussian 09, Revision D.01,
 M. J. Frisch, G. W. Trucks, H. B. Schlegel, G. E. Scuseria, 
 M. A. Robb, J. R. Cheeseman, G. Scalmani, V. Barone, B. Mennucci, 
 G. A. Petersson, H. Nakatsuji, M. Caricato, X. Li, H. P. Hratchian, 
 A. F. Izmaylov, J. Bloino, G. Zheng, J. L. Sonnenberg, M. Hada, 
 M. Ehara, K. Toyota, R. Fukuda, J. Hasegawa, M. Ishida, T. Nakajima, 
 Y. Honda, O. Kitao, H. Nakai, T. Vreven, J. A. Montgomery, Jr., 
 J. E. Peralta, F. Ogliaro, M. Bearpark, J. J. Heyd, E. Brothers, 
 K. N. Kudin, V. N. Staroverov, T. Keith, R. Kobayashi, J. Normand, 
 K. Raghavachari, A. Rendell, J. C. Burant, S. S. Iyengar, J. Tomasi, 
 M. Cossi, N. Rega, J. M. Millam, M. Klene, J. E. Knox, J. B. Cross, 
 V. Bakken, C. Adamo, J. Jaramillo, R. Gomperts, R. E. Stratmann, 
 O. Yazyev, A. J. Austin, R. Cammi, C. Pomelli, J. W. Ochterski, 
 R. L. Martin, K. Morokuma, V. G. Zakrzewski, G. A. Voth, 
 P. Salvador, J. J. Dannenberg, S. Dapprich, A. D. Daniels, 
 O. Farkas, J. B. Foresman, J. V. Ortiz, J. Cioslowski, 
 and D. J. Fox, Gaussian, Inc., Wallingford CT, 2013.
 
 ******************************************
 Gaussian 09:  ES64L-G09RevD.01 24-Apr-2013
                21-Oct-2016 
 ******************************************
 %mem=8GB
 %nprocshared=6
 Will use up to    6 processors via shared memory.
 %oldchk=n2-gasopt
 %chk=sp-n2
 Copying data from "n2-gasopt.chk" to current chk file "sp-n2.chk".
 -------------------------------------------------------
 #scrf=(smd,solvent=water) MP2(full)/6-311G** geom=check
 -------------------------------------------------------
 1/29=2,38=1/1;
 2/12=2,40=1/2;
 3/5=4,6=6,7=101,11=9,14=-4,16=1,25=1,30=1,70=32201,72=1/1,2,3;
 4//1;
 5/5=2,38=5,53=1/2;
 8/10=90/1;
 9/16=-3/6;
 6/7=2,8=2,9=2,10=2/1;
 99/5=1,9=1/99;
 -------------------
 Title Card Required
 -------------------
 Structure from the checkpoint file:  "sp-n2.chk"
 Charge =  0 Multiplicity = 1
 Redundant internal coordinates found in file.
 N,0,0.,0.,-0.013523467
 N,0,0.,0.,1.105523467
 Recover connectivity data from disk.
                          Input orientation:                          
 ---------------------------------------------------------------------
 Center     Atomic      Atomic             Coordinates (Angstroms)
 Number     Number       Type             X           Y           Z
 ---------------------------------------------------------------------
      1          7           0        0.000000    0.000000   -0.013523
      2          7           0        0.000000    0.000000    1.105523
 ---------------------------------------------------------------------
 Stoichiometry    N2
 Framework group  D*H[C*(N.N)]
 Deg. of freedom     1
 Full point group                 D*H     NOp   8
 Largest Abelian subgroup         D2H     NOp   8
 Largest concise Abelian subgroup C2      NOp   2
                         Standard orientation:                         
 ---------------------------------------------------------------------
 Center     Atomic      Atomic             Coordinates (Angstroms)
 Number     Number       Type             X           Y           Z
 ---------------------------------------------------------------------
      1          7           0        0.000000    0.000000    0.559523
      2          7           0        0.000000    0.000000   -0.559523
 ---------------------------------------------------------------------
 Rotational constants (GHZ):      0.0000000     57.6404290     57.6404290
 Standard basis: 6-311G(d,p) (5D, 7F)
 There are    10 symmetry adapted cartesian basis functions of AG  symmetry.
 There are     1 symmetry adapted cartesian basis functions of B1G symmetry.
 There are     4 symmetry adapted cartesian basis functions of B2G symmetry.
 There are     4 symmetry adapted cartesian basis functions of B3G symmetry.
 There are     1 symmetry adapted cartesian basis functions of AU  symmetry.
 There are    10 symmetry adapted cartesian basis functions of B1U symmetry.
 There are     4 symmetry adapted cartesian basis functions of B2U symmetry.
 There are     4 symmetry adapted cartesian basis functions of B3U symmetry.
 There are     9 symmetry adapted basis functions of AG  symmetry.
 There are     1 symmetry adapted basis functions of B1G symmetry.
 There are     4 symmetry adapted basis functions of B2G symmetry.
 There are     4 symmetry adapted basis functions of B3G symmetry.
 There are     1 symmetry adapted basis functions of AU  symmetry.
 There are     9 symmetry adapted basis functions of B1U symmetry.
 There are     4 symmetry adapted basis functions of B2U symmetry.
 There are     4 symmetry adapted basis functions of B3U symmetry.
    36 basis functions,    64 primitive gaussians,    38 cartesian basis functions
     7 alpha electrons        7 beta electrons
       nuclear repulsion energy        23.1712204685 Hartrees.
 NAtoms=    2 NActive=    2 NUniq=    1 SFac= 4.00D+00 NAtFMM=   60 NAOKFM=F Big=F
 Integral buffers will be    131072 words long.
 Raffenetti 1 integral format.
 Two-electron integral symmetry is turned on.
 ------------------------------------------------------------------------------
 Polarizable Continuum Model (PCM)
 =================================
 Model                : PCM (using non-symmetric T matrix).
 Atomic radii         : SMD-Coulomb.
 Polarization charges : Total charges.
 Charge compensation  : None.
 Solution method      : On-the-fly selection.
 Cavity type          : VdW (van der Waals Surface) (Alpha=1.000).
 Cavity algorithm     : GePol (No added spheres)
                        Default sphere list used, NSphG=    2.
                        Lebedev-Laikov grids with approx.  5.0 points / Ang**2.
                        Smoothing algorithm: Karplus/York (Gamma=1.0000).
                        Polarization charges: spherical gaussians, with
                                              point-specific exponents (IZeta= 3).
                        Self-potential: point-specific (ISelfS= 7).
                        Self-field    : sphere-specific E.n sum rule (ISelfD= 2).
 Solvent              : Water, Eps=  78.355300 Eps(inf)=   1.777849
 ------------------------------------------------------------------------------
 Spheres list:
 ISph  on   Nord     Re0    Alpha      Xe            Ye            Ze
    1   N      1    1.8900  1.000      0.000000      0.000000      0.559523
    2   N      2    1.8900  1.000      0.000000      0.000000     -0.559523
 ------------------------------------------------------------------------------
 ------------------------------------------------------------------------------
 Atomic radii for non-electrostatic terms: SMD-CDS.
 ------------------------------------------------------------------------------
 One-electron integrals computed using PRISM.
 NBasis=    36 RedAO= T EigKep=  7.81D-03  NBF=     9     1     4     4     1     9     4     4
 NBsUse=    36 1.00D-06 EigRej= -1.00D+00 NBFU=     9     1     4     4     1     9     4     4
 ExpMin= 2.01D-01 ExpMax= 6.29D+03 ExpMxC= 9.49D+02 IAcc=1 IRadAn=         1 AccDes= 0.00D+00
 Harris functional with IExCor=  205 and IRadAn=       1 diagonalized for initial guess.
 HarFok:  IExCor=  205 AccDes= 0.00D+00 IRadAn=         1 IDoV= 1 UseB2=F ITyADJ=14
 ICtDFT=  3500011 ScaDFX=  1.000000  1.000000  1.000000  1.000000
 FoFCou: FMM=F IPFlag=           0 FMFlag=      100000 FMFlg1=           0
         NFxFlg=           0 DoJE=T BraDBF=F KetDBF=T FulRan=T
         wScrn=  0.000000 ICntrl=     500 IOpCl=  0 I1Cent=   200000004 NGrid=           0
         NMat0=    1 NMatS0=      1 NMatT0=    0 NMatD0=    1 NMtDS0=    0 NMtDT0=    0
 Petite list used in FoFCou.
 Initial guess orbital symmetries:
       Occupied  (SGG) (SGU) (SGG) (SGU) (PIU) (PIU) (SGG)
       Virtual   (PIG) (PIG) (SGU) (PIU) (PIU) (SGG) (SGG) (PIG)
                 (PIG) (SGU) (SGU) (PIU) (PIU) (DLTG) (DLTG) (DLTU)
                 (DLTU) (SGG) (PIG) (PIG) (SGU) (PIU) (PIU) (PIG)
                 (PIG) (SGG) (SGU) (SGG) (SGU)
 The electronic state of the initial guess is 1-SGG.
 Keep R1 ints in memory in symmetry-blocked form, NReq=3319048.
 Requested convergence on RMS density matrix=1.00D-08 within 128 cycles.
 Requested convergence on MAX density matrix=1.00D-06.
 Requested convergence on             energy=1.00D-06.
 No special actions if energy rises.
 Inv3:  Mode=1 IEnd=      544428.
 Iteration    1 A*A^-1 deviation from unit magnitude is 2.33D-15 for     39.
 Iteration    1 A*A^-1 deviation from orthogonality  is 1.59D-15 for    256    110.
 Iteration    1 A^-1*A deviation from unit magnitude is 2.44D-15 for    418.
 Iteration    1 A^-1*A deviation from orthogonality  is 5.29D-16 for    191     87.
 Error on total polarization charges =  0.00495
 SCF Done:  E(RHF) =  -108.964872393     A.U. after    9 cycles
            NFock=  9  Conv=0.79D-09     -V/T= 2.0029
 SMD-CDS (non-electrostatic) energy       (kcal/mol) =       0.00
 (included in total energy above)
 Range of M.O.s used for correlation:     1    36
 NBasis=    36 NAE=     7 NBE=     7 NFC=     0 NFV=     0
 NROrb=     36 NOA=     7 NOB=     7 NVA=    29 NVB=    29
 Fully in-core method, ICMem=     6691643.
 JobTyp=1 Pass  1 fully in-core, NPsUse=  6.
 Spin components of T(2) and E(2):
     alpha-alpha T2 =       0.1554724707D-01 E2=     -0.4641930446D-01
     alpha-beta  T2 =       0.8534818473D-01 E2=     -0.2771226310D+00
     beta-beta   T2 =       0.1554724707D-01 E2=     -0.4641930446D-01
 ANorm=    0.1056618512D+01
 E2 =    -0.3699612399D+00 EUMP2 =    -0.10933483363296D+03

 **********************************************************************

            Population analysis using the SCF density.

 **********************************************************************

 Orbital symmetries:
       Occupied  (SGG) (SGU) (SGG) (SGU) (SGG) (PIU) (PIU)
       Virtual   (PIG) (PIG) (SGU) (SGG) (PIU) (PIU) (SGG) (PIG)
                 (PIG) (SGU) (SGU) (DLTG) (DLTG) (PIU) (PIU) (DLTU)
                 (DLTU) (SGG) (PIG) (PIG) (SGU) (PIU) (PIU) (PIG)
                 (PIG) (SGG) (SGU) (SGG) (SGU)
 The electronic state is 1-SGG.
 Alpha  occ. eigenvalues --  -15.68687 -15.68375  -1.45496  -0.78184  -0.62845
 Alpha  occ. eigenvalues --   -0.60016  -0.60016
 Alpha virt. eigenvalues --    0.15761   0.15761   0.54606   0.68887   0.71537
 Alpha virt. eigenvalues --    0.71537   0.81437   0.89368   0.89368   1.00088
 Alpha virt. eigenvalues --    1.35414   1.97485   1.97485   1.99443   1.99443
 Alpha virt. eigenvalues --    2.48557   2.48557   2.73432   3.16805   3.16805
 Alpha virt. eigenvalues --    3.46485   3.98797   3.98797   4.32753   4.32753
 Alpha virt. eigenvalues --    4.57069   4.78591  36.33216  37.56587
          Condensed to atoms (all electrons):
               1          2
     1  N    6.354845   0.645155
     2  N    0.645155   6.354845
 Mulliken charges:
               1
     1  N    0.000000
     2  N    0.000000
 Sum of Mulliken charges =   0.00000
 Mulliken charges with hydrogens summed into heavy atoms:
               1
     1  N    0.000000
     2  N    0.000000
 Electronic spatial extent (au):  <R**2>=             39.8214
 Charge=              0.0000 electrons
 Dipole moment (field-independent basis, Debye):
    X=              0.0000    Y=              0.0000    Z=              0.0000  Tot=              0.0000
 Quadrupole moment (field-independent basis, Debye-Ang):
   XX=            -10.3050   YY=            -10.3050   ZZ=            -11.8989
   XY=              0.0000   XZ=              0.0000   YZ=              0.0000
 Traceless Quadrupole moment (field-independent basis, Debye-Ang):
   XX=              0.5313   YY=              0.5313   ZZ=             -1.0626
   XY=              0.0000   XZ=              0.0000   YZ=              0.0000
 Octapole moment (field-independent basis, Debye-Ang**2):
  XXX=              0.0000  YYY=              0.0000  ZZZ=              0.0000  XYY=              0.0000
  XXY=              0.0000  XXZ=              0.0000  XZZ=              0.0000  YZZ=              0.0000
  YYZ=              0.0000  XYZ=              0.0000
 Hexadecapole moment (field-independent basis, Debye-Ang**3):
 XXXX=             -8.5182 YYYY=             -8.5182 ZZZZ=            -32.1946 XXXY=              0.0000
 XXXZ=              0.0000 YYYX=              0.0000 YYYZ=              0.0000 ZZZX=              0.0000
 ZZZY=              0.0000 XXYY=             -2.8394 XXZZ=             -6.3574 YYZZ=             -6.3574
 XXYZ=              0.0000 YYXZ=              0.0000 ZZXY=              0.0000
 N-N= 2.317122046855D+01 E-N=-3.020100777668D+02  KE= 1.086550367772D+02
 Symmetry AG   KE= 5.330503485678D+01
 Symmetry B1G  KE= 1.177184270764D-34
 Symmetry B2G  KE= 1.280322890471D-32
 Symmetry B3G  KE= 3.528490215855D-32
 Symmetry AU   KE= 4.320800856807D-34
 Symmetry B1U  KE= 4.890662020569D+01
 Symmetry B2U  KE= 3.221690857376D+00
 Symmetry B3U  KE= 3.221690857376D+00
 1\1\GINC-TC-NODE162\SP\RMP2-Full\6-311G(d,p)\N2\EPKTB\21-Oct-2016\0\\#
 scrf=(smd,solvent=water) MP2(full)/6-311G** geom=check\\Title Card Req
 uired\\0,1\N,0,0.,0.,-0.013523467\N,0,0.,0.,1.105523467\\Version=ES64L
 -G09RevD.01\State=1-SGG\HF=-108.9648724\MP2=-109.3348336\RMSD=7.870e-1
 0\PG=D*H [C*(N1.N1)]\\@


 WERE I TO AWAIT PERFECTION, MY BOOK WOULD NEVER BE FINISHED.
                                    -- HISTORY OF CHINESE WRITING

                                       TAI T'UNG, 13TH CENTURY
 Job cpu time:       0 days  0 hours  0 minutes 13.5 seconds.
 File lengths (MBytes):  RWF=      9 Int=      0 D2E=      0 Chk=      2 Scr=      1
 Normal termination of Gaussian 09 at Fri Oct 21 11:31:08 2016.
