 Entering Gaussian System, Link 0=g09
 Initial command:
 /cluster/software/gaussian/gaussian-09-D.01/g09/l1.exe "/local/scratch/epluhar/Gau-17967.inp" -scrdir="/local/scratch/epluhar/"
 Entering Link 1 = /cluster/software/gaussian/gaussian-09-D.01/g09/l1.exe PID=     17968.
  
 Copyright (c) 1988,1990,1992,1993,1995,1998,2003,2009,2013,
            Gaussian, Inc.  All Rights Reserved.
  
 This is part of the Gaussian(R) 09 program.  It is based on
 the Gaussian(R) 03 system (copyright 2003, Gaussian, Inc.),
 the Gaussian(R) 98 system (copyright 1998, Gaussian, Inc.),
 the Gaussian(R) 94 system (copyright 1995, Gaussian, Inc.),
 the Gaussian 92(TM) system (copyright 1992, Gaussian, Inc.),
 the Gaussian 90(TM) system (copyright 1990, Gaussian, Inc.),
 the Gaussian 88(TM) system (copyright 1988, Gaussian, Inc.),
 the Gaussian 86(TM) system (copyright 1986, Carnegie Mellon
 University), and the Gaussian 82(TM) system (copyright 1983,
 Carnegie Mellon University). Gaussian is a federally registered
 trademark of Gaussian, Inc.
  
 This software contains proprietary and confidential information,
 including trade secrets, belonging to Gaussian, Inc.
  
 This software is provided under written license and may be
 used, copied, transmitted, or stored only in accord with that
 written license.
  
 The following legend is applicable only to US Government
 contracts under FAR:
  
                    RESTRICTED RIGHTS LEGEND
  
 Use, reproduction and disclosure by the US Government is
 subject to restrictions as set forth in subparagraphs (a)
 and (c) of the Commercial Computer Software - Restricted
 Rights clause in FAR 52.227-19.
  
 Gaussian, Inc.
 340 Quinnipiac St., Bldg. 40, Wallingford CT 06492
  
  
 ---------------------------------------------------------------
 Warning -- This program may not be used in any manner that
 competes with the business of Gaussian, Inc. or will provide
 assistance to any competitor of Gaussian, Inc.  The licensee
 of this program is prohibited from giving any competitor of
 Gaussian, Inc. access to this program.  By using this program,
 the user acknowledges that Gaussian, Inc. is engaged in the
 business of creating and licensing software in the field of
 computational chemistry and represents and warrants to the
 licensee that it is not a competitor of Gaussian, Inc. and that
 it will not use this program in any manner prohibited above.
 ---------------------------------------------------------------
  

 Cite this work as:
 Gaussian 09, Revision D.01,
 M. J. Frisch, G. W. Trucks, H. B. Schlegel, G. E. Scuseria, 
 M. A. Robb, J. R. Cheeseman, G. Scalmani, V. Barone, B. Mennucci, 
 G. A. Petersson, H. Nakatsuji, M. Caricato, X. Li, H. P. Hratchian, 
 A. F. Izmaylov, J. Bloino, G. Zheng, J. L. Sonnenberg, M. Hada, 
 M. Ehara, K. Toyota, R. Fukuda, J. Hasegawa, M. Ishida, T. Nakajima, 
 Y. Honda, O. Kitao, H. Nakai, T. Vreven, J. A. Montgomery, Jr., 
 J. E. Peralta, F. Ogliaro, M. Bearpark, J. J. Heyd, E. Brothers, 
 K. N. Kudin, V. N. Staroverov, T. Keith, R. Kobayashi, J. Normand, 
 K. Raghavachari, A. Rendell, J. C. Burant, S. S. Iyengar, J. Tomasi, 
 M. Cossi, N. Rega, J. M. Millam, M. Klene, J. E. Knox, J. B. Cross, 
 V. Bakken, C. Adamo, J. Jaramillo, R. Gomperts, R. E. Stratmann, 
 O. Yazyev, A. J. Austin, R. Cammi, C. Pomelli, J. W. Ochterski, 
 R. L. Martin, K. Morokuma, V. G. Zakrzewski, G. A. Voth, 
 P. Salvador, J. J. Dannenberg, S. Dapprich, A. D. Daniels, 
 O. Farkas, J. B. Foresman, J. V. Ortiz, J. Cioslowski, 
 and D. J. Fox, Gaussian, Inc., Wallingford CT, 2013.
 
 ******************************************
 Gaussian 09:  ES64L-G09RevD.01 24-Apr-2013
                11-Nov-2016 
 ******************************************
 %nprocshared=24
 Will use up to   24 processors via shared memory.
 %mem=80GB
 %chk=bt1-opt
 ---------------------------------------------------
 # opt freq=raman mp2(fc)/6-31+g** geom=connectivity
 ---------------------------------------------------
 1/18=20,19=15,38=1,57=2/1,3;
 2/9=110,12=2,17=6,18=5,40=1/2;
 3/5=1,6=6,7=111,11=9,16=1,25=1,30=1,71=1/1,2,3;
 4//1;
 5/5=2,38=5/2;
 8/6=4,10=2/1;
 9/15=2,16=-3/6;
 10/5=1/2;
 6/7=2,8=2,9=2,10=2/1;
 7/12=2/1,2,3,16;
 1/18=20,19=15/3(2);
 2/9=110/2;
 99//99;
 2/9=110/2;
 3/5=1,6=6,7=111,11=9,16=1,25=1,30=1,71=1/1,2,3;
 4/5=5,16=3,69=1/1;
 5/5=2,38=5/2;
 8/6=4,10=2/1;
 9/15=2,16=-3/6;
 10/5=1/2;
 7/12=2/1,2,3,16;
 1/18=20,19=15/3(-8);
 2/9=110/2;
 6/7=2,8=2,9=2,10=2/1;
 99//99;
 ---
 BT1
 ---
 Symbolic Z-matrix:
 Charge =  0 Multiplicity = 1
 C                    -0.48302  -0.37749   1.24611 
 C                     0.81219   0.12171   1.0438 
 C                     1.03726   1.2981    0.32603 
 C                    -0.07989   2.00991  -0.0277 
 C                    -1.33489   1.46577   0.0153 
 C                    -1.5853    0.26529   0.67782 
 H                    -0.63114  -1.25355   1.8225 
 H                     1.64735  -0.39794   1.42194 
 C                    -2.95126  -0.39046   0.73481 
 C                    -4.22848   0.16218   0.6775 
 C                    -5.32067  -0.90869   0.40475 
 C                    -4.74575  -2.12914   0.24165 
 S                    -3.11092  -2.14401   0.92105 
 H                    -4.41942   1.21102   0.78522 
 H                    -6.37229  -0.70904   0.32502 
 N                    -2.26051   2.2367   -0.74385 
 N                    -0.08013   3.39281  -0.47022 
 S                    -1.63176   3.75223  -0.99373 
 C                     5.02138   1.62645  -0.10007 
 C                     4.47263   2.31455  -1.15873 
 C                     2.9207    2.36205  -1.06221 
 C                     2.48863   1.64874   0.00911 
 S                     3.77208   1.06741   1.0197 
 H                     5.01331   2.75453  -1.93727 
 H                     2.28767   2.87122  -1.74917 
 C                    -7.18247  -4.57149  -1.88477 
 C                    -6.11154  -5.29932  -1.55986 
 C                    -5.08018  -4.47833  -0.72029 
 C                    -5.46877  -3.22258  -0.543 
 S                    -6.98341  -2.89266  -1.41542 
 H                    -8.06111  -4.97956  -2.35399 
 H                    -5.97536  -6.29583  -1.85105 
 H                    -4.18322  -4.8729   -0.3268 
 C                     6.50839   1.33153   0.20698 
 C                     6.93124   1.03117   1.45443 
 C                     8.34111   0.40404   1.43168 
 C                     8.78178   0.30798   0.17851 
 S                     7.83047   1.29869  -0.94656 
 H                     6.35457   1.19721   2.34372 
 H                     8.87794   0.06503   2.30214 
 H                     9.58327  -0.28098  -0.12359 
 

 GradGradGradGradGradGradGradGradGradGradGradGradGradGradGradGradGradGrad
 Berny optimization.
 Initialization pass.
                           ----------------------------
                           !    Initial Parameters    !
                           ! (Angstroms and Degrees)  !
 --------------------------                            --------------------------
 ! Name  Definition              Value          Derivative Info.                !
 --------------------------------------------------------------------------------
 ! R1    R(1,2)                  1.4027         estimate D2E/DX2                !
 ! R2    R(1,6)                  1.3968         estimate D2E/DX2                !
 ! R3    R(1,7)                  1.0591         estimate D2E/DX2                !
 ! R4    R(2,3)                  1.3963         estimate D2E/DX2                !
 ! R5    R(2,8)                  1.0538         estimate D2E/DX2                !
 ! R6    R(3,4)                  1.3711         estimate D2E/DX2                !
 ! R7    R(3,22)                 1.5264         estimate D2E/DX2                !
 ! R8    R(4,5)                  1.3686         estimate D2E/DX2                !
 ! R9    R(4,17)                 1.452          estimate D2E/DX2                !
 ! R10   R(5,6)                  1.3938         estimate D2E/DX2                !
 ! R11   R(5,16)                 1.4239         estimate D2E/DX2                !
 ! R12   R(6,9)                  1.5163         estimate D2E/DX2                !
 ! R13   R(9,10)                 1.3928         estimate D2E/DX2                !
 ! R14   R(9,13)                 1.7706         estimate D2E/DX2                !
 ! R15   R(10,11)                1.5537         estimate D2E/DX2                !
 ! R16   R(10,14)                1.0715         estimate D2E/DX2                !
 ! R17   R(11,12)                1.3589         estimate D2E/DX2                !
 ! R18   R(11,15)                1.0734         estimate D2E/DX2                !
 ! R19   R(12,13)                1.7704         estimate D2E/DX2                !
 ! R20   R(12,29)                1.5278         estimate D2E/DX2                !
 ! R21   R(16,18)                1.6597         estimate D2E/DX2                !
 ! R22   R(17,18)                1.6765         estimate D2E/DX2                !
 ! R23   R(19,20)                1.3767         estimate D2E/DX2                !
 ! R24   R(19,23)                1.7684         estimate D2E/DX2                !
 ! R25   R(19,34)                1.5468         estimate D2E/DX2                !
 ! R26   R(20,21)                1.5557         estimate D2E/DX2                !
 ! R27   R(20,24)                1.045          estimate D2E/DX2                !
 ! R28   R(21,22)                1.3576         estimate D2E/DX2                !
 ! R29   R(21,25)                1.0639         estimate D2E/DX2                !
 ! R30   R(22,23)                1.7339         estimate D2E/DX2                !
 ! R31   R(26,27)                1.335          estimate D2E/DX2                !
 ! R32   R(26,30)                1.7545         estimate D2E/DX2                !
 ! R33   R(26,31)                1.0764         estimate D2E/DX2                !
 ! R34   R(27,28)                1.5629         estimate D2E/DX2                !
 ! R35   R(27,32)                1.0471         estimate D2E/DX2                !
 ! R36   R(28,29)                1.3264         estimate D2E/DX2                !
 ! R37   R(28,33)                1.056          estimate D2E/DX2                !
 ! R38   R(29,30)                1.7788         estimate D2E/DX2                !
 ! R39   R(34,35)                1.351          estimate D2E/DX2                !
 ! R40   R(34,38)                1.7549         estimate D2E/DX2                !
 ! R41   R(35,36)                1.5432         estimate D2E/DX2                !
 ! R42   R(35,39)                1.0728         estimate D2E/DX2                !
 ! R43   R(36,37)                1.3319         estimate D2E/DX2                !
 ! R44   R(36,40)                1.0774         estimate D2E/DX2                !
 ! R45   R(37,38)                1.7755         estimate D2E/DX2                !
 ! R46   R(37,41)                1.0395         estimate D2E/DX2                !
 ! A1    A(2,1,6)              120.4105         estimate D2E/DX2                !
 ! A2    A(2,1,7)              120.1329         estimate D2E/DX2                !
 ! A3    A(6,1,7)              119.4523         estimate D2E/DX2                !
 ! A4    A(1,2,3)              121.5193         estimate D2E/DX2                !
 ! A5    A(1,2,8)              120.299          estimate D2E/DX2                !
 ! A6    A(3,2,8)              118.1747         estimate D2E/DX2                !
 ! A7    A(2,3,4)              116.0197         estimate D2E/DX2                !
 ! A8    A(2,3,22)             116.9704         estimate D2E/DX2                !
 ! A9    A(4,3,22)             127.0077         estimate D2E/DX2                !
 ! A10   A(3,4,5)              122.1858         estimate D2E/DX2                !
 ! A11   A(3,4,17)             124.976          estimate D2E/DX2                !
 ! A12   A(5,4,17)             112.8366         estimate D2E/DX2                !
 ! A13   A(4,5,6)              121.4746         estimate D2E/DX2                !
 ! A14   A(4,5,16)             111.3528         estimate D2E/DX2                !
 ! A15   A(6,5,16)             127.0817         estimate D2E/DX2                !
 ! A16   A(1,6,5)              116.6118         estimate D2E/DX2                !
 ! A17   A(1,6,9)              119.7749         estimate D2E/DX2                !
 ! A18   A(5,6,9)              123.5172         estimate D2E/DX2                !
 ! A19   A(6,9,10)             130.7638         estimate D2E/DX2                !
 ! A20   A(6,9,13)             120.8965         estimate D2E/DX2                !
 ! A21   A(10,9,13)            108.3362         estimate D2E/DX2                !
 ! A22   A(9,10,11)            112.2318         estimate D2E/DX2                !
 ! A23   A(9,10,14)            123.2064         estimate D2E/DX2                !
 ! A24   A(11,10,14)           124.5433         estimate D2E/DX2                !
 ! A25   A(10,11,12)           110.0397         estimate D2E/DX2                !
 ! A26   A(10,11,15)           124.9985         estimate D2E/DX2                !
 ! A27   A(12,11,15)           124.9342         estimate D2E/DX2                !
 ! A28   A(11,12,13)           110.6192         estimate D2E/DX2                !
 ! A29   A(11,12,29)           120.2789         estimate D2E/DX2                !
 ! A30   A(13,12,29)           128.9089         estimate D2E/DX2                !
 ! A31   A(9,13,12)             91.9818         estimate D2E/DX2                !
 ! A32   A(5,16,18)            109.1716         estimate D2E/DX2                !
 ! A33   A(4,17,18)            107.4276         estimate D2E/DX2                !
 ! A34   A(16,18,17)            96.1908         estimate D2E/DX2                !
 ! A35   A(20,19,23)           111.3057         estimate D2E/DX2                !
 ! A36   A(20,19,34)           129.1341         estimate D2E/DX2                !
 ! A37   A(23,19,34)           119.5513         estimate D2E/DX2                !
 ! A38   A(19,20,21)           111.4189         estimate D2E/DX2                !
 ! A39   A(19,20,24)           125.247          estimate D2E/DX2                !
 ! A40   A(21,20,24)           123.3341         estimate D2E/DX2                !
 ! A41   A(20,21,22)           110.5121         estimate D2E/DX2                !
 ! A42   A(20,21,25)           124.6205         estimate D2E/DX2                !
 ! A43   A(22,21,25)           124.8618         estimate D2E/DX2                !
 ! A44   A(3,22,21)            125.9547         estimate D2E/DX2                !
 ! A45   A(3,22,23)            120.3835         estimate D2E/DX2                !
 ! A46   A(21,22,23)           113.6092         estimate D2E/DX2                !
 ! A47   A(19,23,22)            92.744          estimate D2E/DX2                !
 ! A48   A(27,26,30)           111.4418         estimate D2E/DX2                !
 ! A49   A(27,26,31)           123.6561         estimate D2E/DX2                !
 ! A50   A(30,26,31)           124.8867         estimate D2E/DX2                !
 ! A51   A(26,27,28)           111.9456         estimate D2E/DX2                !
 ! A52   A(26,27,32)           123.7463         estimate D2E/DX2                !
 ! A53   A(28,27,32)           124.2984         estimate D2E/DX2                !
 ! A54   A(27,28,29)           112.0736         estimate D2E/DX2                !
 ! A55   A(27,28,33)           124.3633         estimate D2E/DX2                !
 ! A56   A(29,28,33)           123.559          estimate D2E/DX2                !
 ! A57   A(12,29,28)           127.4158         estimate D2E/DX2                !
 ! A58   A(12,29,30)           121.4749         estimate D2E/DX2                !
 ! A59   A(28,29,30)           111.0694         estimate D2E/DX2                !
 ! A60   A(26,30,29)            92.8851         estimate D2E/DX2                !
 ! A61   A(19,34,35)           121.7753         estimate D2E/DX2                !
 ! A62   A(19,34,38)           126.6805         estimate D2E/DX2                !
 ! A63   A(35,34,38)           111.5306         estimate D2E/DX2                !
 ! A64   A(34,35,36)           111.2649         estimate D2E/DX2                !
 ! A65   A(34,35,39)           124.2461         estimate D2E/DX2                !
 ! A66   A(36,35,39)           124.4851         estimate D2E/DX2                !
 ! A67   A(35,36,37)           110.2095         estimate D2E/DX2                !
 ! A68   A(35,36,40)           124.8311         estimate D2E/DX2                !
 ! A69   A(37,36,40)           124.9341         estimate D2E/DX2                !
 ! A70   A(36,37,38)           112.2538         estimate D2E/DX2                !
 ! A71   A(36,37,41)           124.7107         estimate D2E/DX2                !
 ! A72   A(38,37,41)           123.0333         estimate D2E/DX2                !
 ! A73   A(34,38,37)            89.861          estimate D2E/DX2                !
 ! D1    D(6,1,2,3)              2.8809         estimate D2E/DX2                !
 ! D2    D(6,1,2,8)           -176.129          estimate D2E/DX2                !
 ! D3    D(7,1,2,3)           -177.8734         estimate D2E/DX2                !
 ! D4    D(7,1,2,8)              3.1168         estimate D2E/DX2                !
 ! D5    D(2,1,6,5)             -5.3598         estimate D2E/DX2                !
 ! D6    D(2,1,6,9)            171.2006         estimate D2E/DX2                !
 ! D7    D(7,1,6,5)            175.3893         estimate D2E/DX2                !
 ! D8    D(7,1,6,9)             -8.0503         estimate D2E/DX2                !
 ! D9    D(1,2,3,4)              7.3876         estimate D2E/DX2                !
 ! D10   D(1,2,3,22)          -172.1076         estimate D2E/DX2                !
 ! D11   D(8,2,3,4)           -173.5822         estimate D2E/DX2                !
 ! D12   D(8,2,3,22)             6.9226         estimate D2E/DX2                !
 ! D13   D(2,3,4,5)            -15.5801         estimate D2E/DX2                !
 ! D14   D(2,3,4,17)           163.9329         estimate D2E/DX2                !
 ! D15   D(22,3,4,5)           163.8566         estimate D2E/DX2                !
 ! D16   D(22,3,4,17)          -16.6305         estimate D2E/DX2                !
 ! D17   D(2,3,22,21)          151.3771         estimate D2E/DX2                !
 ! D18   D(2,3,22,23)          -25.8096         estimate D2E/DX2                !
 ! D19   D(4,3,22,21)          -28.0549         estimate D2E/DX2                !
 ! D20   D(4,3,22,23)          154.7585         estimate D2E/DX2                !
 ! D21   D(3,4,5,6)             13.619          estimate D2E/DX2                !
 ! D22   D(3,4,5,16)          -163.147          estimate D2E/DX2                !
 ! D23   D(17,4,5,6)          -165.948          estimate D2E/DX2                !
 ! D24   D(17,4,5,16)           17.286          estimate D2E/DX2                !
 ! D25   D(3,4,17,18)          172.0528         estimate D2E/DX2                !
 ! D26   D(5,4,17,18)           -8.3944         estimate D2E/DX2                !
 ! D27   D(4,5,6,1)             -2.5178         estimate D2E/DX2                !
 ! D28   D(4,5,6,9)           -178.9366         estimate D2E/DX2                !
 ! D29   D(16,5,6,1)           173.706          estimate D2E/DX2                !
 ! D30   D(16,5,6,9)            -2.7129         estimate D2E/DX2                !
 ! D31   D(4,5,16,18)          -18.3933         estimate D2E/DX2                !
 ! D32   D(6,5,16,18)          165.0644         estimate D2E/DX2                !
 ! D33   D(1,6,9,10)           155.6008         estimate D2E/DX2                !
 ! D34   D(1,6,9,13)           -23.6295         estimate D2E/DX2                !
 ! D35   D(5,6,9,10)           -28.0881         estimate D2E/DX2                !
 ! D36   D(5,6,9,13)           152.6816         estimate D2E/DX2                !
 ! D37   D(6,9,10,11)          165.1537         estimate D2E/DX2                !
 ! D38   D(6,9,10,14)          -13.3499         estimate D2E/DX2                !
 ! D39   D(13,9,10,11)         -15.5421         estimate D2E/DX2                !
 ! D40   D(13,9,10,14)         165.9543         estimate D2E/DX2                !
 ! D41   D(6,9,13,12)         -158.1624         estimate D2E/DX2                !
 ! D42   D(10,9,13,12)          22.4518         estimate D2E/DX2                !
 ! D43   D(9,10,11,12)          -2.1219         estimate D2E/DX2                !
 ! D44   D(9,10,11,15)         179.7127         estimate D2E/DX2                !
 ! D45   D(14,10,11,12)        176.3581         estimate D2E/DX2                !
 ! D46   D(14,10,11,15)         -1.8074         estimate D2E/DX2                !
 ! D47   D(10,11,12,13)         19.0026         estimate D2E/DX2                !
 ! D48   D(10,11,12,29)       -156.3849         estimate D2E/DX2                !
 ! D49   D(15,11,12,13)       -162.8305         estimate D2E/DX2                !
 ! D50   D(15,11,12,29)         21.782          estimate D2E/DX2                !
 ! D51   D(11,12,13,9)         -24.5454         estimate D2E/DX2                !
 ! D52   D(29,12,13,9)         150.3344         estimate D2E/DX2                !
 ! D53   D(11,12,29,28)       -175.6322         estimate D2E/DX2                !
 ! D54   D(11,12,29,30)          6.8777         estimate D2E/DX2                !
 ! D55   D(13,12,29,28)          9.9184         estimate D2E/DX2                !
 ! D56   D(13,12,29,30)       -167.5718         estimate D2E/DX2                !
 ! D57   D(5,16,18,17)          11.6748         estimate D2E/DX2                !
 ! D58   D(4,17,18,16)          -2.2298         estimate D2E/DX2                !
 ! D59   D(23,19,20,21)         -1.2683         estimate D2E/DX2                !
 ! D60   D(23,19,20,24)        178.7931         estimate D2E/DX2                !
 ! D61   D(34,19,20,21)        179.839          estimate D2E/DX2                !
 ! D62   D(34,19,20,24)         -0.0995         estimate D2E/DX2                !
 ! D63   D(20,19,23,22)          4.117          estimate D2E/DX2                !
 ! D64   D(34,19,23,22)       -176.8704         estimate D2E/DX2                !
 ! D65   D(20,19,34,35)        158.5093         estimate D2E/DX2                !
 ! D66   D(20,19,34,38)        -22.9481         estimate D2E/DX2                !
 ! D67   D(23,19,34,35)        -20.3047         estimate D2E/DX2                !
 ! D68   D(23,19,34,38)        158.2379         estimate D2E/DX2                !
 ! D69   D(19,20,21,22)         -3.2567         estimate D2E/DX2                !
 ! D70   D(19,20,21,25)        177.5723         estimate D2E/DX2                !
 ! D71   D(24,20,21,22)        176.6832         estimate D2E/DX2                !
 ! D72   D(24,20,21,25)         -2.4878         estimate D2E/DX2                !
 ! D73   D(20,21,22,3)        -170.9417         estimate D2E/DX2                !
 ! D74   D(20,21,22,23)          6.4098         estimate D2E/DX2                !
 ! D75   D(25,21,22,3)           8.2269         estimate D2E/DX2                !
 ! D76   D(25,21,22,23)       -174.4216         estimate D2E/DX2                !
 ! D77   D(3,22,23,19)         171.2442         estimate D2E/DX2                !
 ! D78   D(21,22,23,19)         -6.2707         estimate D2E/DX2                !
 ! D79   D(30,26,27,28)          6.4796         estimate D2E/DX2                !
 ! D80   D(30,26,27,32)       -172.429          estimate D2E/DX2                !
 ! D81   D(31,26,27,28)       -172.1549         estimate D2E/DX2                !
 ! D82   D(31,26,27,32)          8.9365         estimate D2E/DX2                !
 ! D83   D(27,26,30,29)         -7.3551         estimate D2E/DX2                !
 ! D84   D(31,26,30,29)        171.2593         estimate D2E/DX2                !
 ! D85   D(26,27,28,29)         -1.8838         estimate D2E/DX2                !
 ! D86   D(26,27,28,33)        177.4004         estimate D2E/DX2                !
 ! D87   D(32,27,28,29)        177.0177         estimate D2E/DX2                !
 ! D88   D(32,27,28,33)         -3.6981         estimate D2E/DX2                !
 ! D89   D(27,28,29,12)        178.7015         estimate D2E/DX2                !
 ! D90   D(27,28,29,30)         -3.5922         estimate D2E/DX2                !
 ! D91   D(33,28,29,12)         -0.5894         estimate D2E/DX2                !
 ! D92   D(33,28,29,30)        177.1168         estimate D2E/DX2                !
 ! D93   D(12,29,30,26)       -175.9285         estimate D2E/DX2                !
 ! D94   D(28,29,30,26)          6.2076         estimate D2E/DX2                !
 ! D95   D(19,34,35,36)        164.0852         estimate D2E/DX2                !
 ! D96   D(19,34,35,39)        -15.2272         estimate D2E/DX2                !
 ! D97   D(38,34,35,36)        -14.6584         estimate D2E/DX2                !
 ! D98   D(38,34,35,39)        166.0293         estimate D2E/DX2                !
 ! D99   D(19,34,38,37)       -159.0075         estimate D2E/DX2                !
 ! D100  D(35,34,38,37)         19.6607         estimate D2E/DX2                !
 ! D101  D(34,35,36,37)         -0.4837         estimate D2E/DX2                !
 ! D102  D(34,35,36,40)       -178.7301         estimate D2E/DX2                !
 ! D103  D(39,35,36,37)        178.8267         estimate D2E/DX2                !
 ! D104  D(39,35,36,40)          0.5803         estimate D2E/DX2                !
 ! D105  D(35,36,37,38)         15.3004         estimate D2E/DX2                !
 ! D106  D(35,36,37,41)       -164.1872         estimate D2E/DX2                !
 ! D107  D(40,36,37,38)       -166.4555         estimate D2E/DX2                !
 ! D108  D(40,36,37,41)         14.057          estimate D2E/DX2                !
 ! D109  D(36,37,38,34)        -20.2712         estimate D2E/DX2                !
 ! D110  D(41,37,38,34)        159.2263         estimate D2E/DX2                !
 --------------------------------------------------------------------------------
 Trust Radius=3.00D-01 FncErr=1.00D-07 GrdErr=1.00D-07
 Number of steps in this run=    239 maximum allowed number of steps=    246.
 GradGradGradGradGradGradGradGradGradGradGradGradGradGradGradGradGradGrad

                          Input orientation:                          
 ---------------------------------------------------------------------
 Center     Atomic      Atomic             Coordinates (Angstroms)
 Number     Number       Type             X           Y           Z
 ---------------------------------------------------------------------
      1          6           0       -0.483017   -0.377494    1.246109
      2          6           0        0.812191    0.121711    1.043802
      3          6           0        1.037257    1.298098    0.326034
      4          6           0       -0.079887    2.009909   -0.027696
      5          6           0       -1.334893    1.465774    0.015303
      6          6           0       -1.585303    0.265293    0.677823
      7          1           0       -0.631140   -1.253548    1.822504
      8          1           0        1.647347   -0.397944    1.421944
      9          6           0       -2.951261   -0.390459    0.734808
     10          6           0       -4.228478    0.162185    0.677503
     11          6           0       -5.320670   -0.908686    0.404746
     12          6           0       -4.745746   -2.129138    0.241646
     13         16           0       -3.110919   -2.144010    0.921045
     14          1           0       -4.419422    1.211024    0.785216
     15          1           0       -6.372294   -0.709042    0.325020
     16          7           0       -2.260510    2.236695   -0.743852
     17          7           0       -0.080126    3.392811   -0.470224
     18         16           0       -1.631760    3.752230   -0.993727
     19          6           0        5.021377    1.626446   -0.100070
     20          6           0        4.472635    2.314548   -1.158728
     21          6           0        2.920705    2.362051   -1.062207
     22          6           0        2.488631    1.648744    0.009108
     23         16           0        3.772078    1.067408    1.019700
     24          1           0        5.013314    2.754529   -1.937273
     25          1           0        2.287666    2.871220   -1.749170
     26          6           0       -7.182468   -4.571489   -1.884773
     27          6           0       -6.111542   -5.299321   -1.559864
     28          6           0       -5.080184   -4.478333   -0.720292
     29          6           0       -5.468773   -3.222583   -0.542999
     30         16           0       -6.983407   -2.892657   -1.415424
     31          1           0       -8.061112   -4.979562   -2.353993
     32          1           0       -5.975363   -6.295829   -1.851055
     33          1           0       -4.183220   -4.872899   -0.326804
     34          6           0        6.508392    1.331531    0.206978
     35          6           0        6.931237    1.031167    1.454432
     36          6           0        8.341115    0.404044    1.431682
     37          6           0        8.781780    0.307984    0.178509
     38         16           0        7.830466    1.298685   -0.946558
     39          1           0        6.354568    1.197206    2.343715
     40          1           0        8.877940    0.065028    2.302138
     41          1           0        9.583269   -0.280975   -0.123593
 ---------------------------------------------------------------------
                    Distance matrix (angstroms):
                    1          2          3          4          5
     1  C    0.000000
     2  C    1.402746   0.000000
     3  C    2.442413   1.396328   0.000000
     4  C    2.735834   2.347169   1.371061   0.000000
     5  C    2.374493   2.733914   2.398283   1.368566   0.000000
     6  C    1.396839   2.429513   2.840468   2.409921   1.393841
     7  H    1.059075   2.140307   3.396154   3.791737   3.340053
     8  H    2.137705   1.053811   2.109452   3.298871   3.787590
     9  C    2.520679   3.810690   4.350470   3.819420   2.564358
    10  C    3.826623   5.054122   5.398314   4.595889   3.242019
    11  C    4.938921   6.251567   6.730477   6.014234   4.655764
    12  C    4.716785   6.049829   6.722811   6.242956   4.960699
    13  S    3.183099   4.532036   5.423054   5.228988   4.123734
    14  H    4.269790   5.350070   5.476657   4.486715   3.189355
    15  H    5.970086   7.267986   7.676592   6.863782   5.495558
    16  N    3.735428   4.136467   3.591781   2.306389   1.423869
    17  N    4.162130   3.713301   2.504076   1.451981   2.350245
    18  S    4.836435   4.827534   3.858521   2.525313   2.516774
    19  C    6.010518   4.614100   4.020273   5.116168   6.359348
    20  C    6.130972   4.801929   3.878081   4.700797   5.985495
    21  C    4.941534   3.728301   2.570328   3.193394   4.480452
    22  C    3.803486   2.492564   1.526395   2.594046   3.827904
    23  S    4.499426   3.107387   2.830837   4.101582   5.220025
    24  H    7.081889   5.785152   4.801332   5.490140   6.765588
    25  H    5.215604   4.187782   2.888721   3.051333   4.267503
    26  C    8.501451   9.721998  10.339419   9.859523   8.617016
    27  C    7.986123   9.170864   9.908980   9.599649   8.429949
    28  C    6.466650   7.680659   8.478505   8.220703   7.064044
    29  C    6.012753   7.290592   7.969955   7.528918   6.275456
    30  S    7.460890   8.712379   9.215539   8.580183   7.276580
    31  H    9.569080  10.784410  11.374176  10.861138   9.612385
    32  H    8.647831   9.779361  10.563346  10.347298   9.233620
    33  H    6.031105   7.195750   8.109302   8.018719   6.957642
    34  C    7.271888   5.883082   5.472533   6.627268   7.846775
    35  C    7.549760   6.199875   6.006957   7.232599   8.401719
    36  C    8.860617   7.544194   7.440976   8.696082   9.836591
    37  C    9.351263   8.018590   7.808952   9.025974  10.184017
    38  S    8.759644   7.389384   6.911381   7.995238   9.217207
    39  H    7.101900   5.793479   5.688146   6.905525   8.038746
    40  H    9.430723   8.163512   8.179350   9.457978  10.559056
    41  H   10.159504   8.857583   8.702297   9.931462  11.057879
                    6          7          8          9         10
     6  C    0.000000
     7  H    2.127815   0.000000
     8  H    3.382842   2.466578   0.000000
     9  C    1.516278   2.703879   4.649667   0.000000
    10  C    2.645185   4.031894   5.949223   1.392833   0.000000
    11  C    3.925018   4.911279   7.060368   2.447774   1.553719
    12  C    3.988979   4.493968   6.727686   2.546839   2.389078
    13  S    2.862063   2.784754   5.093205   1.770626   2.574254
    14  H    2.989678   4.636935   6.308715   2.173198   1.071506
    15  H    4.897866   5.958171   8.100288   3.460187   2.340775
    16  N    2.522596   4.628480   5.186843   3.092816   3.193233
    17  N    3.655809   5.210458   4.575400   4.899863   5.381733
    18  S    3.867165   5.830112   5.814804   4.678759   4.735438
    19  C    6.790146   6.628846   4.218858   8.266068   9.397260
    20  C    6.653643   6.904170   4.690387   8.125070   9.149523
    21  C    5.265757   5.831785   3.925560   6.729454   7.679636
    22  C    4.354084   4.630839   2.625414   5.854691   6.912030
    23  S    5.427872   5.041791   2.612191   6.885479   8.058872
    24  H    7.521753   7.877846   5.705450   8.970252   9.948267
    25  H    5.261277   6.187890   4.599283   6.652447   7.462422
    26  C    7.828769   8.226332  10.311085   6.499718   6.139949
    27  C    7.513922   7.605491   9.649612   6.272944   6.195142
    28  C    6.055652   6.054672   8.154656   4.833254   4.920736
    29  C    5.360692   5.733706   7.904349   3.998947   3.805864
    30  S    6.594988   7.315883   9.421473   5.209865   4.615413
    31  H    8.867724   9.302193  11.379942   7.530680   7.093420
    32  H    8.289522   8.214643  10.178569   7.120764   7.152003
    33  H    5.844610   5.507858   7.555054   4.768334   5.134467
    34  C    8.177191   7.763084   5.300660   9.629584  10.810603
    35  C    8.586101   7.908536   5.473839  10.010127  11.220427
    36  C    9.955969   9.132453   6.741647  11.341720  12.594520
    37  C   10.379188   9.682157   7.276305  11.766968  13.020640
    38  S    9.610578   9.261770   6.835153  11.042003  12.220775
    39  H    8.166101   7.421453   5.054908   9.576414  10.763289
    40  H   10.590465   9.612039   7.298669  11.941272  13.207084
    41  H   11.210605  10.443531   8.085866  12.564365  13.842055
                   11         12         13         14         15
    11  C    0.000000
    12  C    1.358913   0.000000
    13  S    2.583716   1.770441   0.000000
    14  H    2.334560   3.399799   3.603732   0.000000
    15  H    1.073372   2.160853   3.612609   2.777074   0.000000
    16  N    4.536218   5.119385   4.762946   2.837420   5.169780
    17  N    6.836062   7.264068   6.463569   5.016554   7.553079
    18  S    6.106383   6.768570   6.373375   4.170543   6.641890
    19  C   10.660191  10.469855   9.021822   9.491312  11.638340
    20  C   10.427967  10.328888   9.039607   9.168717  11.355884
    21  C    8.987209   8.980271   7.785780   7.656063   9.885132
    22  C    8.226916   8.164721   6.824337   6.965281   9.174691
    23  S    9.325297   9.131078   7.595959   8.196114  10.322143
    24  H   11.211397  11.128214   9.908019   9.938354  12.113892
    25  H    8.764349   8.856399   7.837557   7.359646   9.597680
    26  C    4.703650   4.052697   5.508428   6.942674   4.523059
    27  C    4.874716   3.893700   5.011450   7.123711   4.969048
    28  C    3.750457   2.560448   3.467139   5.922157   4.119440
    29  C    2.504850   1.527762   2.977619   4.745751   2.808504
    30  S    3.164468   2.887208   4.584290   5.315734   2.858458
    31  H    5.629627   5.084674   6.578042   7.838360   5.316630
    32  H    5.876953   4.822102   5.755621   8.107016   6.008747
    33  H    4.188550   2.857936   3.186502   6.189224   4.749171
    34  C   12.040946  11.774254  10.252826  10.943766  13.041854
    35  C   12.448859  12.157726  10.545670  11.371793  13.464318
    36  C   13.763074  13.382791  11.743186  12.802361  14.796894
    37  C   14.156644  13.745454  12.165523  13.245955  15.188871
    38  S   13.403391  13.089038  11.621274  12.372005  14.400218
    39  H   12.021046  11.777105  10.138203  10.886137  13.026202
    40  H   14.357881  13.952233  12.268660  13.432580  15.397332
    41  H   14.926505  14.452327  12.872629  14.111250  15.967608
                   16         17         18         19         20
    16  N    0.000000
    17  N    2.483053   0.000000
    18  S    1.659701   1.676546   0.000000
    19  C    7.335718   5.411321   7.041436   0.000000
    20  C    6.746364   4.729093   6.273579   1.376721   0.000000
    21  C    5.192500   3.227677   4.760485   2.424799   1.555654
    22  C    4.844273   3.141662   4.733703   2.535197   2.396541
    23  S    6.392923   4.739921   6.361102   1.768377   2.606086
    24  H    7.389244   5.338799   6.785477   2.155911   1.045012
    25  H    4.700978   2.741204   4.087637   3.426685   2.330792
    26  C    8.478133  10.764492  10.044332  13.803384  13.556772
    27  C    8.502227  10.635717  10.115312  13.192390  13.044413
    28  C    7.283044   9.328346   8.927965  11.819245  11.729954
    29  C    6.335377   8.532658   7.973320  11.565142  11.396075
    30  S    7.004785   9.383806   8.542393  12.894467  12.586571
    31  H    9.397548  11.719273  10.928453  14.828049  14.550859
    32  H    9.371766  11.424985  10.980227  13.665895  13.556495
    33  H    7.376793   9.229189   9.019289  11.270204  11.281636
    34  C    8.866626   6.936573   8.576919   1.546760   2.641171
    35  C    9.527537   7.644663   9.312496   2.533455   3.810564
    36  C   10.976612   9.136042  10.795887   3.855021   5.032433
    37  C   11.247349   9.405871  11.030811   3.994569   4.937939
    38  S   10.136506   8.196934   9.775266   2.952109   3.514545
    39  H    9.210493   7.358275   9.024860   2.816688   4.130040
    40  H   11.749863   9.950230  11.615161   4.804342   6.036940
    41  H   12.124294  10.343987  11.949927   4.944660   5.824674
                   21         22         23         24         25
    21  C    0.000000
    22  C    1.357649   0.000000
    23  S    2.595241   1.733922   0.000000
    24  H    2.301911   3.374194   3.623635   0.000000
    25  H    1.063912   2.150901   3.622686   2.734622   0.000000
    26  C   12.281070  11.653679  12.658404  14.227101  12.045569
    27  C   11.854356  11.166927  12.036417  13.739337  11.719227
    28  C   10.531951   9.765247  10.589870  12.476941  10.457521
    29  C   10.091632   9.346385  10.307248  12.146769   9.937385
    30  S   11.217314  10.600618  11.717183  13.269678  10.921834
    31  H   13.272840  12.681315  13.710289  15.196396  13.003761
    32  H   12.438697  11.756515  12.548749  14.236132  12.341913
    33  H   10.166173   9.335859  10.019335  12.056016  10.191510
    34  C    3.942626   4.037110   2.866652   2.976238   4.900172
    35  C    4.918241   4.712442   3.189137   4.260524   5.933937
    36  C    6.279659   6.150168   4.635286   5.286671   7.269733
    37  C    6.333307   6.436619   5.136287   4.966232   7.242903
    38  S    5.024926   5.437927   4.515548   3.322250   5.817189
    39  H    4.974795   4.538694   2.905016   4.748797   6.007805
    40  H    7.216910   6.970611   5.359034   6.335720   8.229187
    41  H    7.228855   7.353592   6.074142   5.778253   8.112007
                   26         27         28         29         30
    26  C    0.000000
    27  C    1.334986   0.000000
    28  C    2.405055   1.562882   0.000000
    29  C    2.560597   2.400002   1.326403   0.000000
    30  S    1.754534   2.563794   2.572904   1.778790   0.000000
    31  H    1.076433   2.129251   3.436007   3.617582   2.529334
    32  H    2.105133   1.047074   2.320185   3.378237   3.575962
    33  H    3.393170   2.328239   1.055964   2.103076   3.598263
    34  C   15.055255  14.364981  12.996517  12.835688  14.230411
    35  C   15.547884  14.807942  13.392470  13.260631  14.739395
    36  C   16.635396  15.822673  14.442986  14.414047  15.931579
    37  C   16.820333  16.008587  14.692540  14.699106  16.165576
    38  S   16.147055  15.436626  14.146025  14.052561  15.402533
    39  H   15.310430  14.589266  13.128345  12.948321  14.448518
    40  H   17.232650  16.382182  14.986876  14.991042  16.557490
    41  H   17.395407  16.540065  15.264034  15.342520  16.820953
                   31         32         33         34         35
    31  H    0.000000
    32  H    2.517112   0.000000
    33  H    4.377090   2.749517   0.000000
    34  C   16.082877  14.773499  12.372973   0.000000
    35  C   16.595285  15.204981  12.710702   1.350984   0.000000
    36  C   17.673358  16.143921  13.703918   2.391444   1.543229
    37  C   17.834089  16.294256  13.970974   2.493342   2.361246
    38  S   17.144665  15.782766  13.520400   1.754880   2.577777
    39  H   16.371706  15.025607  12.450816   2.146474   1.072819
    40  H   18.277279  16.683229  14.208743   3.407122   2.332741
    41  H   18.394988  16.770022  14.513555   3.487739   3.353380
                   36         37         38         39         40
    36  C    0.000000
    37  C    1.331862   0.000000
    38  S    2.591751   1.775462   0.000000
    39  H    2.325356   3.371972   3.607558   0.000000
    40  H    1.077407   2.139643   3.629482   2.766037   0.000000
    41  H    2.105013   1.039482   2.498983   4.324019   2.549780
                   41
    41  H    0.000000
 Stoichiometry    C22H12N2S5
 Framework group  C1[X(C22H12N2S5)]
 Deg. of freedom   117
 Full point group                 C1      NOp   1
 Largest Abelian subgroup         C1      NOp   1
 Largest concise Abelian subgroup C1      NOp   1
                         Standard orientation:                         
 ---------------------------------------------------------------------
 Center     Atomic      Atomic             Coordinates (Angstroms)
 Number     Number       Type             X           Y           Z
 ---------------------------------------------------------------------
      1          6           0        0.527176   -0.365102   -1.344652
      2          6           0       -0.844972   -0.282720   -1.065152
      3          6           0       -1.388463    0.813848   -0.392925
      4          6           0       -0.535983    1.863573   -0.166735
      5          6           0        0.821902    1.737846   -0.282126
      6          6           0        1.400328    0.630479   -0.900148
      7          1           0        0.910971   -1.190906   -1.885382
      8          1           0       -1.493029   -1.064063   -1.348072
      9          6           0        2.897810    0.432743   -1.032623
     10          6           0        3.934587    1.359925   -1.106171
     11          6           0        5.324446    0.707830   -0.867197
     12          6           0        5.177461   -0.615658   -0.596234
     13         16           0        3.594365   -1.191511   -1.140900
     14          1           0        3.775953    2.404858   -1.282455
     15          1           0        6.261105    1.231823   -0.882266
     16          7           0        1.498593    2.813588    0.359958
     17          7           0       -0.948245    3.205840    0.202872
     18         16           0        0.437439    4.070389    0.581346
     19          6           0       -5.237803   -0.090378    0.333407
     20          6           0       -4.873598    0.811161    1.308057
     21          6           0       -3.425692    1.334609    1.085282
     22          6           0       -2.854403    0.715168    0.020795
     23         16           0       -3.944950   -0.311611   -0.852656
     24          1           0       -5.478416    1.116160    2.103809
     25          1           0       -2.947132    2.065610    1.692345
     26          6           0        8.385902   -2.008660    1.450667
     27          6           0        7.583969   -3.056963    1.250287
     28          6           0        6.297119   -2.664354    0.455005
     29          6           0        6.255702   -1.366796    0.183024
     30         16           0        7.636586   -0.515955    0.913313
     31          1           0        9.375026   -2.085445    1.868333
     32          1           0        7.788791   -4.021642    1.602150
     33          1           0        5.549945   -3.347723    0.155344
     34          6           0       -6.569866   -0.857625    0.161928
     35          6           0       -6.949275   -1.366578   -1.030621
     36          6           0       -8.083178   -2.399875   -0.862941
     37          6           0       -8.394830   -2.536070    0.424762
     38         16           0       -7.741707   -1.217124    1.417776
     39          1           0       -6.509369   -1.094660   -1.970560
     40          1           0       -8.535656   -2.953219   -1.669093
     41          1           0       -8.948367   -3.322210    0.819862
 ---------------------------------------------------------------------
 Rotational constants (GHZ):      0.2578213      0.0398347      0.0364638
 Standard basis: 6-31+G(d,p) (6D, 7F)
 There are   631 symmetry adapted cartesian basis functions of A   symmetry.
 There are   631 symmetry adapted basis functions of A   symmetry.
   631 basis functions,  1132 primitive gaussians,   631 cartesian basis functions
   119 alpha electrons      119 beta electrons
       nuclear repulsion energy      3040.0964777717 Hartrees.
 NAtoms=   41 NActive=   41 NUniq=   41 SFac= 1.00D+00 NAtFMM=   60 NAOKFM=F Big=F
 Integral buffers will be    131072 words long.
 Raffenetti 1 integral format.
 Two-electron integral symmetry is turned on.
 One-electron integrals computed using PRISM.
 NBasis=   631 RedAO= T EigKep=  1.02D-06  NBF=   631
 NBsUse=   626 1.00D-06 EigRej=  8.27D-07 NBFU=   626
 ExpMin= 4.05D-02 ExpMax= 2.19D+04 ExpMxC= 3.30D+03 IAcc=2 IRadAn=         4 AccDes= 0.00D+00
 Harris functional with IExCor=  205 and IRadAn=       4 diagonalized for initial guess.
 HarFok:  IExCor=  205 AccDes= 0.00D+00 IRadAn=         4 IDoV= 1 UseB2=F ITyADJ=14
 ICtDFT=  3500011 ScaDFX=  1.000000  1.000000  1.000000  1.000000
 FoFCou: FMM=F IPFlag=           0 FMFlag=      100000 FMFlg1=           0
         NFxFlg=           0 DoJE=T BraDBF=F KetDBF=T FulRan=T
         wScrn=  0.000000 ICntrl=     500 IOpCl=  0 I1Cent=   200000004 NGrid=           0
         NMat0=    1 NMatS0=      1 NMatT0=    0 NMatD0=    1 NMtDS0=    0 NMtDT0=    0
 Petite list used in FoFCou.
 Requested convergence on RMS density matrix=1.00D-08 within 128 cycles.
 Requested convergence on MAX density matrix=1.00D-06.
 Requested convergence on             energy=1.00D-06.
 No special actions if energy rises.
 Initial convergence to 1.0D-05 achieved.  Increase integral accuracy.
 SCF Done:  E(RHF) =  -2936.34228284     A.U. after   23 cycles
            NFock= 23  Conv=0.68D-08     -V/T= 2.0014
 ExpMin= 4.05D-02 ExpMax= 2.19D+04 ExpMxC= 3.30D+03 IAcc=3 IRadAn=         5 AccDes= 0.00D+00
 HarFok:  IExCor=  205 AccDes= 0.00D+00 IRadAn=         5 IDoV=-2 UseB2=F ITyADJ=14
 ICtDFT= 12500011 ScaDFX=  1.000000  1.000000  1.000000  1.000000
 Range of M.O.s used for correlation:    50   626
 NBasis=   631 NAE=   119 NBE=   119 NFC=    49 NFV=     0
 NROrb=    577 NOA=    70 NOB=    70 NVA=   507 NVB=   507

 **** Warning!!: The largest alpha MO coefficient is  0.14875761D+03

 Fully direct method using O(ONN) memory.
 JobTyp=1 Pass  1:  I=  50 to  52 NPSUse= 24 ParTrn=T ParDer=T DoDerP=T.
 JobTyp=1 Pass  2:  I=  53 to  55 NPSUse= 24 ParTrn=T ParDer=T DoDerP=T.
 JobTyp=1 Pass  3:  I=  56 to  58 NPSUse= 24 ParTrn=T ParDer=T DoDerP=T.
 JobTyp=1 Pass  4:  I=  59 to  61 NPSUse= 24 ParTrn=T ParDer=T DoDerP=T.
 JobTyp=1 Pass  5:  I=  62 to  64 NPSUse= 24 ParTrn=T ParDer=T DoDerP=T.
 JobTyp=1 Pass  6:  I=  65 to  67 NPSUse= 24 ParTrn=T ParDer=T DoDerP=T.
 JobTyp=1 Pass  7:  I=  68 to  70 NPSUse= 24 ParTrn=T ParDer=T DoDerP=T.
 JobTyp=1 Pass  8:  I=  71 to  73 NPSUse= 24 ParTrn=T ParDer=T DoDerP=T.
 JobTyp=1 Pass  9:  I=  74 to  76 NPSUse= 24 ParTrn=T ParDer=T DoDerP=T.
 JobTyp=1 Pass 10:  I=  77 to  79 NPSUse= 24 ParTrn=T ParDer=T DoDerP=T.
 JobTyp=1 Pass 11:  I=  80 to  82 NPSUse= 24 ParTrn=T ParDer=T DoDerP=T.
 JobTyp=1 Pass 12:  I=  83 to  85 NPSUse= 24 ParTrn=T ParDer=T DoDerP=T.
 JobTyp=1 Pass 13:  I=  86 to  88 NPSUse= 24 ParTrn=T ParDer=T DoDerP=T.
 JobTyp=1 Pass 14:  I=  89 to  91 NPSUse= 24 ParTrn=T ParDer=T DoDerP=T.
 JobTyp=1 Pass 15:  I=  92 to  94 NPSUse= 24 ParTrn=T ParDer=T DoDerP=T.
 JobTyp=1 Pass 16:  I=  95 to  97 NPSUse= 24 ParTrn=T ParDer=T DoDerP=T.
 JobTyp=1 Pass 17:  I=  98 to 100 NPSUse= 24 ParTrn=T ParDer=T DoDerP=T.
 JobTyp=1 Pass 18:  I= 101 to 103 NPSUse= 24 ParTrn=T ParDer=T DoDerP=T.
 JobTyp=1 Pass 19:  I= 104 to 106 NPSUse= 24 ParTrn=T ParDer=T DoDerP=T.
 JobTyp=1 Pass 20:  I= 107 to 109 NPSUse= 24 ParTrn=T ParDer=T DoDerP=T.
 JobTyp=1 Pass 21:  I= 110 to 112 NPSUse= 24 ParTrn=T ParDer=T DoDerP=T.
 JobTyp=1 Pass 22:  I= 113 to 115 NPSUse= 24 ParTrn=T ParDer=T DoDerP=T.
 JobTyp=1 Pass 23:  I= 116 to 118 NPSUse= 24 ParTrn=T ParDer=T DoDerP=T.
 JobTyp=1 Pass 24:  I= 119 to 119 NPSUse= 24 ParTrn=T ParDer=T DoDerP=T.
 Spin components of T(2) and E(2):
     alpha-alpha T2 =       0.2232798627D+00 E2=     -0.5387592627D+00
     alpha-beta  T2 =       0.1119924862D+01 E2=     -0.2851023787D+01
     beta-beta   T2 =       0.2232798627D+00 E2=     -0.5387592627D+00
 ANorm=    0.1602025152D+01
 E2 =    -0.3928542313D+01 EUMP2 =    -0.29402708251521D+04
          IDoAtm=11111111111111111111111111111111111111111
          Differentiating once with respect to electric field.
                with respect to dipole field.
          Differentiating once with respect to nuclear coordinates.
          There are     1 degrees of freedom in the 1st order CPHF.  IDoFFX=0 NUNeed=     1.
 LinEq1:  Iter=  0 NonCon=     1 RMS=2.45D-03 Max=7.94D-02 NDo=     1
 AX will form     1 AO Fock derivatives at one time.
 LinEq1:  Iter=  1 NonCon=     1 RMS=6.34D-04 Max=1.47D-02 NDo=     1
 LinEq1:  Iter=  2 NonCon=     1 RMS=3.14D-04 Max=2.62D-02 NDo=     1
 LinEq1:  Iter=  3 NonCon=     1 RMS=1.17D-04 Max=3.90D-03 NDo=     1
 LinEq1:  Iter=  4 NonCon=     1 RMS=5.59D-05 Max=4.09D-03 NDo=     1
 LinEq1:  Iter=  5 NonCon=     1 RMS=2.35D-05 Max=1.77D-03 NDo=     1
 LinEq1:  Iter=  6 NonCon=     1 RMS=1.48D-05 Max=1.13D-03 NDo=     1
 LinEq1:  Iter=  7 NonCon=     1 RMS=7.16D-06 Max=3.83D-04 NDo=     1
 LinEq1:  Iter=  8 NonCon=     1 RMS=2.93D-06 Max=1.49D-04 NDo=     1
 LinEq1:  Iter=  9 NonCon=     1 RMS=1.20D-06 Max=4.41D-05 NDo=     1
 LinEq1:  Iter= 10 NonCon=     1 RMS=6.21D-07 Max=4.39D-05 NDo=     1
 LinEq1:  Iter= 11 NonCon=     1 RMS=2.29D-07 Max=1.25D-05 NDo=     1
 LinEq1:  Iter= 12 NonCon=     1 RMS=9.25D-08 Max=2.96D-06 NDo=     1
 LinEq1:  Iter= 13 NonCon=     1 RMS=3.67D-08 Max=1.30D-06 NDo=     1
 LinEq1:  Iter= 14 NonCon=     1 RMS=1.31D-08 Max=8.13D-07 NDo=     1
 LinEq1:  Iter= 15 NonCon=     1 RMS=5.45D-09 Max=4.57D-07 NDo=     1
 LinEq1:  Iter= 16 NonCon=     1 RMS=2.19D-09 Max=1.49D-07 NDo=     1
 LinEq1:  Iter= 17 NonCon=     1 RMS=1.03D-09 Max=7.05D-08 NDo=     1
 LinEq1:  Iter= 18 NonCon=     1 RMS=4.20D-10 Max=1.95D-08 NDo=     1
 LinEq1:  Iter= 19 NonCon=     1 RMS=1.51D-10 Max=5.87D-09 NDo=     1
 LinEq1:  Iter= 20 NonCon=     1 RMS=6.24D-11 Max=1.54D-09 NDo=     1
 LinEq1:  Iter= 21 NonCon=     0 RMS=2.59D-11 Max=9.18D-10 NDo=     1
 Linear equations converged to 1.000D-10 1.000D-09 after    21 iterations.
 End of Minotr F.D. properties file   721 does not exist.
 End of Minotr F.D. properties file   722 does not exist.
 End of Minotr F.D. properties file   788 does not exist.

 **********************************************************************

            Population analysis using the SCF density.

 **********************************************************************

 Orbital symmetries:
       Occupied  (A) (A) (A) (A) (A) (A) (A) (A) (A) (A) (A) (A)
                 (A) (A) (A) (A) (A) (A) (A) (A) (A) (A) (A) (A)
                 (A) (A) (A) (A) (A) (A) (A) (A) (A) (A) (A) (A)
                 (A) (A) (A) (A) (A) (A) (A) (A) (A) (A) (A) (A)
                 (A) (A) (A) (A) (A) (A) (A) (A) (A) (A) (A) (A)
                 (A) (A) (A) (A) (A) (A) (A) (A) (A) (A) (A) (A)
                 (A) (A) (A) (A) (A) (A) (A) (A) (A) (A) (A) (A)
                 (A) (A) (A) (A) (A) (A) (A) (A) (A) (A) (A) (A)
                 (A) (A) (A) (A) (A) (A) (A) (A) (A) (A) (A) (A)
                 (A) (A) (A) (A) (A) (A) (A) (A) (A) (A) (A)
       Virtual   (A) (A) (A) (A) (A) (A) (A) (A) (A) (A) (A) (A)
                 (A) (A) (A) (A) (A) (A) (A) (A) (A) (A) (A) (A)
                 (A) (A) (A) (A) (A) (A) (A) (A) (A) (A) (A) (A)
                 (A) (A) (A) (A) (A) (A) (A) (A) (A) (A) (A) (A)
                 (A) (A) (A) (A) (A) (A) (A) (A) (A) (A) (A) (A)
                 (A) (A) (A) (A) (A) (A) (A) (A) (A) (A) (A) (A)
                 (A) (A) (A) (A) (A) (A) (A) (A) (A) (A) (A) (A)
                 (A) (A) (A) (A) (A) (A) (A) (A) (A) (A) (A) (A)
                 (A) (A) (A) (A) (A) (A) (A) (A) (A) (A) (A) (A)
                 (A) (A) (A) (A) (A) (A) (A) (A) (A) (A) (A) (A)
                 (A) (A) (A) (A) (A) (A) (A) (A) (A) (A) (A) (A)
                 (A) (A) (A) (A) (A) (A) (A) (A) (A) (A) (A) (A)
                 (A) (A) (A) (A) (A) (A) (A) (A) (A) (A) (A) (A)
                 (A) (A) (A) (A) (A) (A) (A) (A) (A) (A) (A) (A)
                 (A) (A) (A) (A) (A) (A) (A) (A) (A) (A) (A) (A)
                 (A) (A) (A) (A) (A) (A) (A) (A) (A) (A) (A) (A)
                 (A) (A) (A) (A) (A) (A) (A) (A) (A) (A) (A) (A)
                 (A) (A) (A) (A) (A) (A) (A) (A) (A) (A) (A) (A)
                 (A) (A) (A) (A) (A) (A) (A) (A) (A) (A) (A) (A)
                 (A) (A) (A) (A) (A) (A) (A) (A) (A) (A) (A) (A)
                 (A) (A) (A) (A) (A) (A) (A) (A) (A) (A) (A) (A)
                 (A) (A) (A) (A) (A) (A) (A) (A) (A) (A) (A) (A)
                 (A) (A) (A) (A) (A) (A) (A) (A) (A) (A) (A) (A)
                 (A) (A) (A) (A) (A) (A) (A) (A) (A) (A) (A) (A)
                 (A) (A) (A) (A) (A) (A) (A) (A) (A) (A) (A) (A)
                 (A) (A) (A) (A) (A) (A) (A) (A) (A) (A) (A) (A)
                 (A) (A) (A) (A) (A) (A) (A) (A) (A) (A) (A) (A)
                 (A) (A) (A) (A) (A) (A) (A) (A) (A) (A) (A) (A)
                 (A) (A) (A) (A) (A) (A) (A) (A) (A) (A) (A) (A)
                 (A) (A) (A) (A) (A) (A) (A) (A) (A) (A) (A) (A)
                 (A) (A) (A) (A) (A) (A) (A) (A) (A) (A) (A) (A)
                 (A) (A) (A) (A) (A) (A) (A) (A) (A) (A) (A) (A)
                 (A) (A) (A) (A) (A) (A) (A) (A) (A) (A) (A) (A)
                 (A) (A) (A) (A) (A) (A) (A) (A) (A) (A) (A) (A)
                 (A) (A) (A) (A) (A) (A) (A) (A) (A) (A) (A) (A)
                 (A) (A) (A) (A) (A) (A) (A) (A) (A) (A) (A) (A)
                 (A) (A) (A) (A) (A) (A) (A) (A) (A) (A) (A) (A)
                 (A) (A) (A) (A) (A) (A) (A) (A) (A) (A) (A) (A)
                 (A) (A) (A) (A) (A) (A) (A) (A) (A) (A) (A) (A)
                 (A) (A) (A) (A) (A) (A) (A) (A) (A) (A) (A) (A)
                 (A) (A) (A) (A) (A) (A) (A) (A) (A) (A) (A) (A)
                 (A) (A) (A) (A) (A) (A) (A) (A) (A) (A) (A) (A)
                 (A) (A) (A)
 The electronic state is 1-A.
 Alpha  occ. eigenvalues --  -92.08246 -91.98378 -91.98142 -91.98039 -91.97802
 Alpha  occ. eigenvalues --  -15.63638 -15.63441 -11.31089 -11.30900 -11.30287
 Alpha  occ. eigenvalues --  -11.29983 -11.29719 -11.29711 -11.29485 -11.29193
 Alpha  occ. eigenvalues --  -11.29121 -11.28667 -11.27493 -11.27152 -11.26989
 Alpha  occ. eigenvalues --  -11.26980 -11.26704 -11.26371 -11.26241 -11.25983
 Alpha  occ. eigenvalues --  -11.25978 -11.25850 -11.25554 -11.25452  -9.08050
 Alpha  occ. eigenvalues --   -8.99212  -8.98915  -8.98829  -8.98599  -6.76249
 Alpha  occ. eigenvalues --   -6.76092  -6.76042  -6.67483  -6.67378  -6.67196
 Alpha  occ. eigenvalues --   -6.67184  -6.67095  -6.67093  -6.66999  -6.66891
 Alpha  occ. eigenvalues --   -6.66865  -6.66804  -6.66769  -6.66581  -1.31910
 Alpha  occ. eigenvalues --   -1.19681  -1.18571  -1.17773  -1.16680  -1.15139
 Alpha  occ. eigenvalues --   -1.14852  -1.07279  -1.04923  -1.04076  -1.02291
 Alpha  occ. eigenvalues --   -0.99215  -0.98332  -0.97376  -0.97033  -0.96660
 Alpha  occ. eigenvalues --   -0.95894  -0.88980  -0.85000  -0.84336  -0.80019
 Alpha  occ. eigenvalues --   -0.79504  -0.77350  -0.76618  -0.75074  -0.74809
 Alpha  occ. eigenvalues --   -0.72086  -0.71714  -0.70584  -0.70262  -0.68178
 Alpha  occ. eigenvalues --   -0.68077  -0.66691  -0.64838  -0.62448  -0.61174
 Alpha  occ. eigenvalues --   -0.59634  -0.58185  -0.57578  -0.57139  -0.56988
 Alpha  occ. eigenvalues --   -0.56107  -0.55705  -0.54760  -0.54336  -0.53832
 Alpha  occ. eigenvalues --   -0.53006  -0.52804  -0.52451  -0.52005  -0.50690
 Alpha  occ. eigenvalues --   -0.50444  -0.49449  -0.48529  -0.48379  -0.47608
 Alpha  occ. eigenvalues --   -0.47054  -0.46254  -0.45148  -0.43843  -0.38719
 Alpha  occ. eigenvalues --   -0.38153  -0.36206  -0.34953  -0.34508  -0.34302
 Alpha  occ. eigenvalues --   -0.34032  -0.33330  -0.30539  -0.27310
 Alpha virt. eigenvalues --   -0.00808   0.05160   0.05914   0.05994   0.06550
 Alpha virt. eigenvalues --    0.06821   0.07149   0.07263   0.07936   0.07979
 Alpha virt. eigenvalues --    0.08325   0.08632   0.08683   0.08887   0.09406
 Alpha virt. eigenvalues --    0.09551   0.09883   0.09951   0.09973   0.10688
 Alpha virt. eigenvalues --    0.10849   0.11099   0.11433   0.11825   0.11901
 Alpha virt. eigenvalues --    0.12046   0.12529   0.12680   0.12926   0.13151
 Alpha virt. eigenvalues --    0.13531   0.13741   0.14112   0.14388   0.14744
 Alpha virt. eigenvalues --    0.14976   0.15508   0.15649   0.15686   0.16098
 Alpha virt. eigenvalues --    0.16373   0.16829   0.17227   0.17506   0.17605
 Alpha virt. eigenvalues --    0.17797   0.18001   0.18783   0.19034   0.19157
 Alpha virt. eigenvalues --    0.19696   0.19915   0.19976   0.20386   0.20452
 Alpha virt. eigenvalues --    0.20816   0.21165   0.21710   0.21866   0.22016
 Alpha virt. eigenvalues --    0.22463   0.22678   0.22843   0.23208   0.23256
 Alpha virt. eigenvalues --    0.23686   0.23721   0.23953   0.24402   0.24492
 Alpha virt. eigenvalues --    0.24894   0.25488   0.25583   0.25693   0.26006
 Alpha virt. eigenvalues --    0.26078   0.26385   0.26718   0.26746   0.26894
 Alpha virt. eigenvalues --    0.27240   0.27529   0.27874   0.27968   0.28366
 Alpha virt. eigenvalues --    0.28396   0.28670   0.28862   0.29210   0.29396
 Alpha virt. eigenvalues --    0.29738   0.30037   0.30084   0.30221   0.30527
 Alpha virt. eigenvalues --    0.31231   0.31358   0.31631   0.32174   0.32319
 Alpha virt. eigenvalues --    0.32832   0.32916   0.33296   0.33606   0.33679
 Alpha virt. eigenvalues --    0.33750   0.34358   0.34591   0.34972   0.35277
 Alpha virt. eigenvalues --    0.35533   0.35637   0.36023   0.36276   0.36606
 Alpha virt. eigenvalues --    0.37113   0.37188   0.37378   0.37723   0.38211
 Alpha virt. eigenvalues --    0.38314   0.38653   0.39188   0.39242   0.39798
 Alpha virt. eigenvalues --    0.39992   0.40650   0.41252   0.41418   0.41644
 Alpha virt. eigenvalues --    0.41751   0.42457   0.43152   0.43294   0.43610
 Alpha virt. eigenvalues --    0.44267   0.44714   0.45043   0.45462   0.46100
 Alpha virt. eigenvalues --    0.46186   0.46734   0.46978   0.47752   0.48540
 Alpha virt. eigenvalues --    0.48615   0.48954   0.49378   0.49929   0.49992
 Alpha virt. eigenvalues --    0.50856   0.51165   0.52053   0.52873   0.53359
 Alpha virt. eigenvalues --    0.54343   0.54838   0.56719   0.57771   0.58384
 Alpha virt. eigenvalues --    0.60145   0.61957   0.63747   0.65046   0.66491
 Alpha virt. eigenvalues --    0.67011   0.68347   0.69441   0.69955   0.70359
 Alpha virt. eigenvalues --    0.71055   0.71611   0.73234   0.74491   0.75322
 Alpha virt. eigenvalues --    0.76001   0.76632   0.76924   0.77290   0.79482
 Alpha virt. eigenvalues --    0.80562   0.80976   0.81433   0.82101   0.83133
 Alpha virt. eigenvalues --    0.83753   0.84314   0.84910   0.85841   0.86398
 Alpha virt. eigenvalues --    0.87412   0.87891   0.88494   0.88984   0.89565
 Alpha virt. eigenvalues --    0.90201   0.90662   0.90880   0.91044   0.91792
 Alpha virt. eigenvalues --    0.92097   0.92966   0.93307   0.93475   0.93800
 Alpha virt. eigenvalues --    0.94115   0.95334   0.96049   0.96480   0.97019
 Alpha virt. eigenvalues --    0.97388   0.97547   0.98022   0.99259   0.99606
 Alpha virt. eigenvalues --    1.00115   1.00378   1.00785   1.01507   1.02061
 Alpha virt. eigenvalues --    1.02692   1.03736   1.04811   1.04962   1.05159
 Alpha virt. eigenvalues --    1.05499   1.05669   1.06175   1.06517   1.06840
 Alpha virt. eigenvalues --    1.07524   1.07712   1.08922   1.10420   1.11650
 Alpha virt. eigenvalues --    1.12207   1.13327   1.13541   1.14418   1.15023
 Alpha virt. eigenvalues --    1.15450   1.15727   1.16319   1.16660   1.17177
 Alpha virt. eigenvalues --    1.17632   1.18425   1.18611   1.18684   1.20029
 Alpha virt. eigenvalues --    1.20410   1.20966   1.21156   1.21698   1.22006
 Alpha virt. eigenvalues --    1.22506   1.23133   1.23427   1.24616   1.25046
 Alpha virt. eigenvalues --    1.25465   1.25712   1.25973   1.26441   1.27232
 Alpha virt. eigenvalues --    1.27768   1.28651   1.29456   1.29888   1.30210
 Alpha virt. eigenvalues --    1.30831   1.31404   1.32090   1.33159   1.33460
 Alpha virt. eigenvalues --    1.33887   1.34834   1.35093   1.36374   1.36522
 Alpha virt. eigenvalues --    1.37280   1.37849   1.38223   1.38653   1.38999
 Alpha virt. eigenvalues --    1.39301   1.40156   1.41047   1.41318   1.41705
 Alpha virt. eigenvalues --    1.43134   1.43716   1.45584   1.46331   1.47191
 Alpha virt. eigenvalues --    1.47797   1.48389   1.48922   1.49208   1.50300
 Alpha virt. eigenvalues --    1.51090   1.52134   1.52387   1.52672   1.53724
 Alpha virt. eigenvalues --    1.54974   1.55992   1.57464   1.57863   1.59963
 Alpha virt. eigenvalues --    1.60638   1.61740   1.62196   1.63083   1.64620
 Alpha virt. eigenvalues --    1.65257   1.65700   1.65827   1.67028   1.67884
 Alpha virt. eigenvalues --    1.69159   1.69739   1.70705   1.72027   1.73649
 Alpha virt. eigenvalues --    1.75051   1.75436   1.75613   1.77586   1.79112
 Alpha virt. eigenvalues --    1.79794   1.82177   1.84359   1.85382   1.86000
 Alpha virt. eigenvalues --    1.86614   1.88750   1.92074   1.93400   1.95233
 Alpha virt. eigenvalues --    1.97009   1.99100   1.99726   2.02841   2.03461
 Alpha virt. eigenvalues --    2.03849   2.04728   2.05706   2.06113   2.06961
 Alpha virt. eigenvalues --    2.08151   2.08582   2.09169   2.10222   2.12489
 Alpha virt. eigenvalues --    2.13955   2.15853   2.18184   2.20108   2.20428
 Alpha virt. eigenvalues --    2.20803   2.21372   2.23566   2.24387   2.24948
 Alpha virt. eigenvalues --    2.25287   2.26794   2.27100   2.27701   2.28825
 Alpha virt. eigenvalues --    2.29243   2.31029   2.32879   2.34512   2.34642
 Alpha virt. eigenvalues --    2.35834   2.36547   2.36819   2.38292   2.40003
 Alpha virt. eigenvalues --    2.41169   2.42810   2.44238   2.46052   2.46257
 Alpha virt. eigenvalues --    2.47415   2.49975   2.50867   2.52715   2.53368
 Alpha virt. eigenvalues --    2.53830   2.54736   2.55561   2.56140   2.56734
 Alpha virt. eigenvalues --    2.57853   2.58477   2.59004   2.59871   2.60594
 Alpha virt. eigenvalues --    2.62047   2.66161   2.66756   2.68528   2.68910
 Alpha virt. eigenvalues --    2.70546   2.71091   2.71401   2.72151   2.72510
 Alpha virt. eigenvalues --    2.73521   2.73843   2.75749   2.76964   2.78060
 Alpha virt. eigenvalues --    2.78407   2.79051   2.80133   2.81483   2.82372
 Alpha virt. eigenvalues --    2.83450   2.84110   2.84402   2.85035   2.86196
 Alpha virt. eigenvalues --    2.87182   2.87476   2.88855   2.89639   2.90100
 Alpha virt. eigenvalues --    2.90481   2.92509   2.93439   2.95577   2.96862
 Alpha virt. eigenvalues --    2.97392   2.99332   3.00634   3.00779   3.02741
 Alpha virt. eigenvalues --    3.03265   3.03788   3.04299   3.05339   3.07172
 Alpha virt. eigenvalues --    3.10775   3.11483   3.14154   3.15555   3.16945
 Alpha virt. eigenvalues --    3.17766   3.18343   3.21753   3.23465   3.24799
 Alpha virt. eigenvalues --    3.26281   3.31255   3.33633   3.35207   3.42758
 Alpha virt. eigenvalues --    3.45425   3.48942   3.52873   3.55328   3.65346
 Alpha virt. eigenvalues --    3.65907   3.67343   3.69502   3.70562   3.75214
 Alpha virt. eigenvalues --    3.76548   3.80619   3.81923   3.99983   4.04385
 Alpha virt. eigenvalues --    4.08467   4.09948   4.14365   4.34221   4.38565
 Alpha virt. eigenvalues --    4.38672   4.39428   4.39622   4.50230   4.59202
 Alpha virt. eigenvalues --    4.66599   4.67940   4.70881   4.71938   4.72487
 Alpha virt. eigenvalues --    4.73339   4.73872   4.76009   4.76425   4.78407
 Alpha virt. eigenvalues --    4.78650   4.85298   4.87307   4.90176   4.92676
 Alpha virt. eigenvalues --    4.95697   4.97995   5.03674   5.05844   5.09490
 Alpha virt. eigenvalues --    5.10335   5.27635
          Condensed to atoms (all electrons):
               1          2          3          4          5          6
     1  C   12.966382   3.597576  -2.505133  -2.380208  -2.329076  -0.212565
     2  C    3.597576  15.265893   2.370902  -4.795703  -6.337740  -6.070292
     3  C   -2.505133   2.370902  24.440153   1.590355 -15.257622  -7.160479
     4  C   -2.380208  -4.795703   1.590355  24.685300  -1.181036  -3.482066
     5  C   -2.329076  -6.337740 -15.257622  -1.181036  31.996473   6.459963
     6  C   -0.212565  -6.070292  -7.160479  -3.482066   6.459963  20.107709
     7  H    0.253480  -0.170325   0.021323  -0.003636   0.019221   0.172520
     8  H   -0.164886   0.287167   0.134509   0.004534  -0.003226   0.017503
     9  C   -1.733636  -0.556223  -0.734239  -2.163190   0.955708   1.089872
    10  C   -0.767338   0.541076   0.742491   1.297689  -2.059009  -2.611920
    11  C    0.297422  -0.055681  -0.190921   0.050339   0.583186   0.533401
    12  C   -0.992921  -0.058824   0.101828   0.185799  -0.047802  -0.693505
    13  S   -0.239697  -0.276352  -0.142087  -0.096783   0.222454   0.594784
    14  H   -0.027663  -0.004933  -0.000557   0.012832   0.084117  -0.028951
    15  H    0.001265   0.000073  -0.000018  -0.000038   0.000096  -0.000039
    16  N    0.058268   0.032841   0.064374  -0.172136   0.188049  -0.002238
    17  N   -0.019755  -0.004203  -0.120439   0.441034   0.003866  -0.038574
    18  S    0.026032   0.027590  -0.048427  -0.160790  -0.224751  -0.106078
    19  C   -0.002604  -0.248917  -0.425891  -0.823455  -0.087506  -0.120949
    20  C   -0.136947  -0.124772  -0.441406   0.141016   0.209755  -0.015283
    21  C    0.045957  -1.151913  -0.415694   0.589718   0.670685  -0.386580
    22  C   -0.411615   3.023272   1.951348  -6.201267  -6.718495  -2.466610
    23  S   -0.224449   0.071479   0.290007  -0.634986  -0.244941  -0.334111
    24  H    0.000055  -0.000209   0.002355   0.002396   0.000027  -0.000050
    25  H   -0.002569  -0.025425  -0.027410   0.091052   0.057835   0.003756
    26  C    0.003586   0.000511   0.000546   0.001158   0.000489  -0.001625
    27  C   -0.004421  -0.000314  -0.000450  -0.000259  -0.006236   0.000584
    28  C   -0.065408  -0.013383  -0.003880   0.024034   0.043789  -0.042888
    29  C    0.785273   0.178134   0.161820   0.092975  -0.688097   0.048547
    30  S    0.001696   0.001200  -0.000473  -0.000909  -0.002096   0.000393
    31  H   -0.000001   0.000000   0.000000   0.000000   0.000001   0.000000
    32  H   -0.000003   0.000000   0.000000   0.000000   0.000001  -0.000004
    33  H    0.001430   0.000160   0.000035  -0.000028   0.000066  -0.001899
    34  C    0.193444   0.388884   1.238579   0.157137   0.043366   0.048319
    35  C   -0.018729  -0.058257   0.028977  -0.026487   0.001667  -0.008423
    36  C   -0.002266  -0.017205   0.003793  -0.004498  -0.000026  -0.001416
    37  C    0.000887   0.003091   0.016332   0.002999   0.000449   0.000407
    38  S    0.000586   0.001092  -0.024051  -0.001524  -0.001611   0.000075
    39  H    0.000110  -0.000175   0.003389   0.000371   0.000046  -0.000004
    40  H    0.000001   0.000015   0.000010   0.000000   0.000000   0.000000
    41  H    0.000000   0.000002  -0.000018   0.000000   0.000000   0.000000
               7          8          9         10         11         12
     1  C    0.253480  -0.164886  -1.733636  -0.767338   0.297422  -0.992921
     2  C   -0.170325   0.287167  -0.556223   0.541076  -0.055681  -0.058824
     3  C    0.021323   0.134509  -0.734239   0.742491  -0.190921   0.101828
     4  C   -0.003636   0.004534  -2.163190   1.297689   0.050339   0.185799
     5  C    0.019221  -0.003226   0.955708  -2.059009   0.583186  -0.047802
     6  C    0.172520   0.017503   1.089872  -2.611920   0.533401  -0.693505
     7  H    0.474549  -0.000406   0.028983  -0.031374   0.009254  -0.001155
     8  H   -0.000406   0.475193   0.003078  -0.001095   0.000082  -0.000148
     9  C    0.028983   0.003078  15.134083  -6.403918   3.822892  -0.770421
    10  C   -0.031374  -0.001095  -6.403918  17.471803  -7.462338   2.831406
    11  C    0.009254   0.000082   3.822892  -7.462338  13.224629  -2.007538
    12  C   -0.001155  -0.000148  -0.770421   2.831406  -2.007538  18.693609
    13  S    0.053530  -0.000501   0.862612  -0.980082   0.085681  -0.041980
    14  H    0.000000   0.000000   0.193452   0.141834   0.023900  -0.018810
    15  H    0.000000   0.000000   0.005655  -0.062789   0.272820   0.068536
    16  N   -0.000293   0.000059   0.038186  -0.049272   0.045672  -0.013216
    17  N    0.000113  -0.000075   0.007852   0.001901   0.005692  -0.004515
    18  S   -0.000049   0.000020  -0.073370   0.054711   0.010368   0.005029
    19  C    0.000194   0.013958  -0.046829  -0.000328   0.001152  -0.000825
    20  C   -0.000080   0.010178   0.033192   0.007203  -0.000825   0.001156
    21  C   -0.000877  -0.051402  -0.145815  -0.013895   0.000877  -0.001159
    22  C    0.000385  -0.001696   0.167778   0.164344  -0.001171   0.020408
    23  S   -0.001450   0.097752   0.027344   0.016118  -0.000397   0.001286
    24  H    0.000000   0.000000  -0.000007   0.000000   0.000000   0.000000
    25  H    0.000000   0.000001   0.000065  -0.000035  -0.000001   0.000000
    26  C   -0.000003   0.000000  -0.038892   0.023942  -0.132563  -0.599156
    27  C   -0.000010   0.000000  -0.043422   0.042544  -0.078019  -0.136484
    28  C    0.000369  -0.000007  -0.231829   0.189964  -0.216170  -0.717050
    29  C   -0.004906  -0.000020  -3.219018   2.795323  -2.702099 -10.179612
    30  S   -0.000004   0.000000   0.023713  -0.055911  -0.000028   0.225483
    31  H    0.000000   0.000000   0.000011  -0.000035   0.003171   0.002075
    32  H    0.000000   0.000000  -0.000048   0.000127   0.000145  -0.002212
    33  H    0.000000   0.000000   0.008712   0.000449  -0.005662   0.045662
    34  C    0.000049  -0.001669  -0.012317  -0.000078   0.000050  -0.000069
    35  C   -0.000010   0.002574  -0.000210  -0.000010   0.000005  -0.000002
    36  C    0.000000   0.000249  -0.000046   0.000001   0.000000   0.000000
    37  C    0.000000  -0.000040  -0.000040  -0.000001   0.000000   0.000000
    38  S    0.000000  -0.000071   0.000126   0.000005  -0.000001   0.000001
    39  H    0.000000   0.000000  -0.000001   0.000000   0.000000   0.000000
    40  H    0.000000   0.000000   0.000000   0.000000   0.000000   0.000000
    41  H    0.000000   0.000000   0.000000   0.000000   0.000000   0.000000
              13         14         15         16         17         18
     1  C   -0.239697  -0.027663   0.001265   0.058268  -0.019755   0.026032
     2  C   -0.276352  -0.004933   0.000073   0.032841  -0.004203   0.027590
     3  C   -0.142087  -0.000557  -0.000018   0.064374  -0.120439  -0.048427
     4  C   -0.096783   0.012832  -0.000038  -0.172136   0.441034  -0.160790
     5  C    0.222454   0.084117   0.000096   0.188049   0.003866  -0.224751
     6  C    0.594784  -0.028951  -0.000039  -0.002238  -0.038574  -0.106078
     7  H    0.053530   0.000000   0.000000  -0.000293   0.000113  -0.000049
     8  H   -0.000501   0.000000   0.000000   0.000059  -0.000075   0.000020
     9  C    0.862612   0.193452   0.005655   0.038186   0.007852  -0.073370
    10  C   -0.980082   0.141834  -0.062789  -0.049272   0.001901   0.054711
    11  C    0.085681   0.023900   0.272820   0.045672   0.005692   0.010368
    12  C   -0.041980  -0.018810   0.068536  -0.013216  -0.004515   0.005029
    13  S   16.595677   0.014508   0.006006  -0.003714  -0.001611  -0.001808
    14  H    0.014508   0.466424  -0.000165  -0.006406  -0.000031  -0.001373
    15  H    0.006006  -0.000165   0.467965  -0.000326  -0.000001  -0.000010
    16  N   -0.003714  -0.006406  -0.000326   7.076474  -0.096234   0.152604
    17  N   -0.001611  -0.000031  -0.000001  -0.096234   7.072337   0.094720
    18  S   -0.001808  -0.001373  -0.000010   0.152604   0.094720  15.272255
    19  C    0.001336   0.000003   0.000000   0.002793   0.001345   0.008671
    20  C   -0.001897  -0.000004   0.000000   0.005230  -0.011772   0.017650
    21  C    0.002496  -0.000057   0.000000   0.033805   0.033287   0.027522
    22  C   -0.063274  -0.000006   0.000000   0.056311  -0.011123  -0.003136
    23  S   -0.011199  -0.000003   0.000000  -0.000527  -0.001014   0.013561
    24  H    0.000000   0.000000   0.000000  -0.000001  -0.000042   0.000005
    25  H    0.000014   0.000000   0.000000  -0.000557  -0.010741   0.000039
    26  C    0.015986  -0.000142   0.003540  -0.000255  -0.000002  -0.000031
    27  C   -0.032369  -0.000002   0.001863   0.000265  -0.000003   0.000046
    28  C   -0.140124  -0.001327  -0.002135  -0.001243  -0.000050  -0.000187
    29  C   -0.094335  -0.033398   0.028012  -0.017446  -0.001381  -0.002101
    30  S    0.005653   0.000469   0.024541   0.000617   0.000009   0.000296
    31  H   -0.000516   0.000000  -0.000001   0.000000   0.000000   0.000000
    32  H    0.000805   0.000000   0.000000   0.000000   0.000000   0.000000
    33  H    0.041729   0.000000   0.000000   0.000002   0.000000   0.000001
    34  C    0.001289   0.000000   0.000000   0.000605  -0.004384   0.001887
    35  C   -0.000093   0.000000   0.000000  -0.000018   0.001336   0.000336
    36  C   -0.000001   0.000000   0.000000   0.000001   0.000062   0.000018
    37  C    0.000004   0.000000   0.000000   0.000000  -0.000025   0.000001
    38  S   -0.000001   0.000000   0.000000   0.000005  -0.000021  -0.000073
    39  H    0.000000   0.000000   0.000000   0.000000  -0.000001   0.000000
    40  H    0.000000   0.000000   0.000000   0.000000   0.000000   0.000000
    41  H    0.000000   0.000000   0.000000   0.000000   0.000000   0.000000
              19         20         21         22         23         24
     1  C   -0.002604  -0.136947   0.045957  -0.411615  -0.224449   0.000055
     2  C   -0.248917  -0.124772  -1.151913   3.023272   0.071479  -0.000209
     3  C   -0.425891  -0.441406  -0.415694   1.951348   0.290007   0.002355
     4  C   -0.823455   0.141016   0.589718  -6.201267  -0.634986   0.002396
     5  C   -0.087506   0.209755   0.670685  -6.718495  -0.244941   0.000027
     6  C   -0.120949  -0.015283  -0.386580  -2.466610  -0.334111  -0.000050
     7  H    0.000194  -0.000080  -0.000877   0.000385  -0.001450   0.000000
     8  H    0.013958   0.010178  -0.051402  -0.001696   0.097752   0.000000
     9  C   -0.046829   0.033192  -0.145815   0.167778   0.027344  -0.000007
    10  C   -0.000328   0.007203  -0.013895   0.164344   0.016118   0.000000
    11  C    0.001152  -0.000825   0.000877  -0.001171  -0.000397   0.000000
    12  C   -0.000825   0.001156  -0.001159   0.020408   0.001286   0.000000
    13  S    0.001336  -0.001897   0.002496  -0.063274  -0.011199   0.000000
    14  H    0.000003  -0.000004  -0.000057  -0.000006  -0.000003   0.000000
    15  H    0.000000   0.000000   0.000000   0.000000   0.000000   0.000000
    16  N    0.002793   0.005230   0.033805   0.056311  -0.000527  -0.000001
    17  N    0.001345  -0.011772   0.033287  -0.011123  -0.001014  -0.000042
    18  S    0.008671   0.017650   0.027522  -0.003136   0.013561   0.000005
    19  C   21.808007  -4.240988   3.316669  -1.552475   0.908775   0.128379
    20  C   -4.240988  12.527706  -5.133708   2.719692  -0.503390   0.138852
    21  C    3.316669  -5.133708  12.806606  -3.738856  -0.492256   0.067116
    22  C   -1.552475   2.719692  -3.738856  20.832834   0.898395  -0.014190
    23  S    0.908775  -0.503390  -0.492256   0.898395  16.955686   0.011347
    24  H    0.128379   0.138852   0.067116  -0.014190   0.011347   0.474112
    25  H   -0.018524   0.030378   0.189107   0.040476   0.007003   0.000068
    26  C    0.000000   0.000000   0.000000   0.000048   0.000002   0.000000
    27  C   -0.000001   0.000001  -0.000010  -0.000057   0.000002   0.000000
    28  C    0.000016   0.000019  -0.000152   0.000888  -0.000015   0.000000
    29  C   -0.000366   0.000408   0.000331   0.013878   0.001522   0.000000
    30  S    0.000001   0.000000   0.000021  -0.000014   0.000007   0.000000
    31  H    0.000000   0.000000   0.000000   0.000000   0.000000   0.000000
    32  H    0.000000   0.000000   0.000000   0.000000   0.000000   0.000000
    33  H    0.000000   0.000000   0.000000   0.000000   0.000000   0.000000
    34  C  -12.098518   0.515447  -0.482839  -2.344364  -0.149182   0.010044
    35  C   -0.728829   0.459080  -0.106202  -0.193991  -0.032701  -0.009958
    36  C    0.064811   0.014649   0.019123  -0.078956  -0.161219  -0.000499
    37  C   -0.728978   0.075197  -0.039735  -0.017557   0.030729   0.000529
    38  S    0.424491  -0.211316   0.053096   0.057799   0.011054   0.015621
    39  H   -0.017961  -0.034250   0.007297   0.000844   0.060885   0.000002
    40  H   -0.002928   0.000066   0.000243   0.000042   0.001652   0.000000
    41  H    0.012765  -0.000272   0.000376   0.000104  -0.000503   0.000000
              25         26         27         28         29         30
     1  C   -0.002569   0.003586  -0.004421  -0.065408   0.785273   0.001696
     2  C   -0.025425   0.000511  -0.000314  -0.013383   0.178134   0.001200
     3  C   -0.027410   0.000546  -0.000450  -0.003880   0.161820  -0.000473
     4  C    0.091052   0.001158  -0.000259   0.024034   0.092975  -0.000909
     5  C    0.057835   0.000489  -0.006236   0.043789  -0.688097  -0.002096
     6  C    0.003756  -0.001625   0.000584  -0.042888   0.048547   0.000393
     7  H    0.000000  -0.000003  -0.000010   0.000369  -0.004906  -0.000004
     8  H    0.000001   0.000000   0.000000  -0.000007  -0.000020   0.000000
     9  C    0.000065  -0.038892  -0.043422  -0.231829  -3.219018   0.023713
    10  C   -0.000035   0.023942   0.042544   0.189964   2.795323  -0.055911
    11  C   -0.000001  -0.132563  -0.078019  -0.216170  -2.702099  -0.000028
    12  C    0.000000  -0.599156  -0.136484  -0.717050 -10.179612   0.225483
    13  S    0.000014   0.015986  -0.032369  -0.140124  -0.094335   0.005653
    14  H    0.000000  -0.000142  -0.000002  -0.001327  -0.033398   0.000469
    15  H    0.000000   0.003540   0.001863  -0.002135   0.028012   0.024541
    16  N   -0.000557  -0.000255   0.000265  -0.001243  -0.017446   0.000617
    17  N   -0.010741  -0.000002  -0.000003  -0.000050  -0.001381   0.000009
    18  S    0.000039  -0.000031   0.000046  -0.000187  -0.002101   0.000296
[...]
     15          1           0       -6.148422   -0.444879    0.549600
     16          7           0       -2.114779    2.276239   -0.440080
     17          7           0        0.275986    3.114700   -0.437287
     18         16           0       -1.259010    3.664440   -0.553359
     19          6           0        5.121793    1.560890    0.126803
     20          6           0        4.574052    2.578647   -0.648030
     21          6           0        3.183683    2.450623   -0.833621
     22          6           0        2.648109    1.331596   -0.197705
     23         16           0        3.896169    0.441055    0.619370
     24          1           0        5.169791    3.394265   -1.037202
     25          1           0        2.572006    3.141489   -1.394434
     26          6           0       -7.831950   -4.479695   -1.057473
     27          6           0       -6.779508   -5.249965   -0.601017
     28          6           0       -5.642426   -4.473472   -0.272314
     29          6           0       -5.834887   -3.114040   -0.488738
     30         16           0       -7.422616   -2.812493   -1.113851
     31          1           0       -8.812771   -4.808199   -1.364833
     32          1           0       -6.837733   -6.324018   -0.492629
     33          1           0       -4.722960   -4.871780    0.135890
     34          6           0        6.500019    1.384014    0.538467
     35          6           0        6.986744    0.946839    1.764477
     36          6           0        8.401012    0.899589    1.810462
     37          6           0        8.982847    1.305407    0.624867
     38         16           0        7.803301    1.718001   -0.553800
     39          1           0        6.336398    0.703430    2.594253
     40          1           0        8.973971    0.599219    2.676618
     41          1           0       10.033427    1.377530    0.389386
 ---------------------------------------------------------------------
                    Distance matrix (angstroms):
                    1          2          3          4          5
     1  C    0.000000
     2  C    1.404648   0.000000
     3  C    2.464712   1.400334   0.000000
     4  C    2.778876   2.387636   1.423706   0.000000
     5  C    2.387617   2.778606   2.497594   1.439223   0.000000
     6  C    1.400207   2.464354   2.928419   2.497523   1.423593
     7  H    1.084611   2.143421   3.423844   3.862017   3.378978
     8  H    2.142895   1.084662   2.143965   3.379309   3.861783
     9  C    2.501376   3.800680   4.379094   3.833858   2.512073
    10  C    3.781647   4.997704   5.372324   4.554373   3.138935
    11  C    4.787888   6.114985   6.649445   5.916640   4.496719
    12  C    4.650891   6.047413   6.820134   6.330915   4.975478
    13  S    3.169378   4.547435   5.462637   5.229005   4.048117
    14  H    4.202917   5.233038   5.351377   4.334996   2.987389
    15  H    5.814187   7.114962   7.574885   6.745505   5.323886
    16  N    3.687553   4.142043   3.681879   2.350733   1.370746
    17  N    4.142355   3.687986   2.477984   1.370878   2.350384
    18  S    4.729826   4.729892   3.796599   2.400506   2.400231
    19  C    6.055446   4.660265   3.923951   4.970417   6.327940
    20  C    6.120320   4.794254   3.746476   4.492053   5.913587
    21  C    4.998035   3.782163   2.563523   3.137816   4.553390
    22  C    3.801519   2.501965   1.451869   2.513218   3.834854
    23  S    4.548073   3.169081   2.778727   4.051953   5.232447
    24  H    7.126484   5.827654   4.721108   5.311882   6.737143
    25  H    5.233893   4.204334   2.882445   2.983162   4.331701
    26  C    8.304375   9.690205  10.591228  10.175721   8.825730
    27  C    7.725573   9.086413  10.117267   9.874732   8.602208
    28  C    6.331959   7.697636   8.734784   8.521675   7.276629
    29  C    5.881083   7.279531   8.149974   7.735987   6.398762
    30  S    7.360390   8.745513   9.484876   8.901546   7.502568
    31  H    9.364196  10.747869  11.629109  11.179491   9.815287
    32  H    8.408430   9.733031  10.839870  10.699069   9.475089
    33  H    5.847784   7.162703   8.302891   8.250580   7.108765
    34  C    7.292557   5.895551   5.303231   6.392079   7.732127
    35  C    7.819675   6.472464   6.041698   7.162618   8.437058
    36  C    9.164473   7.811997   7.405031   8.535037   9.824652
    37  C    9.658007   8.267033   7.764822   8.868925  10.210463
    38  S    8.629342   7.226731   6.593602   7.635359   9.002128
    39  H    7.400739   6.124107   5.785101   6.885661   8.082638
    40  H    9.863416   8.551275   8.223957   9.359265  10.610213
    41  H   10.683883   9.292353   8.793515   9.891336  11.240356
                    6          7          8          9         10
     6  C    0.000000
     7  H    2.143434   0.000000
     8  H    3.423230   2.433664   0.000000
     9  C    1.451197   2.717679   4.643611   0.000000
    10  C    2.563595   4.034148   5.902750   1.394290   0.000000
    11  C    3.745234   4.775115   6.922155   2.338061   1.408312
    12  C    3.922156   4.363842   6.698780   2.505423   2.339010
    13  S    2.777586   2.792118   5.108639   1.737136   2.580014
    14  H    2.882747   4.656054   6.218287   2.171200   1.079819
    15  H    4.719167   5.821576   7.945554   3.364085   2.208209
    16  N    2.477322   4.598846   5.225975   2.975160   3.009691
    17  N    3.681556   5.226227   4.599843   4.860191   5.316687
    18  S    3.796095   5.761551   5.761976   4.562588   4.614980
    19  C    6.822296   6.710630   4.380741   8.267267   9.259356
    20  C    6.650418   6.930183   4.786668   8.094311   8.999063
    21  C    5.371845   5.903741   4.036040   6.798437   7.667698
    22  C    4.379818   4.644742   2.718535   5.830715   6.799986
    23  S    5.464583   5.108907   2.789360   6.872353   7.925462
    24  H    7.576453   7.963026   5.845888   9.006200   9.860542
    25  H    5.350186   6.220284   4.659937   6.706816   7.464997
    26  C    7.763047   7.772193  10.168226   6.383628   6.085774
    27  C    7.397369   7.051270   9.444231   6.110473   6.055268
    28  C    6.032090   5.662856   8.072331   4.782588   4.851897
    29  C    5.300001   5.426082   7.824360   3.921077   3.744065
    30  S    6.597421   7.022255   9.368337   5.172713   4.676873
    31  H    8.793174   8.842578  11.230919   7.402709   7.036193
    32  H    8.213680   7.642505   9.993647   6.991097   7.026434
    33  H    5.769290   5.051689   7.423814   4.679922   4.986252
    34  C    8.154112   7.843543   5.451600   9.586113  10.599314
    35  C    8.747976   8.267609   5.940847  10.141553  11.132960
    36  C   10.128390   9.569141   7.217526  11.520785  12.534492
    37  C   10.593702  10.113478   7.694925  12.014218  13.060031
    38  S    9.479615   9.181419   6.761756  10.915170  11.962973
    39  H    8.324481   7.809099   5.611749   9.675578  10.621063
    40  H   10.855381  10.206081   7.920393  12.217527  13.214533
    41  H   11.629559  11.123803   8.698819  13.049921  14.108946
                   11         12         13         14         15
    11  C    0.000000
    12  C    1.391637   0.000000
    13  S    2.575764   1.732032   0.000000
    14  H    2.209449   3.363747   3.619398   0.000000
    15  H    1.082431   2.171927   3.617591   2.634484   0.000000
    16  N    4.346499   5.131093   4.616920   2.495306   4.965302
    17  N    6.704767   7.300522   6.368731   4.864946   7.410639
    18  S    5.944330   6.764716   6.185960   3.963731   6.481464
    19  C   10.540927  10.655422   9.191022   9.150872  11.455113
    20  C   10.326667  10.544550   9.148152   8.803996  11.204797
    21  C    9.001233   9.261705   7.921403   7.466978   9.868405
    22  C    8.094078   8.265316   6.870673   6.709344   9.005181
    23  S    9.144779   9.182160   7.705081   7.921846  10.083827
    24  H   11.203708  11.465721  10.096270   9.611202  12.056489
    25  H    8.808510   9.158387   7.917294   7.191596   9.627418
    26  C    4.762193   3.900906   5.153297   6.965741   4.657971
    27  C    4.851924   3.744013   4.682993   7.024733   4.981068
    28  C    3.786337   2.555388   3.340815   5.862768   4.142600
    29  C    2.558786   1.448549   2.769066   4.717756   2.881123
    30  S    3.339795   2.771609   4.263353   5.477855   3.161683
    31  H    5.684962   4.921785   6.204208   7.868520   5.459155
    32  H    5.863756   4.717504   5.484613   8.009450   6.010463
    33  H    4.145211   2.878399   3.166134   6.014516   4.669106
    34  C   11.859986  11.930067  10.436111  10.505457  12.779986
    35  C   12.363000  12.423639  10.960573  11.042068  13.264441
    36  C   13.754731  13.780036  12.286422  12.454771  14.665722
    37  C   14.299147  14.308528  12.768661  12.985051  15.232350
    38  S   13.221291  13.250540  11.706079  11.883946  14.161430
    39  H   11.829636  11.915220  10.512941  10.520844  12.703147
    40  H   14.410336  14.427121  12.956826  13.137114  15.306898
    41  H   15.344678  15.334197  13.775205  14.039555  16.284935
                   16         17         18         19         20
    16  N    0.000000
    17  N    2.533532   0.000000
    18  S    1.634709   1.634594   0.000000
    19  C    7.293906   5.119997   6.752939   0.000000
    20  C    6.698892   4.336489   5.934014   1.391480   0.000000
    21  C    5.315918   3.008784   4.614045   2.338869   1.408532
    22  C    4.861708   2.977218   4.564453   2.505393   2.338201
    23  S    6.373527   4.622838   6.192041   1.731706   2.575874
    24  H    7.394018   4.938358   6.452641   2.172205   1.082401
    25  H    4.860598   2.487681   3.956964   3.363609   2.209547
    26  C    8.871858  11.126460  10.477816  14.341919  14.279241
    27  C    8.856035  10.944151  10.485457  13.731659  13.791038
    28  C    7.617811   9.624717   9.247645  12.346710  12.419742
    29  C    6.549556   8.725974   8.178669  11.928232  11.864994
    30  S    7.383922   9.739499   8.958508  13.342710  13.160602
    31  H    9.793239  12.092898  11.379957  15.393581  15.306415
    32  H    9.811905  11.819368  11.440941  14.338261  14.474475
    33  H    7.630762   9.439378   9.238023  11.760038  11.939759
    34  C    8.715984   6.533449   8.160573   1.449227   2.558178
    35  C    9.458600   7.387940   8.986110   2.556771   3.782072
    36  C   10.841677   8.716371  10.322212   3.745037   4.848612
    37  C   11.190797   8.956067  10.575863   3.901420   4.762235
    38  S    9.934429   7.656684   9.268986   2.770990   3.343298
    39  H    9.116101   7.192569   8.738722   2.880766   4.139408
    40  H   11.639871   9.574915  11.159849   4.718649   5.859241
    41  H   12.209612   9.945291  11.560184   4.922065   5.685393
                   21         22         23         24         25
    21  C    0.000000
    22  C    1.394076   0.000000
    23  S    2.580152   1.737334   0.000000
    24  H    2.208287   3.364259   3.617705   0.000000
    25  H    1.079794   2.171097   3.619552   2.634388   0.000000
    26  C   13.016282  12.014240  12.828655  15.200163  12.901097
    27  C   12.594377  11.504764  12.159241  14.754618  12.589553
    28  C   11.232024  10.121134  10.767195  13.393670  11.257162
    29  C   10.602784   9.581733  10.419216  12.796945  10.517975
    30  S   11.843669  10.928509  11.903972  14.039176  11.637058
    31  H   14.031664  13.054158  13.892764  16.214185  13.885661
    32  H   13.324390  12.193302  12.736539  15.457109  13.377304
    33  H   10.820007   9.639804  10.136536  12.944890  10.943990
    34  C    3.744111   3.921977   2.770514   2.879818   4.717426
    35  C    4.845075   4.777232   3.334477   4.140122   5.855349
    36  C    6.051231   6.108621   4.682153   4.977286   7.019599
    37  C    6.088433   6.387974   5.159596   4.654588   6.967615
    38  S    4.685713   5.181902   4.274645   3.158941   5.486294
    39  H    4.974195   4.668308   3.150193   4.667872   6.002033
    40  H    7.019752   6.986748   5.481000   6.006374   8.001360
    41  H    7.040332   7.408759   6.212553   5.455028   7.871872
                   26         27         28         29         30
    26  C    0.000000
    27  C    1.381775   0.000000
    28  C    2.326054   1.415607   0.000000
    29  C    2.485303   2.338181   1.389941   0.000000
    30  S    1.717642   2.572519   2.576065   1.732796   0.000000
    31  H    1.079071   2.216468   3.369974   3.536313   2.445069
    32  H    2.170033   1.081077   2.214005   3.362985   3.613697
    33  H    3.353157   2.217080   1.081988   2.171679   3.618101
    34  C   15.567127  14.888047  13.505794  13.169569  14.634910
    35  C   16.031356  15.280892  13.893316  13.636787  15.167301
    36  C   17.339862  16.555375  15.179786  14.968512  16.514187
    37  C   17.861553  17.115127  15.751159  15.502803  17.003514
    38  S   16.826354  16.162089  14.805443  14.469037  15.895521
    39  H   15.522305  14.753971  13.360754  13.123189  14.677269
    40  H   17.949312  17.120980  15.750158  15.591987  17.171358
    41  H   18.856622  18.099155  16.745282  16.515106  18.014702
                   31         32         33         34         35
    31  H    0.000000
    32  H    2.638033   0.000000
    33  H    4.356921   2.641267   0.000000
    34  C   16.626713  15.439318  12.855049   0.000000
    35  C   17.103734  15.782144  13.176714   1.389648   0.000000
    36  C   18.411292  17.020695  14.434387   2.338036   1.415804
    37  C   18.921393  17.599650  15.041473   2.485574   2.326308
    38  S   17.870168  16.704421  14.170678   1.732956   2.576016
    39  H   16.599690  15.247019  12.626793   2.171686   1.082002
    40  H   19.024765  17.549511  14.966398   3.362741   2.214026
    41  H   19.912803  18.566848  16.027137   3.536558   3.370259
                   36         37         38         39         40
    36  C    0.000000
    37  C    1.381614   0.000000
    38  S    2.572312   1.717794   0.000000
    39  H    2.217079   3.353290   3.618203   0.000000
    40  H    1.081079   2.169899   3.613549   2.640916   0.000000
    41  H    2.216453   1.079061   2.445196   4.357049   2.638113
                   41
    41  H    0.000000
 Stoichiometry    C22H12N2S5
 Framework group  C1[X(C22H12N2S5)]
 Deg. of freedom   117
 Full point group                 C1      NOp   1
 Largest Abelian subgroup         C1      NOp   1
 Largest concise Abelian subgroup C1      NOp   1
                         Standard orientation:                         
 ---------------------------------------------------------------------
 Center     Atomic      Atomic             Coordinates (Angstroms)
 Number     Number       Type             X           Y           Z
 ---------------------------------------------------------------------
      1          6           0        0.689522   -0.811731   -0.094504
      2          6           0       -0.709669   -0.797854    0.028414
      3          6           0       -1.457379    0.384438    0.092052
      4          6           0       -0.708272    1.589100   -0.028637
      5          6           0        0.728571    1.575515   -0.110269
      6          6           0        1.456772    0.355217   -0.195196
      7          1           0        1.190217   -1.771348   -0.163933
      8          1           0       -1.225925   -1.746719    0.126534
      9          6           0        2.904663    0.333503   -0.290654
     10          6           0        3.749059    1.258481   -0.903398
     11          6           0        5.102820    0.871112   -0.878540
     12          6           0        5.314923   -0.348813   -0.243362
     13         16           0        3.821988   -0.994397    0.351869
     14          1           0        3.375825    2.160497   -1.364995
     15          1           0        5.907557    1.432504   -1.335590
     16          7           0        1.284898    2.826504   -0.177135
     17          7           0       -1.242311    2.851355    0.000008
     18         16           0        0.030278    3.871917   -0.104234
     19          6           0       -5.333706   -0.224577    0.116203
     20          6           0       -5.097492    1.003407    0.726510
     21          6           0       -3.732963    1.349839    0.771295
     22          6           0       -2.905904    0.389640    0.190399
     23         16           0       -3.846400   -0.947481   -0.397738
     24          1           0       -5.899005    1.628438    1.098673
     25          1           0       -3.344280    2.264278    1.194003
     26          6           0        8.936170   -1.619531    0.455855
     27          6           0        8.166116   -2.736053    0.191853
     28          6           0        6.816323   -2.410449   -0.083795
     29          6           0        6.565511   -1.044816   -0.019970
     30         16           0        8.005955   -0.176764    0.397391
     31          1           0        9.989827   -1.576786    0.684710
     32          1           0        8.566753   -3.740089    0.180528
     33          1           0        6.052476   -3.129072   -0.349908
     34          6           0       -6.602635   -0.881923   -0.124576
     35          6           0       -7.004882   -1.601598   -1.243230
     36          6           0       -8.324201   -2.102806   -1.130591
     37          6           0       -8.920612   -1.758453    0.067145
     38         16           0       -7.861354   -0.846845    1.066026
     39          1           0       -6.371921   -1.726908   -2.111784
     40          1           0       -8.826878   -2.676338   -1.896820
     41          1           0       -9.916627   -1.996229    0.407424
 ---------------------------------------------------------------------
 Rotational constants (GHZ):      0.3436864      0.0379269      0.0348127
 Standard basis: 6-31+G(d,p) (6D, 7F)
 There are   631 symmetry adapted cartesian basis functions of A   symmetry.
 There are   631 symmetry adapted basis functions of A   symmetry.
   631 basis functions,  1132 primitive gaussians,   631 cartesian basis functions
   119 alpha electrons      119 beta electrons
       nuclear repulsion energy      3070.3412526870 Hartrees.
 NAtoms=   41 NActive=   41 NUniq=   41 SFac= 1.00D+00 NAtFMM=   60 NAOKFM=F Big=F
 Integral buffers will be    131072 words long.
 Raffenetti 1 integral format.
 Two-electron integral symmetry is turned on.
 One-electron integrals computed using PRISM.
 NBasis=   631 RedAO= T EigKep=  1.10D-06  NBF=   631
 NBsUse=   625 1.00D-06 EigRej=  4.46D-07 NBFU=   625
 Initial guess from the checkpoint file:  "bt1-opt.chk"
 B after Tr=     0.000000    0.000000    0.000000
         Rot=    1.000000   -0.000084   -0.000002   -0.000028 Ang=  -0.01 deg.
 Requested convergence on RMS density matrix=1.00D-08 within 128 cycles.
 Requested convergence on MAX density matrix=1.00D-06.
 Requested convergence on             energy=1.00D-06.
 No special actions if energy rises.
 SCF Done:  E(RHF) =  -2936.49206174     A.U. after   13 cycles
            NFock= 13  Conv=0.78D-08     -V/T= 2.0011
 ExpMin= 4.05D-02 ExpMax= 2.19D+04 ExpMxC= 3.30D+03 IAcc=3 IRadAn=         5 AccDes= 0.00D+00
 HarFok:  IExCor=  205 AccDes= 0.00D+00 IRadAn=         5 IDoV=-2 UseB2=F ITyADJ=14
 ICtDFT= 12500011 ScaDFX=  1.000000  1.000000  1.000000  1.000000
 Range of M.O.s used for correlation:    50   625
 NBasis=   631 NAE=   119 NBE=   119 NFC=    49 NFV=     0
 NROrb=    576 NOA=    70 NOB=    70 NVA=   506 NVB=   506

 **** Warning!!: The largest alpha MO coefficient is  0.15853123D+03

 Fully direct method using O(ONN) memory.
 JobTyp=1 Pass  1:  I=  50 to  52 NPSUse= 24 ParTrn=T ParDer=T DoDerP=T.
 JobTyp=1 Pass  2:  I=  53 to  55 NPSUse= 24 ParTrn=T ParDer=T DoDerP=T.
 JobTyp=1 Pass  3:  I=  56 to  58 NPSUse= 24 ParTrn=T ParDer=T DoDerP=T.
 JobTyp=1 Pass  4:  I=  59 to  61 NPSUse= 24 ParTrn=T ParDer=T DoDerP=T.
 JobTyp=1 Pass  5:  I=  62 to  64 NPSUse= 24 ParTrn=T ParDer=T DoDerP=T.
