 Entering Gaussian System, Link 0=g09
 Initial command:
 /cluster/software/gaussian/gaussian-09-D.01/g09/l1.exe "/local/scratch/epluhar/Gau-6156.inp" -scrdir="/local/scratch/epluhar/"
 Entering Link 1 = /cluster/software/gaussian/gaussian-09-D.01/g09/l1.exe PID=      6157.
  
 Copyright (c) 1988,1990,1992,1993,1995,1998,2003,2009,2013,
            Gaussian, Inc.  All Rights Reserved.
  
 This is part of the Gaussian(R) 09 program.  It is based on
 the Gaussian(R) 03 system (copyright 2003, Gaussian, Inc.),
 the Gaussian(R) 98 system (copyright 1998, Gaussian, Inc.),
 the Gaussian(R) 94 system (copyright 1995, Gaussian, Inc.),
 the Gaussian 92(TM) system (copyright 1992, Gaussian, Inc.),
 the Gaussian 90(TM) system (copyright 1990, Gaussian, Inc.),
 the Gaussian 88(TM) system (copyright 1988, Gaussian, Inc.),
 the Gaussian 86(TM) system (copyright 1986, Carnegie Mellon
 University), and the Gaussian 82(TM) system (copyright 1983,
 Carnegie Mellon University). Gaussian is a federally registered
 trademark of Gaussian, Inc.
  
 This software contains proprietary and confidential information,
 including trade secrets, belonging to Gaussian, Inc.
  
 This software is provided under written license and may be
 used, copied, transmitted, or stored only in accord with that
 written license.
  
 The following legend is applicable only to US Government
 contracts under FAR:
  
                    RESTRICTED RIGHTS LEGEND
  
 Use, reproduction and disclosure by the US Government is
 subject to restrictions as set forth in subparagraphs (a)
 and (c) of the Commercial Computer Software - Restricted
 Rights clause in FAR 52.227-19.
  
 Gaussian, Inc.
 340 Quinnipiac St., Bldg. 40, Wallingford CT 06492
  
  
 ---------------------------------------------------------------
 Warning -- This program may not be used in any manner that
 competes with the business of Gaussian, Inc. or will provide
 assistance to any competitor of Gaussian, Inc.  The licensee
 of this program is prohibited from giving any competitor of
 Gaussian, Inc. access to this program.  By using this program,
 the user acknowledges that Gaussian, Inc. is engaged in the
 business of creating and licensing software in the field of
 computational chemistry and represents and warrants to the
 licensee that it is not a competitor of Gaussian, Inc. and that
 it will not use this program in any manner prohibited above.
 ---------------------------------------------------------------
  

 Cite this work as:
 Gaussian 09, Revision D.01,
 M. J. Frisch, G. W. Trucks, H. B. Schlegel, G. E. Scuseria, 
 M. A. Robb, J. R. Cheeseman, G. Scalmani, V. Barone, B. Mennucci, 
 G. A. Petersson, H. Nakatsuji, M. Caricato, X. Li, H. P. Hratchian, 
 A. F. Izmaylov, J. Bloino, G. Zheng, J. L. Sonnenberg, M. Hada, 
 M. Ehara, K. Toyota, R. Fukuda, J. Hasegawa, M. Ishida, T. Nakajima, 
 Y. Honda, O. Kitao, H. Nakai, T. Vreven, J. A. Montgomery, Jr., 
 J. E. Peralta, F. Ogliaro, M. Bearpark, J. J. Heyd, E. Brothers, 
 K. N. Kudin, V. N. Staroverov, T. Keith, R. Kobayashi, J. Normand, 
 K. Raghavachari, A. Rendell, J. C. Burant, S. S. Iyengar, J. Tomasi, 
 M. Cossi, N. Rega, J. M. Millam, M. Klene, J. E. Knox, J. B. Cross, 
 V. Bakken, C. Adamo, J. Jaramillo, R. Gomperts, R. E. Stratmann, 
 O. Yazyev, A. J. Austin, R. Cammi, C. Pomelli, J. W. Ochterski, 
 R. L. Martin, K. Morokuma, V. G. Zakrzewski, G. A. Voth, 
 P. Salvador, J. J. Dannenberg, S. Dapprich, A. D. Daniels, 
 O. Farkas, J. B. Foresman, J. V. Ortiz, J. Cioslowski, 
 and D. J. Fox, Gaussian, Inc., Wallingford CT, 2013.
 
 ******************************************
 Gaussian 09:  ES64L-G09RevD.01 24-Apr-2013
                10-Nov-2016 
 ******************************************
 %nprocshared=24
 Will use up to   24 processors via shared memory.
 %mem=80GB
 %oldchk=BT1
 %chk=bt1-td-svwn
 Copying data from "BT1.chk" to current chk file "bt1-td-svwn.chk".
 ------------------------------------------------------------
 # td=(nstates=100) density=scf svwn/6-311++G** geom=allcheck
 ------------------------------------------------------------
 1/29=7,38=1/1;
 2/12=2,40=1/2;
 3/5=4,6=6,7=1111,11=9,14=-4,16=1,25=1,30=1,74=205/1,2,8,3;
 4//1;
 5/5=2,38=5/2;
 8/6=1,10=2,108=100/1;
 9/41=100,42=1,70=2/14;
 6/7=2,8=2,9=2,10=2/1;
 99/5=1,9=1/99;
 Structure from the checkpoint file:  "bt1-td-svwn.chk"
 ---
 BT1
 ---
 Charge =  0 Multiplicity = 1
 No Z-Matrix found in file; cartesian coordinates used.
  C                                                 0.692510693658     -0.696174968455     -0.367588081414
  C                                                -0.723080734996     -0.684522693419     -0.317988141383
  C                                                -1.481529337957      0.466799820406     -0.171431524476
  C                                                -0.724672969878      1.703310907056     -0.112288588672
  C                                                 0.746607519097      1.693163141872     -0.180160235835
  C                                                 1.478594946920      0.442544776190     -0.281417295001
  H                                                 1.175556120891     -1.658914349492     -0.462151819773
  H                                                -1.228111285113     -1.639220440626     -0.369506285540
  C                                                 2.925020760764      0.397493280355     -0.258216698358
  C                                                 3.853723232046      1.411396096517     -0.327221231751
  C                                                 5.208183012311      0.998406151590     -0.226729823627
  C                                                 5.398608069570     -0.354340282854     -0.065678192203
  S                                                 3.788457827857     -1.210889055717     -0.053070773252
  H                                                 3.552296897723      2.439452322097     -0.436166627060
  H                                                 6.032708925267      1.695515691893     -0.260517638931
  N                                                 1.324803396810      2.891502407987     -0.133367074298
  N                                                -1.281847592199      2.908939525000     -0.007569821737
  S                                                 0.031030434980      4.108113220318      0.004369397428
  C                                                -5.419983275287     -0.250783628484      0.010103073115
  C                                                -5.160491753886      1.021552826125      0.455129756949
  C                                                -3.793242318533      1.408464521029      0.413988258832
  C                                                -2.926418822811      0.445958952872     -0.054022752492
  S                                                -3.866960278378     -1.063732240391     -0.497156210627
  H                                                -5.947568272603      1.681502129057      0.792165153688
  H                                                -3.442678371528      2.382177994100      0.711969129640
  C                                                 9.051771380872     -1.813780456570      0.422565268251
  C                                                 8.161562946275     -2.841541958516      0.493725894132
  C                                                 6.796113079606     -2.445457440826      0.323399138328
  C                                                 6.610250001519     -1.100155410332      0.114770569471
  S                                                 8.229528849336     -0.238560262558      0.123827646985
  H                                                10.122440716807     -1.828986751410      0.517744627831
  H                                                 8.461321061339     -3.864083636866      0.669136659381
  H                                                 5.971758060021     -3.143598677041      0.358985963713
  C                                                -6.666138775039     -0.963186158226     -0.081375393048
  C                                                -7.085563281325     -1.900079934215     -0.992748341399
  C                                                -8.408839098013     -2.398805242488     -0.771182896338
  C                                                -9.026441782338     -1.866904129866      0.317881732619
  S                                                -7.974307481665     -0.677671583968      1.168760742246
  H                                                -6.469215069284     -2.205012556307     -1.827919849677
  H                                                -8.880331820540     -3.126948692632     -1.414941641290
  H                                               -10.012118184779     -2.051286825211      0.698980781581
 Recover connectivity data from disk.
                          Input orientation:                          
 ---------------------------------------------------------------------
 Center     Atomic      Atomic             Coordinates (Angstroms)
 Number     Number       Type             X           Y           Z
 ---------------------------------------------------------------------
      1          6           0        0.692511   -0.696175   -0.367588
      2          6           0       -0.723081   -0.684523   -0.317988
      3          6           0       -1.481529    0.466800   -0.171432
      4          6           0       -0.724673    1.703311   -0.112289
      5          6           0        0.746608    1.693163   -0.180160
      6          6           0        1.478595    0.442545   -0.281417
      7          1           0        1.175556   -1.658914   -0.462152
      8          1           0       -1.228111   -1.639220   -0.369506
      9          6           0        2.925021    0.397493   -0.258217
     10          6           0        3.853723    1.411396   -0.327221
     11          6           0        5.208183    0.998406   -0.226730
     12          6           0        5.398608   -0.354340   -0.065678
     13         16           0        3.788458   -1.210889   -0.053071
     14          1           0        3.552297    2.439452   -0.436167
     15          1           0        6.032709    1.695516   -0.260518
     16          7           0        1.324803    2.891502   -0.133367
     17          7           0       -1.281848    2.908940   -0.007570
     18         16           0        0.031030    4.108113    0.004369
     19          6           0       -5.419983   -0.250784    0.010103
     20          6           0       -5.160492    1.021553    0.455130
     21          6           0       -3.793242    1.408465    0.413988
     22          6           0       -2.926419    0.445959   -0.054023
     23         16           0       -3.866960   -1.063732   -0.497156
     24          1           0       -5.947568    1.681502    0.792165
     25          1           0       -3.442678    2.382178    0.711969
     26          6           0        9.051771   -1.813780    0.422565
     27          6           0        8.161563   -2.841542    0.493726
     28          6           0        6.796113   -2.445457    0.323399
     29          6           0        6.610250   -1.100155    0.114771
     30         16           0        8.229529   -0.238560    0.123828
     31          1           0       10.122441   -1.828987    0.517745
     32          1           0        8.461321   -3.864084    0.669137
     33          1           0        5.971758   -3.143599    0.358986
     34          6           0       -6.666139   -0.963186   -0.081375
     35          6           0       -7.085563   -1.900080   -0.992748
     36          6           0       -8.408839   -2.398805   -0.771183
     37          6           0       -9.026442   -1.866904    0.317882
     38         16           0       -7.974307   -0.677672    1.168761
     39          1           0       -6.469215   -2.205013   -1.827920
     40          1           0       -8.880332   -3.126949   -1.414942
     41          1           0      -10.012118   -2.051287    0.698981
 ---------------------------------------------------------------------
                    Distance matrix (angstroms):
                    1          2          3          4          5
     1  C    0.000000
     2  C    1.416508   0.000000
     3  C    2.473345   1.386458   0.000000
     4  C    2.798414   2.396678   1.450961   0.000000
     5  C    2.397289   2.798637   2.543352   1.472880   0.000000
     6  C    1.386375   2.473660   2.962266   2.544116   1.452620
     7  H    1.081269   2.138935   3.415155   3.877865   3.391156
     8  H    2.139656   1.081276   2.130440   3.390004   3.878163
     9  C    2.488408   3.805650   4.407950   3.879010   2.535811
    10  C    3.799572   5.033895   5.420466   4.592725   3.123330
    11  C    4.825219   6.166074   6.711029   5.975681   4.515585
    12  C    4.728145   6.135777   6.929772   6.459928   5.083944
    13  S    3.154162   4.549860   5.531854   5.372562   4.207437
    14  H    4.244436   5.296418   5.413026   4.351927   2.914512
    15  H    5.852296   7.163001   7.614556   6.759012   5.286713
    16  N    3.650491   4.125030   3.708926   2.369092   1.331359
    17  N    4.126082   3.649870   2.455763   1.332272   2.371187
    18  S    4.863856   4.862300   3.946886   2.523444   2.525487
    19  C    6.140326   4.728284   4.007406   5.087180   6.468537
    20  C    6.155087   4.816536   3.772942   4.523632   5.979003
    21  C    5.016209   3.787120   2.563877   3.127302   4.587407
    22  C    3.807814   2.490455   1.449802   2.536141   3.881050
    23  S    4.576097   3.171731   2.852877   4.204595   5.383862
    24  H    7.147659   5.841728   4.727528   5.300674   6.764432
    25  H    5.267019   4.226308   2.880135   2.920242   4.338289
    26  C    8.470574   9.867694  10.793716  10.403599   9.035357
    27  C    7.818645   9.178698  10.216496   9.999406   8.717754
    28  C    6.386816   7.749229   8.788940   8.600251   7.346991
    29  C    5.951093   7.357837   8.247069   7.855703   6.501686
    30  S    7.566871   8.974592   9.741117   9.165388   7.734215
    31  H    9.538902  10.937714  11.848954  11.425145  10.039864
    32  H    8.453689   9.769200  10.877655  10.769819   9.545737
    33  H    5.864149   7.164232   8.298663   8.279905   7.140528
    34  C    7.369052   5.954291   5.378954   6.512463   7.874945
    35  C    7.895483   6.512608   6.138557   7.363461   8.655322
    36  C    9.268031   7.887651   7.520573   8.735440  10.045681
    37  C    9.813181   8.411193   7.912731   9.047146  10.413194
    38  S    8.801957   7.402078   6.727711   7.737400   9.137549
    39  H    7.463208   6.132686   5.895723   7.156685   8.365344
    40  H    9.932015   8.585424   8.318872   9.567815  10.836795
    41  H   10.842646   9.443966   8.936964  10.050463  11.425584
                    6          7          8          9         10
     6  C    0.000000
     7  H    2.130875   0.000000
     8  H    3.415811   2.405533   0.000000
     9  C    1.447313   2.707587   4.626996   0.000000
    10  C    2.565542   4.076468   5.927317   1.376680   0.000000
    11  C    3.771180   4.835169   6.957251   2.361126   1.419585
    12  C    4.006004   4.437710   6.756970   2.592481   2.360699
    13  S    2.849816   2.682411   5.044756   1.836982   2.637385
    14  H    2.883024   4.737740   6.284291   2.143534   1.076860
    15  H    4.723381   5.906335   7.990735   3.367877   2.198443
    16  N    2.458244   4.564720   5.205822   2.965867   2.936619
    17  N    3.711891   5.206800   4.562855   4.905907   5.359002
    18  S    3.951393   5.897982   5.895512   4.713049   4.689906
    19  C    6.939457   6.760695   4.432116   8.374446   9.427527
    20  C    6.704866   6.940592   4.819062   8.140874   9.056496
    21  C    5.404522   5.904692   4.059821   6.827077   7.682804
    22  C    4.410880   4.628527   2.707721   5.855202   6.853979
    23  S    5.557911   5.077641   2.703887   6.951495   8.109506
    24  H    7.604965   7.966843   5.886421   9.026340   9.868703
    25  H    5.382186   6.247966   4.716518   6.740017   7.433694
    26  C    7.933448   7.927261  10.311830   6.549066   6.163088
    27  C    7.486530   7.149588   9.505616   6.203075   6.108921
    28  C    6.081312   5.729433   8.094338   4.837975   4.894516
    29  C    5.373153   5.493719   7.871787   3.995371   3.755221
    30  S    6.797296   7.219370   9.573515   5.356149   4.698242
    31  H    8.972992   9.001992  11.386758   7.573783   7.107100
    32  H    8.258878   7.695775   9.995694   7.047811   7.074841
    33  H    5.784380   5.087446   7.391344   4.711993   5.070003
    34  C    8.267574   7.881701   5.487457   9.688811  10.787334
    35  C    8.907227   8.281654   5.896289  10.297095  11.448877
    36  C   10.299247   9.617878   7.231954  11.684982  12.848547
    37  C   10.772581  10.233888   7.831877  12.177719  13.306467
    38  S    9.628877   9.345733   6.985843  11.044800  12.103903
    39  H    8.518739   7.784990   5.469576   9.873635  11.040542
    40  H   11.015150  10.207047   7.865288  12.374411  13.562296
    41  H   11.799020  11.254610   8.858343  13.201603  14.328462
                   11         12         13         14         15
    11  C    0.000000
    12  C    1.375544   0.000000
    13  S    2.631874   1.823847   0.000000
    14  H    2.205093   3.369184   3.677979   0.000000
    15  H    1.080253   2.154520   3.677891   2.595523   0.000000
    16  N    4.321246   5.209219   4.785985   2.292981   4.859108
    17  N    6.768949   7.435110   6.533227   4.875763   7.418835
    18  S    6.043723   6.980637   6.512553   3.921456   6.473866
    19  C   10.703947  10.819352   9.258573   9.377544  11.620046
    20  C   10.391096  10.661093   9.237195   8.872290  11.236286
    21  C    9.033511   9.371642   8.035007   7.466100   9.853257
    22  C    8.155168   8.363414   6.916265   6.789242   9.048204
    23  S    9.310412   9.302697   7.669700   8.204962  10.279732
    24  H   11.222992  11.559250  10.191690   9.608888  12.026445
    25  H    8.810981   9.287713   8.110780   7.088806   9.549880
    26  C    4.806574   3.964082   5.319039   7.005114   4.679370
    27  C    4.897623   3.759392   4.699156   7.070992   5.068116
    28  C    3.832018   2.545029   3.272901   5.912836   4.251047
    29  C    2.546836   1.434182   2.828947   4.709929   2.879266
    30  S    3.283521   2.839618   4.549706   5.418657   2.952014
    31  H    5.718245   4.982927   6.389618   7.892801   5.454697
    32  H    5.918555   4.715767   5.421870   8.065654   6.137716
    33  H    4.252330   2.879028   2.944819   6.136491   4.878988
    34  C   12.036133  12.080110  10.457569  10.775911  12.975420
    35  C   12.654019  12.613616  10.936284  11.502408  13.621804
    36  C   14.044955  13.975807  12.276029  12.906965  15.019406
    37  C   14.530353  14.509205  12.837041  13.316830  15.485587
    38  S   13.361687  13.433661  11.838067  12.048023  14.278353
    39  H   12.214226  12.139840  10.457448  11.132777  13.189730
    40  H   14.728091  14.608080  12.885038  13.656979  15.715840
    41  H   15.550406  15.522719  13.846579  14.333480  16.504413
                   16         17         18         19         20
    16  N    0.000000
    17  N    2.609743   0.000000
    18  S    1.781281   1.778148   0.000000
    19  C    7.442224   5.206566   6.979510   0.000000
    20  C    6.775108   4.338225   6.056562   1.372671   0.000000
    21  C    5.356621   2.955713   4.699037   2.358498   1.421536
    22  C    4.905086   2.961933   4.707578   2.589870   2.362547
    23  S    6.536867   4.764937   6.495679   1.824850   2.632202
    24  H    7.430215   4.890310   6.500208   2.150278   1.081025
    25  H    4.868561   2.337606   3.942867   3.366725   2.206388
    26  C    9.063928  11.369819  10.798957  14.561757  14.492363
    27  C    8.944402  11.067852  10.707135  13.834895  13.870910
    28  C    7.656827   9.697039   9.424299  12.415626  12.449816
    29  C    6.628035   8.852853   8.391924  12.060634  11.965277
    30  S    7.585425  10.019496   9.280260  13.649991  13.453263
    31  H   10.005268  12.360489  11.719611  15.630591  15.546624
    32  H    9.859606  11.885332  11.621860  14.359000  14.473045
    33  H    7.632761   9.454225   9.381115  11.758481  11.886325
    34  C    8.872231   6.632450   8.401042   1.438329   2.548333
    35  C    9.717616   7.601339   9.366885   2.549519   3.786580
    36  C   11.096754   8.919040  10.685170   3.762667   4.873854
    37  C   11.401506   9.104578  10.855272   3.963977   4.827794
    38  S   10.045298   7.683525   9.399201   2.837128   3.363657
    39  H    9.465342   7.508326   9.244784   2.880664   4.163628
    40  H   11.916752   9.805590  11.566025   4.719861   5.877452
    41  H   12.395554  10.065818  11.801929   4.980368   5.748051
                   21         22         23         24         25
    21  C    0.000000
    22  C    1.377256   0.000000
    23  S    2.635787   1.833072   0.000000
    24  H    2.204243   3.371935   3.677987   0.000000
    25  H    1.076943   2.145277   3.676452   2.602278   0.000000
    26  C   13.243010  12.198795  12.973129  15.405642  13.183364
    27  C   12.688037  11.578041  12.199501  14.819399  12.727659
    28  C   11.269222  10.150387  10.783488  13.403468  11.326513
    29  C   10.705856   9.662661  10.495128  12.880034  10.655734
    30  S   12.138530  11.178344  12.140493  14.322130  11.977253
    31  H   14.287690  13.258018  14.047027  16.451262  14.205073
    32  H   13.343133  12.197543  12.696012  15.439713  13.443319
    33  H   10.774021   9.603804  10.092532  12.866219  10.922015
    34  C    3.758144   3.996491   2.831675   2.876420   4.712914
    35  C    4.874910   4.866579   3.362216   4.160370   5.874896
    36  C    6.099481   6.218033   4.741959   5.015059   7.051262
    37  C    6.174435   6.534365   5.284848   4.721821   7.027689
    38  S    4.733176   5.314031   4.449115   3.132921   5.486985
    39  H    5.024361   4.767155   3.137703   4.716138   6.054195
    40  H    7.056446   7.075793   5.498462   6.049266   8.027596
    41  H    7.122185   7.550522   6.337900   5.519326   7.925485
                   26         27         28         29         30
    26  C    0.000000
    27  C    1.361554   0.000000
    28  C    2.344535   1.431903   0.000000
    29  C    2.562230   2.362754   1.374012   0.000000
    30  S    1.801845   2.630011   2.639111   1.834255   0.000000
    31  H    1.074999   2.207009   3.388549   3.609580   2.503546
    32  H    2.147830   1.079915   2.214713   3.372400   3.673623
    33  H    3.355435   2.214642   1.080846   2.154756   3.686743
    34  C   15.748974  14.957262  13.549657  13.278544  14.914694
    35  C   16.199510  15.348316  13.954591  13.763785  15.445369
    36  C   17.511145  16.624507  15.244371  15.101140  16.801875
    37  C   18.078594  17.216514  15.833130  15.656797  17.333715
    38  S   17.080249  16.294303  14.899833  14.628695  16.243430
    39  H   15.688173  14.827504  13.440793  13.269030  14.957584
    40  H   18.073770  17.150821  15.787248  15.697326  17.420044
    41  H   19.067373  18.192012  16.817047  16.659804  18.340514
                   31         32         33         34         35
    31  H    0.000000
    32  H    2.631322   0.000000
    33  H    4.356785   2.610214   0.000000
    34  C   16.821562  15.421366  12.832169   0.000000
    35  C   17.274317  15.758324  13.185870   1.372694   0.000000
    36  C   18.584788  16.994819  14.444154   2.360898   1.431390
    37  C   19.149963  17.604941  15.052496   2.558738   2.342192
    38  S   18.145017  16.749111  14.185531   1.831847   2.637474
    39  H   16.760865  15.228549  12.666543   2.152052   1.081841
    40  H   19.144852  17.481981  14.957663   3.370893   2.214644
    41  H   20.136602  18.562195  16.024763   3.603956   3.383716
                   36         37         38         39         40
    36  C    0.000000
    37  C    1.360299   0.000000
    38  S    2.629544   1.801459   0.000000
    39  H    2.217293   3.355323   3.684857   0.000000
    40  H    1.080242   2.147496   3.673603   2.614192   0.000000
    41  H    2.202874   1.072749   2.502036   4.354425   2.628052
                   41
    41  H    0.000000
 Stoichiometry    C22H12N2S5
 Framework group  C1[X(C22H12N2S5)]
 Deg. of freedom   117
 Full point group                 C1      NOp   1
 Largest Abelian subgroup         C1      NOp   1
 Largest concise Abelian subgroup C1      NOp   1
                         Standard orientation:                         
 ---------------------------------------------------------------------
 Center     Atomic      Atomic             Coordinates (Angstroms)
 Number     Number       Type             X           Y           Z
 ---------------------------------------------------------------------
      1          6           0       -0.692511   -0.696175    0.367588
      2          6           0        0.723081   -0.684523    0.317988
      3          6           0        1.481529    0.466800    0.171432
      4          6           0        0.724673    1.703311    0.112289
      5          6           0       -0.746608    1.693163    0.180160
      6          6           0       -1.478595    0.442545    0.281417
      7          1           0       -1.175556   -1.658914    0.462152
      8          1           0        1.228111   -1.639220    0.369506
      9          6           0       -2.925021    0.397493    0.258217
     10          6           0       -3.853723    1.411396    0.327221
     11          6           0       -5.208183    0.998406    0.226730
     12          6           0       -5.398608   -0.354340    0.065678
     13         16           0       -3.788458   -1.210889    0.053071
     14          1           0       -3.552297    2.439452    0.436167
     15          1           0       -6.032709    1.695516    0.260518
     16          7           0       -1.324803    2.891502    0.133367
     17          7           0        1.281848    2.908940    0.007570
     18         16           0       -0.031030    4.108113   -0.004369
     19          6           0        5.419983   -0.250784   -0.010103
     20          6           0        5.160492    1.021553   -0.455130
     21          6           0        3.793242    1.408465   -0.413988
     22          6           0        2.926419    0.445959    0.054023
     23         16           0        3.866960   -1.063732    0.497156
     24          1           0        5.947568    1.681502   -0.792165
     25          1           0        3.442678    2.382178   -0.711969
     26          6           0       -9.051771   -1.813780   -0.422565
     27          6           0       -8.161563   -2.841542   -0.493726
     28          6           0       -6.796113   -2.445457   -0.323399
     29          6           0       -6.610250   -1.100155   -0.114771
     30         16           0       -8.229529   -0.238560   -0.123828
     31          1           0      -10.122441   -1.828987   -0.517745
     32          1           0       -8.461321   -3.864084   -0.669137
     33          1           0       -5.971758   -3.143599   -0.358986
     34          6           0        6.666139   -0.963186    0.081375
     35          6           0        7.085563   -1.900080    0.992748
     36          6           0        8.408839   -2.398805    0.771183
     37          6           0        9.026442   -1.866904   -0.317882
     38         16           0        7.974307   -0.677672   -1.168761
     39          1           0        6.469215   -2.205013    1.827920
     40          1           0        8.880332   -3.126949    1.414942
     41          1           0       10.012118   -2.051287   -0.698981
 ---------------------------------------------------------------------
 Rotational constants (GHZ):      0.3165131      0.0371033      0.0336507
 Standard basis: 6-311++G(d,p) (5D, 7F)
 There are   791 symmetry adapted cartesian basis functions of A   symmetry.
 There are   762 symmetry adapted basis functions of A   symmetry.
   762 basis functions,  1222 primitive gaussians,   791 cartesian basis functions
   119 alpha electrons      119 beta electrons
       nuclear repulsion energy      3017.3354478488 Hartrees.
 NAtoms=   41 NActive=   41 NUniq=   41 SFac= 1.00D+00 NAtFMM=   60 NAOKFM=F Big=F
 Integral buffers will be    131072 words long.
 Regular integral format.
 Two-electron integral symmetry is turned on.
 One-electron integrals computed using PRISM.
 NBasis=   762 RedAO= T EigKep=  1.44D-06  NBF=   762
 NBsUse=   752 1.00D-06 EigRej=  6.69D-07 NBFU=   752
 ExpMin= 3.60D-02 ExpMax= 9.34D+04 ExpMxC= 3.17D+03 IAcc=3 IRadAn=         5 AccDes= 0.00D+00
 Harris functional with IExCor=  205 and IRadAn=       5 diagonalized for initial guess.
 HarFok:  IExCor=  205 AccDes= 0.00D+00 IRadAn=         5 IDoV= 1 UseB2=F ITyADJ=14
 ICtDFT=  3500011 ScaDFX=  1.000000  1.000000  1.000000  1.000000
 FoFCou: FMM=F IPFlag=           0 FMFlag=      100000 FMFlg1=           0
         NFxFlg=           0 DoJE=T BraDBF=F KetDBF=T FulRan=T
         wScrn=  0.000000 ICntrl=     500 IOpCl=  0 I1Cent=   200000004 NGrid=           0
         NMat0=    1 NMatS0=      1 NMatT0=    0 NMatD0=    1 NMtDS0=    0 NMtDT0=    0
 Petite list used in FoFCou.
 Requested convergence on RMS density matrix=1.00D-08 within 128 cycles.
 Requested convergence on MAX density matrix=1.00D-06.
 Requested convergence on             energy=1.00D-06.
 No special actions if energy rises.
 EnCoef did     7 forward-backward iterations
 EnCoef did   100 forward-backward iterations
 EnCoef did     4 forward-backward iterations
 EnCoef did     3 forward-backward iterations
 Restarting incremental Fock formation.
 SCF Done:  E(RS-VWN) =  -2935.67921979     A.U. after   30 cycles
            NFock= 30  Conv=0.67D-08     -V/T= 2.0052
 ExpMin= 3.60D-02 ExpMax= 9.34D+04 ExpMxC= 3.17D+03 IAcc=3 IRadAn=         5 AccDes= 0.00D+00
 HarFok:  IExCor=  205 AccDes= 0.00D+00 IRadAn=         5 IDoV=-2 UseB2=F ITyADJ=14
 ICtDFT= 12500011 ScaDFX=  1.000000  1.000000  1.000000  1.000000
 Range of M.O.s used for correlation:    50   752
 NBasis=   762 NAE=   119 NBE=   119 NFC=    49 NFV=     0
 NROrb=    703 NOA=    70 NOB=    70 NVA=   633 NVB=   633

 **** Warning!!: The largest alpha MO coefficient is  0.19789114D+03


 **** Warning!!: The smallest alpha delta epsilon is  0.41207679D-01

 Would need an additional         56676900000 words for in-memory AO integral storage.
 Orbital symmetries:
       Occupied  (A) (A) (A) (A) (A) (A) (A) (A) (A) (A) (A) (A)
                 (A) (A) (A) (A) (A) (A) (A) (A) (A) (A) (A) (A)
                 (A) (A) (A) (A) (A) (A) (A) (A) (A) (A) (A) (A)
                 (A) (A) (A) (A) (A) (A) (A) (A) (A) (A) (A) (A)
                 (A) (A) (A) (A) (A) (A) (A) (A) (A) (A) (A) (A)
                 (A) (A) (A) (A) (A) (A) (A) (A) (A) (A) (A) (A)
                 (A) (A) (A) (A) (A) (A) (A) (A) (A) (A) (A) (A)
                 (A) (A) (A) (A) (A) (A) (A) (A) (A) (A) (A) (A)
                 (A) (A) (A) (A) (A) (A) (A) (A) (A) (A) (A) (A)
                 (A) (A) (A) (A) (A) (A) (A) (A) (A) (A) (A)
       Virtual   (A) (A) (A) (A) (A) (A) (A) (A) (A) (A) (A) (A)
                 (A) (A) (A) (A) (A) (A) (A) (A) (A) (A) (A) (A)
                 (A) (A) (A) (A) (A) (A) (A) (A) (A) (A) (A) (A)
                 (A) (A) (A) (A) (A) (A) (A) (A) (A) (A) (A) (A)
                 (A) (A) (A) (A) (A) (A) (A) (A) (A) (A) (A) (A)
                 (A) (A) (A) (A) (A) (A) (A) (A) (A) (A) (A) (A)
                 (A) (A) (A) (A) (A) (A) (A) (A) (A) (A) (A) (A)
                 (A) (A) (A) (A) (A) (A) (A) (A) (A) (A) (A) (A)
                 (A) (A) (A) (A) (A) (A) (A) (A) (A) (A) (A) (A)
                 (A) (A) (A) (A) (A) (A) (A) (A) (A) (A) (A) (A)
                 (A) (A) (A) (A) (A) (A) (A) (A) (A) (A) (A) (A)
                 (A) (A) (A) (A) (A) (A) (A) (A) (A) (A) (A) (A)
                 (A) (A) (A) (A) (A) (A) (A) (A) (A) (A) (A) (A)
                 (A) (A) (A) (A) (A) (A) (A) (A) (A) (A) (A) (A)
                 (A) (A) (A) (A) (A) (A) (A) (A) (A) (A) (A) (A)
                 (A) (A) (A) (A) (A) (A) (A) (A) (A) (A) (A) (A)
                 (A) (A) (A) (A) (A) (A) (A) (A) (A) (A) (A) (A)
                 (A) (A) (A) (A) (A) (A) (A) (A) (A) (A) (A) (A)
                 (A) (A) (A) (A) (A) (A) (A) (A) (A) (A) (A) (A)
                 (A) (A) (A) (A) (A) (A) (A) (A) (A) (A) (A) (A)
                 (A) (A) (A) (A) (A) (A) (A) (A) (A) (A) (A) (A)
                 (A) (A) (A) (A) (A) (A) (A) (A) (A) (A) (A) (A)
                 (A) (A) (A) (A) (A) (A) (A) (A) (A) (A) (A) (A)
                 (A) (A) (A) (A) (A) (A) (A) (A) (A) (A) (A) (A)
                 (A) (A) (A) (A) (A) (A) (A) (A) (A) (A) (A) (A)
                 (A) (A) (A) (A) (A) (A) (A) (A) (A) (A) (A) (A)
                 (A) (A) (A) (A) (A) (A) (A) (A) (A) (A) (A) (A)
                 (A) (A) (A) (A) (A) (A) (A) (A) (A) (A) (A) (A)
                 (A) (A) (A) (A) (A) (A) (A) (A) (A) (A) (A) (A)
                 (A) (A) (A) (A) (A) (A) (A) (A) (A) (A) (A) (A)
                 (A) (A) (A) (A) (A) (A) (A) (A) (A) (A) (A) (A)
                 (A) (A) (A) (A) (A) (A) (A) (A) (A) (A) (A) (A)
                 (A) (A) (A) (A) (A) (A) (A) (A) (A) (A) (A) (A)
                 (A) (A) (A) (A) (A) (A) (A) (A) (A) (A) (A) (A)
                 (A) (A) (A) (A) (A) (A) (A) (A) (A) (A) (A) (A)
                 (A) (A) (A) (A) (A) (A) (A) (A) (A) (A) (A) (A)
                 (A) (A) (A) (A) (A) (A) (A) (A) (A) (A) (A) (A)
                 (A) (A) (A) (A) (A) (A) (A) (A) (A) (A) (A) (A)
                 (A) (A) (A) (A) (A) (A) (A) (A) (A) (A) (A) (A)
                 (A) (A) (A) (A) (A) (A) (A) (A) (A) (A) (A) (A)
                 (A) (A) (A) (A) (A) (A) (A) (A) (A) (A) (A) (A)
                 (A) (A) (A) (A) (A) (A) (A) (A) (A) (A) (A) (A)
                 (A) (A) (A) (A) (A) (A) (A) (A) (A) (A) (A) (A)
                 (A) (A) (A) (A) (A) (A) (A) (A) (A) (A) (A) (A)
                 (A) (A) (A) (A) (A) (A) (A) (A) (A) (A) (A) (A)
                 (A) (A) (A) (A) (A) (A) (A) (A) (A) (A) (A) (A)
                 (A) (A) (A) (A) (A) (A) (A) (A) (A) (A) (A) (A)
                 (A) (A) (A) (A) (A) (A) (A) (A) (A) (A) (A) (A)
                 (A) (A) (A) (A) (A) (A) (A) (A) (A) (A) (A) (A)
                 (A) (A) (A) (A) (A) (A) (A) (A) (A) (A) (A) (A)
                 (A) (A) (A) (A) (A) (A) (A) (A) (A) (A) (A) (A)
                 (A) (A) (A) (A) (A) (A) (A) (A) (A) (A) (A) (A)
                 (A) (A) (A) (A) (A) (A) (A) (A) (A)
   400 initial guesses have been made.
 Convergence on wavefunction:    0.001000000000000
 Iteration     1 Dimension   400 NMult     0 NNew    400
 CISAX will form   400 AO SS matrices at one time.
 New state      3 was old state      4
 New state      4 was old state      3
 New state      5 was old state      6
 New state      6 was old state      7
 New state      7 was old state      9
 New state      8 was old state      5
 New state      9 was old state      8
 New state     11 was old state     15
 New state     12 was old state     14
 New state     13 was old state     12
 New state     14 was old state     18
 New state     15 was old state     11
 New state     16 was old state     17
 New state     17 was old state     21
 New state     18 was old state     23
 New state     19 was old state     22
 New state     21 was old state     24
 New state     22 was old state     26
 New state     23 was old state     30
 New state     24 was old state     32
 New state     25 was old state     31
 New state     26 was old state     27
 New state     27 was old state     34
 New state     28 was old state     29
 New state     29 was old state     19
 New state     30 was old state     33
 New state     31 was old state     36
 New state     32 was old state     44
 New state     33 was old state     39
 New state     34 was old state     41
 New state     35 was old state     42
 New state     36 was old state     43
 New state     37 was old state     28
 New state     38 was old state     37
 New state     39 was old state     35
 New state     40 was old state     45
 New state     41 was old state     51
 New state     42 was old state     38
 New state     43 was old state     46
 New state     44 was old state     47
 New state     45 was old state     49
 New state     46 was old state     50
 New state     47 was old state     40
 New state     48 was old state     53
 New state     49 was old state     55
 New state     50 was old state     48
 New state     51 was old state     52
 New state     52 was old state     56
 New state     53 was old state     57
 New state     54 was old state     58
 New state     55 was old state     62
 New state     56 was old state     61
 New state     57 was old state     63
 New state     58 was old state     65
 New state     59 was old state     66
 New state     60 was old state     59
 New state     61 was old state     68
 New state     62 was old state     54
 New state     63 was old state     60
 New state     64 was old state     72
 New state     65 was old state     70
 New state     66 was old state     67
 New state     67 was old state     76
 New state     68 was old state     74
 New state     70 was old state     84
 New state     71 was old state     81
 New state     72 was old state     71
 New state     73 was old state     78
 New state     74 was old state     73
 New state     75 was old state     82
 New state     76 was old state     79
 New state     77 was old state     86
 New state     78 was old state     83
 New state     79 was old state     88
 New state     81 was old state     85
 New state     82 was old state     90
 New state     83 was old state     92
 New state     84 was old state     87
 New state     85 was old state     94
 New state     86 was old state     93
 New state     87 was old state     89
 New state     88 was old state     95
 New state     89 was old state     97
 New state     90 was old state     99
 New state     91 was old state     96
 New state     92 was old state     98
 New state     93 was old state    104
 New state     94 was old state    100
 New state     95 was old state    102
 New state     96 was old state     77
 New state     97 was old state    103
 New state     98 was old state    101
 New state     99 was old state    107
 New state    100 was old state    109
 Iteration     2 Dimension   800 NMult   400 NNew    400
 New state      3 was old state      4
 New state      4 was old state      3
 New state      7 was old state      8
 New state      8 was old state      7
 New state     11 was old state     13
 New state     13 was old state     11
 New state     14 was old state     15
 New state     15 was old state     14
 New state     18 was old state     19
 New state     19 was old state     18
 New state     23 was old state     29
 New state     24 was old state     23
 New state     25 was old state     24
 New state     27 was old state     25
 New state     28 was old state     27
 New state     29 was old state     28
 New state     30 was old state     32
 New state     31 was old state     30
 New state     32 was old state     31
 New state     33 was old state     35
 New state     34 was old state     38
 New state     35 was old state     33
 New state     38 was old state     34
 New state     40 was old state     42
 New state     42 was old state     40
 New state     44 was old state     45
 New state     45 was old state     44
 New state     46 was old state     47
 New state     47 was old state     46
 New state     48 was old state     52
 New state     49 was old state     50
 New state     50 was old state     48
 New state     51 was old state     49
 New state     52 was old state     51
 New state     54 was old state     55
 New state     55 was old state     54
 New state     56 was old state     58
 New state     57 was old state     56
 New state     58 was old state     57
 New state     59 was old state     60
 New state     60 was old state     59
 New state     61 was old state     64
 New state     63 was old state     61
 New state     64 was old state     66
 New state     65 was old state     63
 New state     66 was old state     65
 New state     67 was old state     69
 New state     68 was old state     67
 New state     69 was old state     70
 New state     70 was old state     68
 New state     71 was old state     72
 New state     72 was old state     71
 No map to state     75
 New state     76 was old state     75
 New state     78 was old state     76
 New state     79 was old state     78
 New state     80 was old state     79
 New state     81 was old state     82
 New state     82 was old state     81
 New state     84 was old state     86
 New state     85 was old state     84
 New state     86 was old state     85
 New state     92 was old state     93
 New state     93 was old state     92
 New state     94 was old state     96
 New state     96 was old state     94
 New state     97 was old state    104
 New state     98 was old state     97
 New state     99 was old state     98
 New state    100 was old state     99
 Iteration     3 Dimension   900 NMult   800 NNew    100
 New state     88 was old state     89
 New state     89 was old state     88
 Iteration     4 Dimension   995 NMult   900 NNew     95
 Iteration     5 Dimension  1090 NMult   995 NNew     95
 Iteration     6 Dimension  1177 NMult  1090 NNew     87
 Iteration     7 Dimension  1256 NMult  1177 NNew     79
 Iteration     8 Dimension  1321 NMult  1256 NNew     65
 Iteration     9 Dimension  1360 NMult  1321 NNew     39
 Iteration    10 Dimension  1376 NMult  1360 NNew     16
 Iteration    11 Dimension  1380 NMult  1376 NNew      4
 Iteration    12 Dimension  1381 NMult  1380 NNew      1
 Iteration    13 Dimension  1382 NMult  1381 NNew      1
 ***********************************************************************
 Excited states from <AA,BB:AA,BB> singles matrix:
 ***********************************************************************
 
 Ground to excited state transition densities written to RWF  633
 Ground to excited state transition electric dipole moments (Au):
       state          X           Y           Z        Dip. S.      Osc.
         1        -3.0071     -0.0982     -0.0125      9.0527      0.3160
         2        -0.1908      0.5109      0.0619      0.3013      0.0140
         3        -3.8209     -0.1700     -0.0560     14.6313      0.8833
         4         0.6787      0.0189      0.0096      0.4611      0.0283
         5         0.2981     -0.0749     -0.0043      0.0945      0.0059
         6        -0.1846      0.1711      0.0727      0.0686      0.0044
         7        -0.2487      0.3787      0.0194      0.2056      0.0133
         8        -0.1763     -0.0053      0.0196      0.0315      0.0021
         9        -0.0286      0.1613     -0.0397      0.0284      0.0019
        10         0.0384     -0.0493     -0.0423      0.0057      0.0004
        11         1.3099      0.9558      0.1489      2.6516      0.2075
        12         0.4900     -0.3130     -0.0141      0.3383      0.0271
        13         0.2765      0.0347      0.0078      0.0777      0.0062
        14        -1.6024      0.7019      0.0698      3.0654      0.2499
        15        -0.0664      0.0182      0.0391      0.0063      0.0005
        16         0.0521     -0.0015     -0.0214      0.0032      0.0003
        17        -0.1238      0.2292     -0.0522      0.0706      0.0062
        18         0.3814      0.3551      0.0302      0.2724      0.0242
        19        -0.0466      0.0829      0.0556      0.0121      0.0011
        20         0.1472     -0.1938      0.0078      0.0593      0.0054
        21         0.0665     -0.1229     -0.0376      0.0209      0.0019
        22        -0.0854     -0.3891      0.0340      0.1598      0.0146
        23        -0.4166      0.1193     -0.0741      0.1933      0.0182
        24         0.0874      0.0394     -0.0657      0.0135      0.0013
        25        -0.0840      0.3939     -0.0453      0.1643      0.0155
        26         0.1070     -0.2276      0.0243      0.0639      0.0061
        27         0.0093     -0.0605      0.0393      0.0053      0.0005
        28        -0.0365     -0.1183     -0.0711      0.0204      0.0020
        29         0.1734      0.1372     -0.0027      0.0489      0.0048
        30         0.0922     -0.1683     -0.0760      0.0426      0.0042
        31        -0.3086     -0.0797      0.0111      0.1017      0.0100
        32         0.0080     -0.0006     -0.0151      0.0003      0.0000
        33         0.0119     -0.0344     -0.0063      0.0014      0.0001
        34         0.2513     -0.1150      0.0148      0.0766      0.0078
        35         0.0939     -0.1014     -0.0426      0.0209      0.0021
        36         0.0660      0.2843      0.1401      0.1048      0.0107
        37         0.0162      0.1961     -0.0982      0.0483      0.0050
        38         0.0084     -0.0840     -0.0081      0.0072      0.0007
        39         0.3522      0.1442     -0.1781      0.1766      0.0183
        40        -0.1636      0.6660     -0.0072      0.4703      0.0490
        41         0.0175      0.0354      0.0049      0.0016      0.0002
        42         0.0248     -0.2478      0.0331      0.0631      0.0066
        43        -0.1076     -0.3456      0.1223      0.1460      0.0154
        44         0.0364      0.0102      0.0105      0.0015      0.0002
        45         0.0197      0.0427      0.0009      0.0022      0.0002
        46        -0.0490      0.4176     -0.0397      0.1784      0.0193
        47         0.0077      0.1775     -0.0127      0.0317      0.0035
        48         0.0002      0.0746     -0.0132      0.0057      0.0006
        49         0.0068     -0.3001     -0.0189      0.0905      0.0101
        50         0.0286      0.0414      0.0031      0.0025      0.0003
        51        -0.4147      0.0362     -0.0088      0.1734      0.0194
        52         0.4654     -0.0335      0.0125      0.2178      0.0245
        53        -0.3038      0.1372      0.0384      0.1126      0.0127
        54        -0.6005     -0.1858     -0.0095      0.3952      0.0447
        55        -0.0750     -0.0452      0.0376      0.0091      0.0010
        56        -0.0197     -0.0716      0.0521      0.0082      0.0009
        57        -0.2025      0.1587      0.0126      0.0664      0.0076
        58        -0.0177      0.0757     -0.0134      0.0062      0.0007
        59         0.2930     -0.3491     -0.0025      0.2078      0.0241
        60        -0.0694      0.2396      0.0024      0.0622      0.0072
        61        -0.0773      0.0271     -0.0045      0.0067      0.0008
        62        -0.0526      0.0133      0.0434      0.0048      0.0006
        63        -0.0884      0.0644      0.0109      0.0121      0.0014
        64         0.1760     -0.0378     -0.1001      0.0424      0.0050
        65         0.0367     -0.0331     -0.0003      0.0024      0.0003
        66         0.1989      0.2976     -0.0044      0.1281      0.0154
        67         0.1375      0.0262     -0.0266      0.0203      0.0024
        68        -0.1262      0.0660     -0.0004      0.0203      0.0024
        69        -0.0048     -0.1342      0.1286      0.0346      0.0042
        70        -0.1386     -0.0024      0.0674      0.0237      0.0029
        71         0.0442     -0.0525     -0.0765      0.0106      0.0013
        72         0.0654     -0.0254      0.0588      0.0084      0.0010
        73         0.1301      0.0103     -0.0151      0.0173      0.0021
        74         0.0326      0.0189     -0.0410      0.0031      0.0004
        75        -0.0190     -0.0056      0.0103      0.0005      0.0001
        76        -0.0830      0.0244     -0.0145      0.0077      0.0009
        77        -0.1070      0.0395      0.0786      0.0192      0.0024
        78        -0.1113      0.0310      0.0182      0.0137      0.0017
        79         0.0852     -0.0793     -0.0683      0.0182      0.0023
        80         0.0808      0.0525     -0.0440      0.0112      0.0014
        81         0.0362     -0.1075     -0.0640      0.0170      0.0021
        82         0.1661     -0.0936      0.0459      0.0385      0.0048
        83         0.2541      0.1142     -0.0535      0.0805      0.0102
        84         0.1397     -0.1053     -0.0868      0.0381      0.0048
        85         0.0295      0.0019     -0.0594      0.0044      0.0006
        86         0.0560     -0.0767     -0.0341      0.0102      0.0013
        87        -0.0957      0.0593      0.0257      0.0133      0.0017
        88         0.1272      0.2564     -0.0453      0.0840      0.0107
        89        -0.0415     -0.0874      0.1267      0.0254      0.0032
        90         0.0224      0.0750      0.0365      0.0075      0.0010
        91        -0.0176      0.0734      0.0753      0.0114      0.0015
        92        -0.1454      0.0991      0.0501      0.0335      0.0043
        93         0.1113      0.1006     -0.0895      0.0305      0.0039
        94        -0.0106      0.0246      0.0188      0.0011      0.0001
        95        -0.0115     -0.0408      0.1518      0.0248      0.0032
        96         0.0929      0.0106      0.0056      0.0088      0.0011
        97        -0.1127      0.0059     -0.0376      0.0141      0.0018
        98        -0.0864      0.1153      0.0564      0.0239      0.0031
        99        -0.0781      0.1379     -0.0203      0.0255      0.0033
       100         0.1533     -0.0319     -0.1292      0.0412      0.0054
 Ground to excited state transition velocity dipole moments (Au):
       state          X           Y           Z        Dip. S.      Osc.
         1         0.1593      0.0057      0.0008      0.0254      0.3237
         2         0.0131     -0.0385     -0.0034      0.0017      0.0159
         3         0.3414      0.0160      0.0058      0.1168      0.8601
         4        -0.0573     -0.0031     -0.0006      0.0033      0.0239
         5        -0.0261      0.0090      0.0001      0.0008      0.0054
         6         0.0168     -0.0169     -0.0071      0.0006      0.0042
         7         0.0239     -0.0383     -0.0018      0.0020      0.0140
         8         0.0173      0.0003     -0.0033      0.0003      0.0021
         9         0.0004     -0.0152      0.0037      0.0002      0.0016
        10        -0.0065      0.0051      0.0046      0.0001      0.0006
        11        -0.1517     -0.1110     -0.0178      0.0357      0.2024
        12        -0.0588      0.0331      0.0010      0.0046      0.0253
        13        -0.0328     -0.0044     -0.0012      0.0011      0.0061
        14         0.1917     -0.0849     -0.0079      0.0440      0.2401
        15         0.0061     -0.0029     -0.0051      0.0001      0.0004
        16        -0.0061      0.0029      0.0029      0.0001      0.0003
        17         0.0163     -0.0250      0.0069      0.0009      0.0047
        18        -0.0496     -0.0476     -0.0056      0.0048      0.0238
        19         0.0054     -0.0118     -0.0070      0.0002      0.0011
        20        -0.0195      0.0262     -0.0011      0.0011      0.0053
        21        -0.0099      0.0133      0.0045      0.0003      0.0014
        22         0.0116      0.0479     -0.0049      0.0024      0.0119
        23         0.0593     -0.0133      0.0108      0.0038      0.0180
        24        -0.0131     -0.0026      0.0078      0.0002      0.0011
        25         0.0112     -0.0503      0.0054      0.0027      0.0126
        26        -0.0138      0.0286     -0.0025      0.0010      0.0047
        27        -0.0011      0.0077     -0.0098      0.0002      0.0007
        28         0.0052      0.0177      0.0097      0.0004      0.0020
        29        -0.0245     -0.0203      0.0068      0.0011      0.0048
        30        -0.0137      0.0251      0.0177      0.0011      0.0052
        31         0.0420      0.0109     -0.0003      0.0019      0.0085
        32        -0.0008      0.0040      0.0010      0.0000      0.0001
        33        -0.0010      0.0071      0.0005      0.0001      0.0002
        34        -0.0345      0.0181     -0.0026      0.0015      0.0067
        35        -0.0130      0.0155      0.0062      0.0004      0.0020
        36        -0.0102     -0.0434     -0.0192      0.0024      0.0103
        37        -0.0009     -0.0332      0.0139      0.0013      0.0056
        38        -0.0016      0.0130      0.0010      0.0002      0.0007
        39        -0.0533     -0.0208      0.0270      0.0040      0.0172
        40         0.0227     -0.0953      0.0017      0.0096      0.0409
        41        -0.0043     -0.0077     -0.0021      0.0001      0.0003
        42        -0.0043      0.0364     -0.0050      0.0014      0.0058
        43         0.0158      0.0517     -0.0174      0.0032      0.0136
        44        -0.0049     -0.0048     -0.0010      0.0000      0.0002
        45        -0.0034     -0.0081      0.0003      0.0001      0.0003
        46         0.0094     -0.0584      0.0058      0.0035      0.0145
        47        -0.0013     -0.0290      0.0012      0.0008      0.0034
        48        -0.0002     -0.0077      0.0017      0.0001      0.0003
        49        -0.0011      0.0470      0.0037      0.0022      0.0089
        50        -0.0044     -0.0077     -0.0019      0.0001      0.0003
        51         0.0699     -0.0064      0.0001      0.0049      0.0195
        52        -0.0789      0.0054     -0.0039      0.0063      0.0248
        53         0.0504     -0.0222     -0.0061      0.0031      0.0121
        54         0.1010      0.0301      0.0019      0.0111      0.0437
        55         0.0118      0.0076     -0.0070      0.0002      0.0010
        56         0.0007      0.0106     -0.0098      0.0002      0.0008
        57         0.0359     -0.0258     -0.0017      0.0020      0.0076
        58         0.0032     -0.0150      0.0030      0.0002      0.0009
        59        -0.0494      0.0591      0.0020      0.0059      0.0227
        60         0.0131     -0.0389     -0.0011      0.0017      0.0064
        61         0.0151     -0.0028      0.0012      0.0002      0.0009
        62         0.0085     -0.0027     -0.0073      0.0001      0.0005
        63         0.0154     -0.0102     -0.0016      0.0003      0.0013
        64        -0.0326      0.0057      0.0149      0.0013      0.0049
        65        -0.0067      0.0061     -0.0005      0.0001      0.0003
        66        -0.0337     -0.0478      0.0003      0.0034      0.0127
        67        -0.0223     -0.0037      0.0048      0.0005      0.0020
        68         0.0204     -0.0102      0.0002      0.0005      0.0019
        69         0.0007      0.0207     -0.0214      0.0009      0.0033
        70         0.0248     -0.0016     -0.0123      0.0008      0.0028
        71        -0.0064      0.0104      0.0136      0.0003      0.0012
        72        -0.0111      0.0055     -0.0108      0.0003      0.0010
        73        -0.0208     -0.0026     -0.0012      0.0004      0.0016
        74        -0.0042     -0.0027      0.0125      0.0002      0.0007
        75         0.0026      0.0009     -0.0060      0.0000      0.0002
        76         0.0141     -0.0006      0.0016      0.0002      0.0007
        77         0.0178     -0.0106     -0.0137      0.0006      0.0022
        78         0.0191     -0.0031     -0.0033      0.0004      0.0014
        79        -0.0130      0.0135      0.0115      0.0005      0.0017
        80        -0.0116     -0.0064      0.0065      0.0002      0.0008
        81        -0.0034      0.0148      0.0116      0.0004      0.0013
        82        -0.0293      0.0196     -0.0087      0.0013      0.0047
        83        -0.0443     -0.0162      0.0096      0.0023      0.0082
        84        -0.0237      0.0237      0.0135      0.0013      0.0046
        85        -0.0054     -0.0002      0.0121      0.0002      0.0006
        86        -0.0115      0.0177      0.0051      0.0005      0.0016
        87         0.0150     -0.0121     -0.0039      0.0004      0.0013
        88        -0.0221     -0.0567      0.0077      0.0038      0.0131
        89         0.0062      0.0176     -0.0229      0.0009      0.0030
        90        -0.0063     -0.0171     -0.0063      0.0004      0.0013
        91         0.0025     -0.0159     -0.0145      0.0005      0.0016
        92         0.0255     -0.0181     -0.0123      0.0011      0.0039
        93        -0.0239     -0.0183      0.0170      0.0012      0.0041
        94         0.0008     -0.0028     -0.0057      0.0000      0.0001
        95         0.0014      0.0060     -0.0294      0.0009      0.0031
        96        -0.0180     -0.0030     -0.0016      0.0003      0.0012
        97         0.0216     -0.0022      0.0064      0.0005      0.0018
        98         0.0183     -0.0212     -0.0107      0.0009      0.0031
        99         0.0149     -0.0249      0.0049      0.0009      0.0030
       100        -0.0301      0.0071      0.0219      0.0014      0.0049
 Ground to excited state transition magnetic dipole moments (Au):
       state          X           Y           Z
         1         0.0057      0.1038     -0.1875
         2         0.0164     -0.0226     -0.0357
         3         0.0240      0.2130     -1.0403
         4        -0.0253     -0.0363      0.1300
         5        -0.0204     -0.0325      0.0346
         6         0.0433      0.1327     -0.0165
         7         0.0137     -0.0853     -0.1669
         8        -0.0430      0.0215     -0.0797
         9        -0.0337     -0.1721     -0.1588
        10        -0.0033     -0.0421     -0.6077
        11         0.0618     -0.2335      0.5583
        12        -0.0385      0.1902      0.1232
        13        -0.0042     -0.1231      0.1249
        14         0.0694      0.0968     -0.8316
        15        -0.0204     -0.0132      0.1740
        16        -0.0234      0.7561     -0.0137
        17        -0.0235     -0.1169     -0.0243
        18         0.0333     -0.0372      0.2923
        19         0.0198      0.1032     -0.0427
        20        -0.0332      0.0208      0.3284
        21        -0.0363     -0.1896      0.0431
        22         0.0319      0.0586      0.0383
        23         0.0140      0.0863     -0.4416
        24         0.0214      0.0359     -0.0895
        25         0.0621      0.0555      0.1665
        26        -0.0261     -0.0809     -0.2302
        27        -0.0862      0.0047     -0.0750
        28         0.0289      0.1890     -0.1269
        29         0.0016     -0.0827      0.2812
        30        -0.0539      0.0272     -0.1123
        31         0.0222      0.0608     -0.0852
        32        -0.0322     -0.0610      0.0088
        33        -0.0352     -0.0220     -0.0122
        34        -0.0328      0.1529      0.2832
        35        -0.0108     -0.0456      0.1554
        36         0.1236      0.3931     -0.0672
        37        -0.0739     -0.2456     -0.1612
        38         0.0183      0.0189      0.1571
        39        -0.0608     -0.4391     -0.8346
        40        -0.0639     -0.3594      0.5523
        41         0.0178      0.0416     -0.4060
        42        -0.0054      0.0446     -0.0054
        43        -0.1055      0.0212      0.1232
        44         0.1089      0.1674      0.4151
        45         0.0100      0.0138      0.0165
        46         0.0320      0.0091      0.2387
        47         0.0410      0.2066     -0.0737
        48        -0.0556     -0.2003     -0.1641
        49        -0.0915     -0.5698      0.1577
        50         0.0158     -0.3950      0.2155
        51         0.0105      0.0890     -0.2177
        52        -0.0146      0.0446      0.2921
        53         0.0708     -0.0972     -0.1665
        54        -0.0546      0.2257     -0.0518
        55        -0.0327      0.1375      0.4688
        56        -0.0288     -0.1115      0.7131
        57         0.0634      0.2102      0.1171
        58         0.0489      0.0870     -0.0798
        59        -0.1276     -0.3502      0.1593
        60         0.0299     -0.1996      0.0316
        61        -0.1469     -0.1297      0.2931
        62         0.0325     -0.0134      0.1177
        63         0.0311     -0.1655      0.0147
        64        -0.0198     -0.0686     -0.3229
        65        -0.0316      0.4432     -0.0266
        66         0.0384      0.1449      0.1001
        67        -0.0168     -0.2866     -0.2875
        68         0.1318      0.1578      0.5267
        69         0.0938      0.4193      0.0936
        70         0.1378      0.2727      0.0703
        71        -0.0081     -0.3689     -0.6206
        72         0.0322      0.0911      0.1197
        73        -0.2929     -0.0565     -0.3185
        74         0.1666     -0.0182     -0.1354
        75        -0.3181     -0.0366     -0.2024
        76        -0.1410     -0.1888      0.2361
        77         0.0850     -0.1016      0.1313
        78         0.0757      0.0160      0.1352
        79         0.0065     -0.2379     -0.2353
        80        -0.0337     -0.0597     -0.4263
        81         0.0649      0.4195     -0.7089
        82         0.0268      0.1161      0.0377
        83         0.0374     -0.1742     -0.0911
        84        -0.0269     -0.0514     -0.3833
        85         0.1194      0.0399     -0.0968
        86         0.0177     -0.0765     -0.1016
        87        -0.0922      0.1275      0.2081
        88         0.0440     -0.1104     -0.0818
        89        -0.0209      0.0742      0.2565
        90         0.1302      0.4536      0.2412
        91        -0.0581      0.1323      0.1648
        92         0.0556      0.0622      0.3491
        93        -0.0475      0.1252      0.0764
        94         0.0622      0.1791     -0.1110
        95         0.1577     -0.0079      0.0543
        96         0.0131     -0.0598     -0.3143
        97         0.0004     -0.1104      0.1600
        98        -0.0207      0.2169      0.8150
        99        -0.1049     -0.1440      0.1090
       100        -0.0900     -0.3204     -0.4082
 Ground to excited state transition velocity quadrupole moments (Au):
       state          XX          YY          ZZ          XY          XZ          YZ
         1        -0.1528      0.0006      0.0086     -0.2924     -0.0319     -0.0230
         2         1.4276     -0.1591      0.0078     -0.0199      0.0144      0.0069
         3        -0.5799     -0.0256      0.0219     -0.9343     -0.1206     -0.0500
         4         0.0391      0.0029     -0.0056      0.2991      0.0376      0.0192
         5        -0.3329      0.0141     -0.0017      0.0900     -0.0076      0.0048
         6         0.7914     -0.0354      0.0090     -0.0631     -0.0783      0.0142
         7         1.4231     -0.0937      0.0212     -0.0447      0.0454     -0.0007
         8         0.0358     -0.0065     -0.0001     -0.0528     -0.0055     -0.0252
         9         0.0393      0.0268      0.0065     -0.1110      0.0341      0.0025
        10         0.1398      0.0141     -0.0049     -0.2427      0.0081      0.0089
        11         4.6751     -0.0429      0.0176      0.6247      0.1824      0.0472
        12        -1.1753     -0.1044     -0.0032      0.1991     -0.0491     -0.0001
        13         0.1406      0.0076      0.0011      0.1168      0.0108      0.0012
        14         3.6190     -0.1642      0.0449     -0.6737     -0.0270     -0.0140
        15         0.0666     -0.0233      0.0015      0.3163      0.0451     -0.0167
        16        -0.4336     -0.0067     -0.0042      0.0128     -0.0912     -0.0027
        17        -0.6698     -0.4099     -0.0095     -0.0652     -0.0456     -0.0175
        18         1.4151     -0.1865      0.0067      0.4152      0.0769      0.0264
        19         0.9377      0.0932      0.0066      0.0355     -0.0149      0.0117
        20        -1.1898      0.0405     -0.0166      0.2829     -0.0304      0.0109
        21         0.3358      0.2968      0.0011      0.1487      0.1530     -0.0077
        22         0.3125      0.3566      0.0128     -0.0510     -0.0821      0.0127
        23        -0.6032     -0.1379      0.0189     -0.6399     -0.1335      0.0029
        24        -1.3646     -0.3544     -0.0017      0.0751     -0.0120     -0.0339
        25        -0.4876     -0.3695     -0.0137      0.0149     -0.0610     -0.0077
        26         0.8248      0.0978     -0.0057      0.0761      0.0614      0.0120
        27         0.1097      0.0171     -0.0058     -0.0525     -0.0041     -0.0537
        28        -0.8721     -0.0864     -0.0115     -0.2517     -0.0859     -0.0119
        29         0.8474      0.0441      0.0073      0.4655      0.0993      0.0469
        30        -1.3095     -0.0498      0.0030     -0.2581     -0.0833      0.0347
        31         0.5419      0.0294      0.0178     -0.3907     -0.0955      0.0076
        32        -1.2613     -0.1679      0.0177      0.4281      0.0704     -0.0443
        33        -0.6845     -0.0485      0.0059      0.1773      0.0388     -0.0245
        34        -1.3592      0.0733      0.0044     -0.0088     -0.1875      0.0547
        35        -0.6992      0.1127     -0.0062     -0.0396      0.0123      0.0259
        36         1.1168     -0.3131      0.0222      0.0636     -0.3063      0.0360
        37         0.3267     -0.1271      0.0054     -0.1223      0.1773     -0.0557
        38        -0.1690      0.0602     -0.0053      0.0455      0.0034      0.0164
        39        -0.3267      0.0111     -0.0017     -0.4956      0.2921     -0.0343
        40        -0.0503     -0.0494      0.0113      0.6113      0.2101     -0.0241
        41         0.3672     -0.1616      0.0076      0.0091     -0.0178     -0.0001
        42        -0.1679      0.0469     -0.0086      0.1352     -0.0267      0.0051
        43        -0.5043      0.0930     -0.0174      0.6979      0.0009     -0.0282
        44         0.3591      0.2445      0.0075     -0.1765     -0.0705      0.0466
        45         0.1677      0.1387      0.0097      0.0131      0.0068      0.0039
        46        -0.0633     -0.7379     -0.0216     -0.2182     -0.1095     -0.0021
        47         0.4766     -0.0851     -0.0078      0.0173     -0.0449     -0.0010
        48        -0.3619     -0.2669     -0.0150      0.0090     -0.0477     -0.0207
        49        -0.7239      0.1738     -0.0125     -0.0505      0.0222     -0.0347
        50        -0.0888      0.0395     -0.0037      0.0106      0.0466      0.0210
        51         0.4124      0.0938      0.0176     -0.1050     -0.0242     -0.0352
        52         0.0808      0.0247     -0.0092      0.2635     -0.0424     -0.0177
        53         1.0020     -0.0551     -0.0013      0.0275     -0.0046     -0.0039
        54        -0.0855      0.0526      0.0124     -0.4029     -0.1157     -0.0263
        55        -0.2415      0.0256     -0.0084      0.4498     -0.0221     -0.0138
        56        -0.5922      0.0787     -0.0181      0.8182      0.0651     -0.0273
        57         0.4042     -0.0847     -0.0050     -0.2134     -0.0110     -0.0037
        58         0.1162     -0.1400      0.0016      0.0075      0.0051      0.0228
        59        -1.2291      0.1221      0.0112     -0.0501     -0.0208     -0.0237
        60         0.7374     -0.0400     -0.0019      0.0875      0.1150      0.0111
        61         0.0582      0.1072      0.0023      0.1045      0.0286     -0.0105
        62        -0.1047      0.0293      0.0259      0.2644      0.0720      0.0322
        63         0.2348     -0.0346     -0.0269     -0.0025      0.0203     -0.0080
        64        -0.3353     -0.0301     -0.0310     -0.5611      0.0083      0.0169
        65        -0.0754      0.0393     -0.0129     -0.0049      0.1146     -0.0078
        66         0.4728     -0.2176     -0.0005      0.0937      0.0624     -0.0105
        67         0.7836      0.1917      0.0124      0.0462      0.1204     -0.0181
        68         0.0961      0.2300     -0.0080     -0.0488     -0.0742      0.0600
        69         0.2770     -0.1598      0.0372      0.0635     -0.3745      0.0600
        70         0.5027     -0.0729      0.0206      0.0785     -0.2060      0.0132
        71        -0.2205     -0.0728     -0.0061     -0.1593      0.2219     -0.0650
        72        -0.7987      0.0049     -0.0002      0.4938     -0.0787      0.0479
        73        -0.0593     -0.0427     -0.0113      0.0464      0.0913     -0.0925
        74        -0.0873     -0.0745     -0.0173     -0.1844      0.0201      0.0503
        75         0.1265      0.0057      0.0043     -0.0521      0.0208     -0.0931
        76        -0.3299     -0.0804      0.0116     -0.1057      0.0013     -0.0245
        77         0.7357      0.0004      0.0053      0.0964      0.1584      0.0427
        78        -0.2572     -0.1401     -0.0187      0.1892     -0.0783     -0.0105
        79        -0.3318     -0.0397     -0.0154     -0.2190      0.3389      0.0202
        80         0.0334      0.0220      0.0014     -0.4238      0.0840      0.0167
        81        -0.3417     -0.0879     -0.0232     -0.6241     -0.1752     -0.0207
        82        -0.4944      0.0909     -0.0264      0.2663     -0.0428      0.0169
        83        -0.6688     -0.0380     -0.0491      0.1917      0.1322      0.0067
        84        -0.4901      0.0841     -0.0230     -0.3863      0.2070     -0.0164
        85        -0.0436     -0.0612     -0.0062     -0.1084      0.0343      0.0665
        86        -0.3158      0.1371     -0.0432      0.0470      0.2564     -0.0416
        87         0.1754     -0.1635      0.0042      0.2020      0.1221     -0.0687
        88        -0.1178     -0.6385     -0.0267     -0.1156      0.0816      0.0041
        89         0.0465     -0.0815      0.0675      0.0489     -0.1170      0.0422
        90        -0.0219     -0.1570      0.0062      0.1566     -0.2216      0.0661
        91         0.0717     -0.2964      0.0509      0.1072     -0.0448      0.0192
        92        -0.0347     -0.0889      0.0193      0.2004     -0.0250      0.0190
        93        -0.3147      0.0354      0.0016      0.3606      0.0258     -0.0645
        94        -0.0229      0.1913     -0.0145      0.0291      0.1810      0.0620
        95        -0.1902      0.1019      0.0305      0.0654     -0.1308      0.1302
        96        -0.2913     -0.0798      0.0248     -0.2929      0.0395     -0.0213
        97         0.4124     -0.2753      0.0022     -0.0461     -0.1056      0.0021
        98        -0.2714      0.0438      0.0058      0.2216     -0.1243      0.0260
        99        -0.0751     -0.2104     -0.0309      0.0553     -0.0917     -0.0652
       100        -0.4294      0.0675     -0.0284     -0.2844      0.2978     -0.0933
 <0|del|b> * <b|rxdel|0> + <0|del|b> * <b|delr+rdel|0>
 Rotatory Strengths (R) in cgs (10**-40 erg-esu-cm/Gauss)
       state          XX          YY          ZZ    R(velocity)    E-M Angle
         1         2.5165    -17.9834     33.5962      6.0431       87.75
         2         8.1715      1.8222      2.2385      4.0774       49.25
         3       -23.6358    -37.0078    104.4272     14.5945       89.12
         4        -0.0964      1.7166      9.7769      3.7990       79.16
         5        -0.7793      1.4892      1.1059      0.6052       80.21
         6       -10.9630      2.3149     -1.5715     -3.4065      113.60
         7        19.5796      1.9277      6.7937      9.4337       62.69
         8         1.5865     -3.9181     -1.0868     -1.1394      106.89
         9         7.6057     -0.6787      7.4147      4.7806       57.06
        10       -14.2580     -5.8675     -0.3236     -6.8164      121.30
        11        75.6921    -46.2546     10.4192     13.2856       86.70
        12        24.2487      6.4740     20.3910     17.0379       56.00
        13         0.8726      0.2605      1.9659      1.0330       84.79
        14         3.9763     34.3285     29.1112     22.4720       86.21
        15        -6.5873      1.4091     -0.3185     -1.8323      131.04
        16         6.5382      0.2224      5.4794      4.0800       66.04
        17         3.0908     -1.0245     10.5528      4.2064       50.52
        18         3.9694     -6.0523     -5.9311     -2.6713       94.23
        19        -3.5335      1.8845     -2.6257     -1.4249      119.08
        20         1.7865      1.0098      1.5936      1.4633       85.54
        21        -9.6043     -0.0980     -0.5353     -3.4125      125.61
        22        17.5538      0.2100     -2.3240      5.1466       38.25
        23       -36.5366      7.8673      3.2125     -8.4856      100.53
        24        -0.5874     -2.8138     -1.9569     -1.7860      134.64
        25       -12.1441      3.5764      2.6509     -1.9723       97.07
        26        -9.0954      2.3643     -0.0807     -2.2706      100.17
        27         3.2403      0.9143      0.0981      1.4176       52.79
        28         2.9198      3.1551      4.9584      3.6778       61.70
        29        21.1458     -5.8911      1.8745      5.7097       68.19
        30        -9.0912      6.8583     -0.4691     -0.9007       97.50
        31         4.3783      2.8140      0.5689      2.5871       69.67
        32        -0.1764     -0.8993      0.0682     -0.3358      136.19
        33        -0.8393     -0.0562      0.3067     -0.1963      113.73
        34        12.7022     -3.5501      5.5657      4.9060       75.52
        35        -0.4126      2.3729     -0.0924      0.6226       83.29
        36       -70.0696      2.0546    -10.7732    -26.2627      147.14
        37        23.2012     -0.9642      5.2539      9.1636       56.76
        38         0.9080      0.1174      0.6575      0.5610       79.90
        39       -47.3019     -9.3444     10.1872    -15.4863       99.81
        40       127.0998     -4.7391     30.1077     50.8228       58.67
        41         0.8045      1.7457     -0.5863      0.6546       83.23
        42         4.3702      1.5871      1.5699      2.5091       90.00
        43       -29.6462     17.6720     -0.1707     -4.0483      106.95
        44        -3.0345     -2.9617     -1.6972     -2.5645      123.19
        45        -0.1051     -0.1003     -0.4085     -0.2046      132.69
        46       -14.8068      6.3663     13.4452      1.6682       85.39
        47       -15.7837     -0.3442    -10.1716     -8.7665      161.06
        48         1.9487     -0.5943      4.0987      1.8177       52.37
        49       -58.1518      1.9410    -54.4372    -36.8827      157.64
        50         6.2240     -1.1815      5.6885      3.5770       51.50
        51        -1.5668     -3.6469      5.8589      0.2151       89.47
        52        -3.5253      5.1215     -0.4788      0.3725       89.35
        53         6.0506      9.4926     12.5633      9.3688       53.67
        54        19.6538    -15.6439      0.9582      1.6560       87.28
        55       -10.8546     -1.4151      1.3546     -3.6384      110.04
        56       -34.7307      2.0382     -1.0155    -11.2360      141.69
        57       -11.3653      3.2278     -5.5956     -4.5777      107.69
        58        -2.9429     -0.0618     -2.6480     -1.8842      133.99
        59       -39.1065     15.9901    -34.1086    -19.0750      116.83
        60        24.4965      1.2179      7.1606     10.9583       14.54
        61         1.8652     -4.3061     -3.5742     -2.0050      106.00
        62        -5.0978      3.2359     -0.3100     -0.7239      112.55
        63         3.7350      0.6563      4.1538      2.8484       46.86
        64       -26.9915      7.2253      1.6946     -6.0239      112.31
        65         3.9861      0.5452      7.0331      3.8548       43.75
        66        -7.6570     -1.8451    -22.7369    -10.7463      141.01
        67         0.6425     -1.6246      1.1333      0.0504       90.00
        68        -4.4290      7.8498      1.2047      1.5418       84.73
        69        25.4174     -1.0359      1.8503      8.7440       59.04
        70        -5.0041      7.4898      5.8188      2.7681       75.80
        71       -32.4627    -11.2583     -3.6655    -15.7955      157.89
        72       -10.9676      6.0826      0.4692     -1.4720      116.91
        73         1.3645     16.2065      7.8187      8.4632       43.78
        74        -7.4629     -0.5792     -0.9502     -2.9974      143.89
        75         2.8173     -0.3186     -1.1436      0.4517       81.84
        76         0.6154     -3.4006     -2.9218     -1.9024      108.40
        77        -0.6935      3.4097      0.2836      1.0000       80.22
        78        -2.5990      2.7137      3.5089      1.2079       71.91
        79       -24.6966     -1.0132      2.9312     -7.5929      144.59
        80        -8.7632      0.3435      0.8183     -2.5338      108.33
        81       -12.5732     -2.1335      6.2615     -2.8151       98.17
        82         0.8880      1.3356      2.1579      1.4605       75.11
        83        11.0525     -8.7068     -1.2730      0.3576       88.29
        84       -30.8283      1.9916      7.3365     -7.1667      114.29
        85        -4.6179     -1.6218     -0.5565     -2.2654      150.16
        86       -11.4384     -0.8832      4.6376     -2.5614      138.01
        87        -3.0740     -4.4990     -6.2483     -4.6071      136.79
        88        17.3060     -1.4801      1.3891      5.7383       58.27
        89        -6.7073     -8.5264     -2.1127     -5.7822      126.49
        90       -25.8129     -3.2438     -8.0282    -12.3617      171.14
        91       -12.4121     -1.7124     -2.9214     -5.6820      167.62
        92       -15.3652      0.1241      0.4768     -4.9214      109.41
        93        10.2695     -3.9429     -5.8040      0.1742       88.47
        94         0.8580      1.6230     -1.8383      0.2143       82.77
        95        -5.0851      1.3317     -1.4414     -1.7316      106.48
        96         2.3660      0.3330     -1.0205      0.5595       85.51
        97         1.3408      2.4908      0.7942      1.5420       73.22
        98       -33.2269    -11.3509     -5.0956    -16.5578      122.85
        99         3.8196     -4.0993      9.5603      3.0935       65.35
       100       -35.3702      5.0711     -0.4710    -10.2567      115.23
 1/2[<0|r|b>*<b|rxdel|0> + (<0|rxdel|b>*<b|r|0>)*]
 Rotatory Strengths (R) in cgs (10**-40 erg-esu-cm/Gauss)
       state          XX          YY          ZZ     R(length)
         1        12.1314      7.2099     -1.6559      5.8951
         2         2.2155      8.1715      1.5639      3.9836
         3        64.9036     25.6070    -41.1873     16.4411
         4        12.1221      0.4835     -0.8834      3.9074
         5         4.2900     -1.7198      0.1048      0.8917
         6         5.6490    -16.0536      0.8487     -3.1853
         7         2.4009     22.8414      2.2916      9.1780
         8        -5.3611      0.0802      1.1074     -1.3912
         9        -0.6821     19.6316     -4.4573      4.8307
        10         0.0898     -1.4685    -18.1938     -6.5242
        11       -57.2361    157.8599    -58.8000     13.9413
        12        13.3323     42.0954      1.2256     18.8844
        13         0.8119      3.0204     -0.6899      1.0474
        14        78.6709    -48.0617     41.0217     23.8770
        15        -0.9565      0.1702     -4.8171     -1.8678
[...]
    17  N   -0.005475   0.000919   0.000071   0.009008   7.128053   0.049310
    18  S   -0.015698   0.001479  -0.000538   0.011378   0.049310  15.843935
    19  C   -0.007901   0.000169  -0.000008  -0.003416  -0.040409  -0.002866
    20  C    0.005551  -0.000492   0.000008   0.006092  -0.061996   0.035767
    21  C   -0.004181  -0.003438   0.000064   0.024691   0.056499  -0.012082
    22  C   -0.121046   0.007413  -0.000875  -0.083797  -0.207881  -0.123682
    23  S   -0.042878   0.001170  -0.000004  -0.005474   0.016495  -0.011211
    24  H   -0.000022   0.000021  -0.000001   0.000016   0.002806  -0.000195
    25  H    0.000703  -0.000317   0.000023   0.002243  -0.025780  -0.008165
    26  C    0.053335   0.006303   0.000222   0.000217   0.000001   0.000005
    27  C   -0.457298  -0.007968  -0.011631  -0.000203  -0.000003  -0.000048
    28  C   -1.131780   0.017829   0.077848   0.002892  -0.000068  -0.000693
    29  C    1.641875   0.006299  -0.092052   0.004815  -0.000291  -0.000603
    30  S    0.199657  -0.004308  -0.005026  -0.000777  -0.000014   0.000280
    31  H   -0.001474   0.000220   0.000348   0.000008   0.000000   0.000000
    32  H    0.002142  -0.000099  -0.000207  -0.000002   0.000000   0.000000
    33  H    0.013447   0.000697  -0.001559   0.000430  -0.000011  -0.000037
    34  C   -0.000226  -0.000011   0.000000  -0.000102  -0.003122  -0.000243
    35  C   -0.000390   0.000006   0.000000  -0.000015  -0.000340  -0.000260
    36  C    0.000041  -0.000001   0.000000   0.000000   0.000004   0.000184
    37  C   -0.000013   0.000000   0.000000   0.000000  -0.000069  -0.000047
    38  S    0.000063  -0.000002   0.000000   0.000004   0.000764   0.000198
    39  H   -0.000127   0.000002   0.000000  -0.000019  -0.000304  -0.000108
    40  H    0.000002   0.000000   0.000000   0.000000   0.000013   0.000002
    41  H    0.000000   0.000000   0.000000   0.000000  -0.000002  -0.000001
              19         20         21         22         23         24
     1  C   -0.416506   0.592050  -0.093351  -3.806502  -1.273653   0.005133
     2  C   -1.055944   0.716741  -1.350003  -3.001826  -0.497708   0.005061
     3  C    0.591335  -1.260621  -0.617603   6.818510   2.123589  -0.008441
     4  C   -0.975020   0.870447   0.696049  -3.195679  -1.303983   0.027426
     5  C   -0.032952   0.243054   0.025650  -1.430608  -0.075595   0.000698
     6  C   -0.122552  -0.133075  -0.939380  -0.856033  -0.433464  -0.000105
     7  H    0.024741  -0.015205   0.016258   0.132746   0.085634  -0.000241
     8  H   -0.168906   0.155233  -0.010758  -0.426468  -0.255738   0.002402
     9  C   -0.014846   0.026855  -0.080293  -0.714215  -0.056016  -0.000673
    10  C    0.011599  -0.005191  -0.046573   0.123115   0.029766   0.000111
    11  C    0.001195  -0.000305  -0.003233   0.031091   0.005746   0.000011
    12  C   -0.000486   0.000825   0.003548  -0.024455  -0.005581  -0.000010
    13  S   -0.007901   0.005551  -0.004181  -0.121046  -0.042878  -0.000022
    14  H    0.000169  -0.000492  -0.003438   0.007413   0.001170   0.000021
    15  H   -0.000008   0.000008   0.000064  -0.000875  -0.000004  -0.000001
    16  N   -0.003416   0.006092   0.024691  -0.083797  -0.005474   0.000016
    17  N   -0.040409  -0.061996   0.056499  -0.207881   0.016495   0.002806
    18  S   -0.002866   0.035767  -0.012082  -0.123682  -0.011211  -0.000195
    19  C   15.332556  -1.498376  -5.530900  -0.080456   2.280231  -0.325411
    20  C   -1.498376  14.467270   0.720759  -5.356215  -3.058246   0.421043
    21  C   -5.530900   0.720759  15.560631  -1.238427  -2.461613   0.174309
    22  C   -0.080456  -5.356215  -1.238427  18.290828   1.485457  -0.046996
    23  S    2.280231  -3.058246  -2.461613   1.485457  20.234408  -0.022686
    24  H   -0.325411   0.421043   0.174309  -0.046996  -0.022686   0.575559
    25  H   -0.028571   0.019472   0.416494  -0.116474   0.016703  -0.024744
    26  C    0.000000   0.000000  -0.000001   0.000013   0.000001   0.000000
    27  C   -0.000001   0.000000  -0.000005  -0.000093  -0.000019   0.000000
    28  C   -0.000009   0.000004  -0.000036  -0.001388  -0.000208   0.000000
    29  C    0.000048  -0.000026  -0.000640   0.002289  -0.000014   0.000001
    30  S    0.000001   0.000000  -0.000013   0.000165   0.000006   0.000000
    31  H    0.000000   0.000000   0.000000   0.000000   0.000000   0.000000
    32  H    0.000000   0.000000   0.000000   0.000001   0.000001   0.000000
    33  H   -0.000007   0.000002  -0.000022  -0.000282  -0.000063   0.000000
    34  C    1.274366  -1.229383  -0.697590   0.597254   0.768092  -0.068892
    35  C   -5.131529   0.681669   1.937318  -1.612868  -0.639362   0.137856
    36  C    2.019718  -0.310054  -0.659434   0.363879   0.031687  -0.060688
    37  C   -1.190587  -0.146530   0.243053  -0.132337   0.016094   0.030634
    38  S    1.611027  -0.099476  -0.507671   0.370639   0.172595  -0.033148
    39  H   -0.131757   0.026184   0.075314  -0.090222  -0.005235   0.000664
    40  H    0.042216  -0.000157  -0.005498   0.008144   0.001825  -0.000969
    41  H   -0.042164  -0.004783   0.006004  -0.002358  -0.001128   0.001154
              25         26         27         28         29         30
     1  C    0.012431  -0.003319  -0.042018  -0.360961  -0.195363   0.010695
     2  C    0.013202   0.000124  -0.013258  -0.094195  -0.036149   0.004012
     3  C   -0.037423  -0.000256  -0.000108  -0.017630  -0.024100  -0.000562
     4  C    0.030920   0.000058  -0.000981  -0.005093  -0.000167   0.001522
     5  C   -0.001091  -0.000940  -0.014474  -0.178690  -0.057102   0.020127
     6  C   -0.023881  -0.023577   0.024216  -0.108717  -0.273593   0.001386
     7  H    0.000334  -0.000342  -0.013377  -0.056292  -0.022816  -0.000434
     8  H   -0.002651   0.000005   0.000419   0.003953   0.001718   0.000057
     9  C    0.001365  -0.127434   0.039568  -1.970626   0.297788   0.311337
    10  C   -0.002961   0.011235  -0.104234   1.480660  -0.804348  -0.689635
    11  C   -0.000348  -0.428003   0.308741   0.156465  -0.893786  -0.306504
    12  C    0.000003  -0.425985   0.657160  -2.689181   0.216737   1.721492
    13  S    0.000703   0.053335  -0.457298  -1.131780   1.641875   0.199657
    14  H   -0.000317   0.006303  -0.007968   0.017829   0.006299  -0.004308
    15  H    0.000023   0.000222  -0.011631   0.077848  -0.092052  -0.005026
    16  N    0.002243   0.000217  -0.000203   0.002892   0.004815  -0.000777
    17  N   -0.025780   0.000001  -0.000003  -0.000068  -0.000291  -0.000014
    18  S   -0.008165   0.000005  -0.000048  -0.000693  -0.000603   0.000280
    19  C   -0.028571   0.000000  -0.000001  -0.000009   0.000048   0.000001
    20  C    0.019472   0.000000   0.000000   0.000004  -0.000026   0.000000
    21  C    0.416494  -0.000001  -0.000005  -0.000036  -0.000640  -0.000013
    22  C   -0.116474   0.000013  -0.000093  -0.001388   0.002289   0.000165
    23  S    0.016703   0.000001  -0.000019  -0.000208  -0.000014   0.000006
    24  H   -0.024744   0.000000   0.000000   0.000000   0.000001   0.000000
    25  H    0.531821   0.000000   0.000000   0.000008  -0.000017  -0.000002
    26  C    0.000000   7.308867  -2.110383   4.805810  -2.612052  -1.019901
    27  C    0.000000  -2.110383  11.646773  -8.598867   3.721723   1.697333
    28  C    0.000008   4.805810  -8.598867  28.988661 -11.933810  -5.327452
    29  C   -0.000017  -2.612052   3.721723 -11.933810  16.141608   1.882632
    30  S   -0.000002  -1.019901   1.697333  -5.327452   1.882632  18.296143
    31  H    0.000000   0.383327  -0.056797   0.125215  -0.064852  -0.084241
    32  H    0.000000  -0.147521   0.543352  -0.329040   0.168796   0.077844
    33  H    0.000002   0.091479  -0.316491   0.866136  -0.222570  -0.065278
    34  C   -0.008246   0.000000   0.000000   0.000000  -0.000004   0.000000
    35  C   -0.002712   0.000000   0.000000   0.000000   0.000000   0.000000
    36  C    0.001068   0.000000   0.000000   0.000000   0.000000   0.000000
    37  C   -0.000436   0.000000   0.000000   0.000000   0.000000   0.000000
    38  S    0.000021   0.000000   0.000000   0.000000   0.000000   0.000000
    39  H   -0.000156   0.000000   0.000000   0.000000   0.000001   0.000000
    40  H    0.000030   0.000000   0.000000   0.000000   0.000000   0.000000
    41  H    0.000035   0.000000   0.000000   0.000000   0.000000   0.000000
              31         32         33         34         35         36
     1  C   -0.000182   0.000055  -0.035776  -0.074332  -0.008600   0.009306
     2  C   -0.000010   0.000073  -0.015339  -0.094971  -0.141496   0.027264
     3  C   -0.000005   0.000017  -0.003074  -0.210210  -0.042097  -0.016204
     4  C   -0.000002   0.000006  -0.000644   0.006382  -0.051349   0.012076
     5  C   -0.000049   0.000101  -0.014823  -0.019848  -0.010454   0.001399
     6  C   -0.000552   0.000504   0.010984  -0.017140  -0.007277  -0.001044
     7  H   -0.000011   0.000166  -0.008984   0.001954   0.003741  -0.000304
     8  H    0.000000  -0.000012   0.001045  -0.012905  -0.050297   0.012524
     9  C   -0.002239   0.004851  -0.057796  -0.001777  -0.000670   0.000116
    10  C    0.003952  -0.002925   0.059613  -0.000738   0.000164  -0.000025
    11  C   -0.003319  -0.000231   0.006311  -0.000048   0.000012  -0.000001
    12  C   -0.016726   0.007998  -0.066279   0.000011  -0.000015   0.000001
    13  S   -0.001474   0.002142   0.013447  -0.000226  -0.000390   0.000041
    14  H    0.000220  -0.000099   0.000697  -0.000011   0.000006  -0.000001
    15  H    0.000348  -0.000207  -0.001559   0.000000   0.000000   0.000000
    16  N    0.000008  -0.000002   0.000430  -0.000102  -0.000015   0.000000
    17  N    0.000000   0.000000  -0.000011  -0.003122  -0.000340   0.000004
    18  S    0.000000   0.000000  -0.000037  -0.000243  -0.000260   0.000184
    19  C    0.000000   0.000000  -0.000007   1.274366  -5.131529   2.019718
    20  C    0.000000   0.000000   0.000002  -1.229383   0.681669  -0.310054
    21  C    0.000000   0.000000  -0.000022  -0.697590   1.937318  -0.659434
    22  C    0.000000   0.000001  -0.000282   0.597254  -1.612868   0.363879
    23  S    0.000000   0.000001  -0.000063   0.768092  -0.639362   0.031687
    24  H    0.000000   0.000000   0.000000  -0.068892   0.137856  -0.060688
    25  H    0.000000   0.000000   0.000002  -0.008246  -0.002712   0.001068
    26  C    0.383327  -0.147521   0.091479   0.000000   0.000000   0.000000
    27  C   -0.056797   0.543352  -0.316491   0.000000   0.000000   0.000000
    28  C    0.125215  -0.329040   0.866136   0.000000   0.000000   0.000000
    29  C   -0.064852   0.168796  -0.222570  -0.000004   0.000000   0.000000
    30  S   -0.084241   0.077844  -0.065278   0.000000   0.000000   0.000000
    31  H    0.417100  -0.014147   0.004411   0.000000   0.000000   0.000000
    32  H   -0.014147   0.499480  -0.018088   0.000000   0.000000   0.000000
    33  H    0.004411  -0.018088   0.543220   0.000000   0.000000   0.000000
    34  C    0.000000   0.000000   0.000000  16.155045 -14.504880   6.886625
    35  C    0.000000   0.000000   0.000000 -14.504880  35.886106 -14.574618
    36  C    0.000000   0.000000   0.000000   6.886625 -14.574618  14.666047
    37  C    0.000000   0.000000   0.000000  -3.743928   7.448428  -4.053973
    38  S    0.000000   0.000000   0.000000   2.125364  -6.033163   2.589757
    39  H    0.000000   0.000000   0.000000  -0.580597   1.429857  -0.608540
    40  H    0.000000   0.000000   0.000000   0.291933  -0.590267   0.751159
    41  H    0.000000   0.000000   0.000000  -0.122080   0.267836  -0.197896
              37         38         39         40         41
     1  C   -0.002123   0.002840  -0.004969   0.000213  -0.000033
     2  C   -0.007721   0.023303  -0.012534   0.000319  -0.000148
     3  C   -0.015981   0.002415   0.002279   0.000562  -0.000481
     4  C   -0.002113   0.007776  -0.005917   0.000152   0.000009
     5  C   -0.000751   0.002088  -0.001511   0.000035  -0.000013
     6  C    0.000015   0.001179   0.000329   0.000002  -0.000003
     7  H    0.000173  -0.000350   0.000787  -0.000026   0.000003
     8  H   -0.004999   0.005179  -0.009576   0.000579  -0.000079
     9  C   -0.000039   0.000228  -0.000173   0.000004  -0.000001
    10  C    0.000003  -0.000032   0.000050   0.000000   0.000000
    11  C    0.000000  -0.000002   0.000003   0.000000   0.000000
    12  C    0.000000   0.000002  -0.000008   0.000000   0.000000
    13  S   -0.000013   0.000063  -0.000127   0.000002   0.000000
    14  H    0.000000  -0.000002   0.000002   0.000000   0.000000
    15  H    0.000000   0.000000   0.000000   0.000000   0.000000
    16  N    0.000000   0.000004  -0.000019   0.000000   0.000000
    17  N   -0.000069   0.000764  -0.000304   0.000013  -0.000002
    18  S   -0.000047   0.000198  -0.000108   0.000002  -0.000001
    19  C   -1.190587   1.611027  -0.131757   0.042216  -0.042164
    20  C   -0.146530  -0.099476   0.026184  -0.000157  -0.004783
    21  C    0.243053  -0.507671   0.075314  -0.005498   0.006004
    22  C   -0.132337   0.370639  -0.090222   0.008144  -0.002358
    23  S    0.016094   0.172595  -0.005235   0.001825  -0.001128
    24  H    0.030634  -0.033148   0.000664  -0.000969   0.001154
    25  H   -0.000436   0.000021  -0.000156   0.000030   0.000035
    26  C    0.000000   0.000000   0.000000   0.000000   0.000000
    27  C    0.000000   0.000000   0.000000   0.000000   0.000000
    28  C    0.000000   0.000000   0.000000   0.000000   0.000000
    29  C    0.000000   0.000000   0.000001   0.000000   0.000000
    30  S    0.000000   0.000000   0.000000   0.000000   0.000000
    31  H    0.000000   0.000000   0.000000   0.000000   0.000000
    32  H    0.000000   0.000000   0.000000   0.000000   0.000000
    33  H    0.000000   0.000000   0.000000   0.000000   0.000000
    34  C   -3.743928   2.125364  -0.580597   0.291933  -0.122080
    35  C    7.448428  -6.033163   1.429857  -0.590267   0.267836
    36  C   -4.053973   2.589757  -0.608540   0.751159  -0.197896
    37  C    8.428358  -1.607228   0.234888  -0.271570   0.486631
    38  S   -1.607228  18.026798  -0.102773   0.106648  -0.117910
    39  H    0.234888  -0.102773   0.591154  -0.035674   0.007855
    40  H   -0.271570   0.106648  -0.035674   0.517663  -0.021271
    41  H    0.486631  -0.117910   0.007855  -0.021271   0.425382
 Mulliken charges:
               1
     1  C   -0.954524
     2  C   -0.895844
     3  C    0.860891
     4  C   -0.402925
     5  C   -0.335617
     6  C    0.716532
     7  H    0.163984
     8  H    0.108658
     9  C    0.100263
    10  C    0.272075
    11  C    0.369533
    12  C   -0.595152
    13  S   -1.552791
    14  H    0.272197
    15  H    0.191160
    16  N    0.042295
    17  N   -0.017883
    18  S    0.492359
    19  C   -0.387623
    20  C    0.191105
    21  C    0.306104
    22  C    0.439640
    23  S   -1.119622
    24  H    0.208320
    25  H    0.237099
    26  C    0.238713
    27  C   -0.891026
    28  C    2.279256
    29  C   -0.851973
    30  S   -0.720541
    31  H    0.310024
    32  H    0.206886
    33  H    0.229346
    34  C   -0.715754
    35  C    1.609668
    36  C   -0.890074
    37  C    0.292166
    38  S   -0.547133
    39  H    0.220835
    40  H    0.203932
    41  H    0.315440
 Sum of Mulliken charges =   0.00000
 Mulliken charges with hydrogens summed into heavy atoms:
               1
     1  C   -0.790540
     2  C   -0.787186
     3  C    0.860891
     4  C   -0.402925
     5  C   -0.335617
     6  C    0.716532
     9  C    0.100263
    10  C    0.544272
    11  C    0.560693
    12  C   -0.595152
    13  S   -1.552791
    16  N    0.042295
    17  N   -0.017883
    18  S    0.492359
    19  C   -0.387623
    20  C    0.399425
    21  C    0.543203
    22  C    0.439640
    23  S   -1.119622
    26  C    0.548737
    27  C   -0.684140
    28  C    2.508602
    29  C   -0.851973
    30  S   -0.720541
    34  C   -0.715754
    35  C    1.830503
    36  C   -0.686141
    37  C    0.607606
    38  S   -0.547133
 Electronic spatial extent (au):  <R**2>=          28494.6858
 Charge=              0.0000 electrons
 Dipole moment (field-independent basis, Debye):
    X=             -0.1041    Y=             -1.5843    Z=              0.0398  Tot=              1.5883
 Quadrupole moment (field-independent basis, Debye-Ang):
   XX=           -161.8182   YY=           -185.7997   ZZ=           -209.8685
   XY=             -0.0995   XZ=              2.8867   YZ=             -3.6687
 Traceless Quadrupole moment (field-independent basis, Debye-Ang):
   XX=             24.0106   YY=              0.0291   ZZ=            -24.0397
   XY=             -0.0995   XZ=              2.8867   YZ=             -3.6687
 Octapole moment (field-independent basis, Debye-Ang**2):
  XXX=            -16.5215  YYY=             14.4326  ZZZ=              1.5349  XYY=            -28.5721
  XXY=           -155.0219  XXZ=            -34.9368  XZZ=             34.3545  YZZ=              2.5810
  YYZ=              1.5277  XYZ=            -46.4815
 Hexadecapole moment (field-independent basis, Debye-Ang**3):
 XXXX=         -29550.3027 YYYY=          -3754.9569 ZZZZ=           -529.5536 XXXY=           -227.6894
 XXXZ=            107.9759 YYYX=            145.5806 YYYZ=            -23.9139 ZZZX=             -9.1903
 ZZZY=            -19.4795 XXYY=          -5959.2494 XXZZ=          -6272.5913 YYZZ=           -776.4116
 XXYZ=            -65.7758 YYXZ=            107.2413 ZZXY=            -70.9508
 N-N= 3.017335447849D+03 E-N=-1.296718647542D+04  KE= 2.920480715845D+03
 1\1\GINC-LEWIS4-R630-HPC3-NODE244\SP\RSVWN TD-FC\6-311++G(d,p)\C22H12N
 2S5\EPLUHAR\10-Nov-2016\0\\# td=(nstates=100) density=scf svwn/6-311++
 G** geom=allcheck\\BT1\\0,1\C,0.6925106937,-0.6961749685,-0.3675880814
 \C,-0.723080735,-0.6845226934,-0.3179881414\C,-1.481529338,0.466799820
 4,-0.1714315245\C,-0.7246729699,1.7033109071,-0.1122885887\C,0.7466075
 191,1.6931631419,-0.1801602358\C,1.4785949469,0.4425447762,-0.28141729
 5\H,1.1755561209,-1.6589143495,-0.4621518198\H,-1.2281112851,-1.639220
 4406,-0.3695062855\C,2.9250207608,0.3974932804,-0.2582166984\C,3.85372
 3232,1.4113960965,-0.3272212318\C,5.2081830123,0.9984061516,-0.2267298
 236\C,5.3986080696,-0.3543402829,-0.0656781922\S,3.7884578279,-1.21088
 90557,-0.0530707733\H,3.5522968977,2.4394523221,-0.4361666271\H,6.0327
 089253,1.6955156919,-0.2605176389\N,1.3248033968,2.891502408,-0.133367
 0743\N,-1.2818475922,2.908939525,-0.0075698217\S,0.031030435,4.1081132
 203,0.0043693974\C,-5.4199832753,-0.2507836285,0.0101030731\C,-5.16049
 17539,1.0215528261,0.4551297569\C,-3.7932423185,1.408464521,0.41398825
 88\C,-2.9264188228,0.4459589529,-0.0540227525\S,-3.8669602784,-1.06373
 22404,-0.4971562106\H,-5.9475682726,1.6815021291,0.7921651537\H,-3.442
 6783715,2.3821779941,0.7119691296\C,9.0517713809,-1.8137804566,0.42256
 52683\C,8.1615629463,-2.8415419585,0.4937258941\C,6.7961130796,-2.4454
 574408,0.3233991383\C,6.6102500015,-1.1001554103,0.1147705695\S,8.2295
 288493,-0.2385602626,0.123827647\H,10.1224407168,-1.8289867514,0.51774
 46278\H,8.4613210613,-3.8640836369,0.6691366594\H,5.97175806,-3.143598
 677,0.3589859637\C,-6.666138775,-0.9631861582,-0.081375393\C,-7.085563
 2813,-1.9000799342,-0.9927483414\C,-8.408839098,-2.3988052425,-0.77118
 28963\C,-9.0264417823,-1.8669041299,0.3178817326\S,-7.9743074817,-0.67
 7671584,1.1687607422\H,-6.4692150693,-2.2050125563,-1.8279198497\H,-8.
 8803318205,-3.1269486926,-1.4149416413\H,-10.0121181848,-2.0512868252,
 0.6989807816\\Version=ES64L-G09RevD.01\State=1-A\HF=-2935.6792198\RMSD
 =6.725e-09\PG=C01 [X(C22H12N2S5)]\\@


 TO DRY ONE'S EYES AND LAUGH AT A FALL
 AND BAFFLED, GET UP AND BEGIN AGAIN.
           R. BROWNING
 Job cpu time:       1 days  5 hours  4 minutes 23.8 seconds.
 File lengths (MBytes):  RWF=   7992 Int=      0 D2E=      0 Chk=   1689 Scr=      1
 Normal termination of Gaussian 09 at Thu Nov 10 13:51:56 2016.
