 Entering Gaussian System, Link 0=g09
 Initial command:
 /cluster/software/gaussian/gaussian-09-D.01/g09/l1.exe "/local/scratch/epluhar/Gau-123449.inp" -scrdir="/local/scratch/epluhar/"
 Entering Link 1 = /cluster/software/gaussian/gaussian-09-D.01/g09/l1.exe PID=    123450.
  
 Copyright (c) 1988,1990,1992,1993,1995,1998,2003,2009,2013,
            Gaussian, Inc.  All Rights Reserved.
  
 This is part of the Gaussian(R) 09 program.  It is based on
 the Gaussian(R) 03 system (copyright 2003, Gaussian, Inc.),
 the Gaussian(R) 98 system (copyright 1998, Gaussian, Inc.),
 the Gaussian(R) 94 system (copyright 1995, Gaussian, Inc.),
 the Gaussian 92(TM) system (copyright 1992, Gaussian, Inc.),
 the Gaussian 90(TM) system (copyright 1990, Gaussian, Inc.),
 the Gaussian 88(TM) system (copyright 1988, Gaussian, Inc.),
 the Gaussian 86(TM) system (copyright 1986, Carnegie Mellon
 University), and the Gaussian 82(TM) system (copyright 1983,
 Carnegie Mellon University). Gaussian is a federally registered
 trademark of Gaussian, Inc.
  
 This software contains proprietary and confidential information,
 including trade secrets, belonging to Gaussian, Inc.
  
 This software is provided under written license and may be
 used, copied, transmitted, or stored only in accord with that
 written license.
  
 The following legend is applicable only to US Government
 contracts under FAR:
  
                    RESTRICTED RIGHTS LEGEND
  
 Use, reproduction and disclosure by the US Government is
 subject to restrictions as set forth in subparagraphs (a)
 and (c) of the Commercial Computer Software - Restricted
 Rights clause in FAR 52.227-19.
  
 Gaussian, Inc.
 340 Quinnipiac St., Bldg. 40, Wallingford CT 06492
  
  
 ---------------------------------------------------------------
 Warning -- This program may not be used in any manner that
 competes with the business of Gaussian, Inc. or will provide
 assistance to any competitor of Gaussian, Inc.  The licensee
 of this program is prohibited from giving any competitor of
 Gaussian, Inc. access to this program.  By using this program,
 the user acknowledges that Gaussian, Inc. is engaged in the
 business of creating and licensing software in the field of
 computational chemistry and represents and warrants to the
 licensee that it is not a competitor of Gaussian, Inc. and that
 it will not use this program in any manner prohibited above.
 ---------------------------------------------------------------
  

 Cite this work as:
 Gaussian 09, Revision D.01,
 M. J. Frisch, G. W. Trucks, H. B. Schlegel, G. E. Scuseria, 
 M. A. Robb, J. R. Cheeseman, G. Scalmani, V. Barone, B. Mennucci, 
 G. A. Petersson, H. Nakatsuji, M. Caricato, X. Li, H. P. Hratchian, 
 A. F. Izmaylov, J. Bloino, G. Zheng, J. L. Sonnenberg, M. Hada, 
 M. Ehara, K. Toyota, R. Fukuda, J. Hasegawa, M. Ishida, T. Nakajima, 
 Y. Honda, O. Kitao, H. Nakai, T. Vreven, J. A. Montgomery, Jr., 
 J. E. Peralta, F. Ogliaro, M. Bearpark, J. J. Heyd, E. Brothers, 
 K. N. Kudin, V. N. Staroverov, T. Keith, R. Kobayashi, J. Normand, 
 K. Raghavachari, A. Rendell, J. C. Burant, S. S. Iyengar, J. Tomasi, 
 M. Cossi, N. Rega, J. M. Millam, M. Klene, J. E. Knox, J. B. Cross, 
 V. Bakken, C. Adamo, J. Jaramillo, R. Gomperts, R. E. Stratmann, 
 O. Yazyev, A. J. Austin, R. Cammi, C. Pomelli, J. W. Ochterski, 
 R. L. Martin, K. Morokuma, V. G. Zakrzewski, G. A. Voth, 
 P. Salvador, J. J. Dannenberg, S. Dapprich, A. D. Daniels, 
 O. Farkas, J. B. Foresman, J. V. Ortiz, J. Cioslowski, 
 and D. J. Fox, Gaussian, Inc., Wallingford CT, 2013.
 
 ******************************************
 Gaussian 09:  ES64L-G09RevD.01 24-Apr-2013
                10-Nov-2016 
 ******************************************
 %nprocshared=24
 Will use up to   24 processors via shared memory.
 %mem=80GB
 %oldchk=BT1
 %chk=bt1-td
 Copying data from "BT1.chk" to current chk file "bt1-td.chk".
 -------------------------------------------------------------
 # td=(nstates=100) density=scf b3lyp/6-311++G** geom=allcheck
 -------------------------------------------------------------
 1/29=7,38=1/1;
 2/12=2,40=1/2;
 3/5=4,6=6,7=1111,11=9,14=-4,16=1,25=1,30=1,74=-5/1,2,8,3;
 4//1;
 5/5=2,38=5/2;
 8/6=1,10=2,108=100/1;
 9/41=100,42=1,70=2/14;
 6/7=2,8=2,9=2,10=2/1;
 99/5=1,9=1/99;
 Structure from the checkpoint file:  "bt1-td.chk"
 ---
 BT1
 ---
 Charge =  0 Multiplicity = 1
 No Z-Matrix found in file; cartesian coordinates used.
  C                                                 0.692510693658     -0.696174968455     -0.367588081414
  C                                                -0.723080734996     -0.684522693419     -0.317988141383
  C                                                -1.481529337957      0.466799820406     -0.171431524476
  C                                                -0.724672969878      1.703310907056     -0.112288588672
  C                                                 0.746607519097      1.693163141872     -0.180160235835
  C                                                 1.478594946920      0.442544776190     -0.281417295001
  H                                                 1.175556120891     -1.658914349492     -0.462151819773
  H                                                -1.228111285113     -1.639220440626     -0.369506285540
  C                                                 2.925020760764      0.397493280355     -0.258216698358
  C                                                 3.853723232046      1.411396096517     -0.327221231751
  C                                                 5.208183012311      0.998406151590     -0.226729823627
  C                                                 5.398608069570     -0.354340282854     -0.065678192203
  S                                                 3.788457827857     -1.210889055717     -0.053070773252
  H                                                 3.552296897723      2.439452322097     -0.436166627060
  H                                                 6.032708925267      1.695515691893     -0.260517638931
  N                                                 1.324803396810      2.891502407987     -0.133367074298
  N                                                -1.281847592199      2.908939525000     -0.007569821737
  S                                                 0.031030434980      4.108113220318      0.004369397428
  C                                                -5.419983275287     -0.250783628484      0.010103073115
  C                                                -5.160491753886      1.021552826125      0.455129756949
  C                                                -3.793242318533      1.408464521029      0.413988258832
  C                                                -2.926418822811      0.445958952872     -0.054022752492
  S                                                -3.866960278378     -1.063732240391     -0.497156210627
  H                                                -5.947568272603      1.681502129057      0.792165153688
  H                                                -3.442678371528      2.382177994100      0.711969129640
  C                                                 9.051771380872     -1.813780456570      0.422565268251
  C                                                 8.161562946275     -2.841541958516      0.493725894132
  C                                                 6.796113079606     -2.445457440826      0.323399138328
  C                                                 6.610250001519     -1.100155410332      0.114770569471
  S                                                 8.229528849336     -0.238560262558      0.123827646985
  H                                                10.122440716807     -1.828986751410      0.517744627831
  H                                                 8.461321061339     -3.864083636866      0.669136659381
  H                                                 5.971758060021     -3.143598677041      0.358985963713
  C                                                -6.666138775039     -0.963186158226     -0.081375393048
  C                                                -7.085563281325     -1.900079934215     -0.992748341399
  C                                                -8.408839098013     -2.398805242488     -0.771182896338
  C                                                -9.026441782338     -1.866904129866      0.317881732619
  S                                                -7.974307481665     -0.677671583968      1.168760742246
  H                                                -6.469215069284     -2.205012556307     -1.827919849677
  H                                                -8.880331820540     -3.126948692632     -1.414941641290
  H                                               -10.012118184779     -2.051286825211      0.698980781581
 Recover connectivity data from disk.
                          Input orientation:                          
 ---------------------------------------------------------------------
 Center     Atomic      Atomic             Coordinates (Angstroms)
 Number     Number       Type             X           Y           Z
 ---------------------------------------------------------------------
      1          6           0        0.692511   -0.696175   -0.367588
      2          6           0       -0.723081   -0.684523   -0.317988
      3          6           0       -1.481529    0.466800   -0.171432
      4          6           0       -0.724673    1.703311   -0.112289
      5          6           0        0.746608    1.693163   -0.180160
      6          6           0        1.478595    0.442545   -0.281417
      7          1           0        1.175556   -1.658914   -0.462152
      8          1           0       -1.228111   -1.639220   -0.369506
      9          6           0        2.925021    0.397493   -0.258217
     10          6           0        3.853723    1.411396   -0.327221
     11          6           0        5.208183    0.998406   -0.226730
     12          6           0        5.398608   -0.354340   -0.065678
     13         16           0        3.788458   -1.210889   -0.053071
     14          1           0        3.552297    2.439452   -0.436167
     15          1           0        6.032709    1.695516   -0.260518
     16          7           0        1.324803    2.891502   -0.133367
     17          7           0       -1.281848    2.908940   -0.007570
     18         16           0        0.031030    4.108113    0.004369
     19          6           0       -5.419983   -0.250784    0.010103
     20          6           0       -5.160492    1.021553    0.455130
     21          6           0       -3.793242    1.408465    0.413988
     22          6           0       -2.926419    0.445959   -0.054023
     23         16           0       -3.866960   -1.063732   -0.497156
     24          1           0       -5.947568    1.681502    0.792165
     25          1           0       -3.442678    2.382178    0.711969
     26          6           0        9.051771   -1.813780    0.422565
     27          6           0        8.161563   -2.841542    0.493726
     28          6           0        6.796113   -2.445457    0.323399
     29          6           0        6.610250   -1.100155    0.114771
     30         16           0        8.229529   -0.238560    0.123828
     31          1           0       10.122441   -1.828987    0.517745
     32          1           0        8.461321   -3.864084    0.669137
     33          1           0        5.971758   -3.143599    0.358986
     34          6           0       -6.666139   -0.963186   -0.081375
     35          6           0       -7.085563   -1.900080   -0.992748
     36          6           0       -8.408839   -2.398805   -0.771183
     37          6           0       -9.026442   -1.866904    0.317882
     38         16           0       -7.974307   -0.677672    1.168761
     39          1           0       -6.469215   -2.205013   -1.827920
     40          1           0       -8.880332   -3.126949   -1.414942
     41          1           0      -10.012118   -2.051287    0.698981
 ---------------------------------------------------------------------
                    Distance matrix (angstroms):
                    1          2          3          4          5
     1  C    0.000000
     2  C    1.416508   0.000000
     3  C    2.473345   1.386458   0.000000
     4  C    2.798414   2.396678   1.450961   0.000000
     5  C    2.397289   2.798637   2.543352   1.472880   0.000000
     6  C    1.386375   2.473660   2.962266   2.544116   1.452620
     7  H    1.081269   2.138935   3.415155   3.877865   3.391156
     8  H    2.139656   1.081276   2.130440   3.390004   3.878163
     9  C    2.488408   3.805650   4.407950   3.879010   2.535811
    10  C    3.799572   5.033895   5.420466   4.592725   3.123330
    11  C    4.825219   6.166074   6.711029   5.975681   4.515585
    12  C    4.728145   6.135777   6.929772   6.459928   5.083944
    13  S    3.154162   4.549860   5.531854   5.372562   4.207437
    14  H    4.244436   5.296418   5.413026   4.351927   2.914512
    15  H    5.852296   7.163001   7.614556   6.759012   5.286713
    16  N    3.650491   4.125030   3.708926   2.369092   1.331359
    17  N    4.126082   3.649870   2.455763   1.332272   2.371187
    18  S    4.863856   4.862300   3.946886   2.523444   2.525487
    19  C    6.140326   4.728284   4.007406   5.087180   6.468537
    20  C    6.155087   4.816536   3.772942   4.523632   5.979003
    21  C    5.016209   3.787120   2.563877   3.127302   4.587407
    22  C    3.807814   2.490455   1.449802   2.536141   3.881050
    23  S    4.576097   3.171731   2.852877   4.204595   5.383862
    24  H    7.147659   5.841728   4.727528   5.300674   6.764432
    25  H    5.267019   4.226308   2.880135   2.920242   4.338289
    26  C    8.470574   9.867694  10.793716  10.403599   9.035357
    27  C    7.818645   9.178698  10.216496   9.999406   8.717754
    28  C    6.386816   7.749229   8.788940   8.600251   7.346991
    29  C    5.951093   7.357837   8.247069   7.855703   6.501686
    30  S    7.566871   8.974592   9.741117   9.165388   7.734215
    31  H    9.538902  10.937714  11.848954  11.425145  10.039864
    32  H    8.453689   9.769200  10.877655  10.769819   9.545737
    33  H    5.864149   7.164232   8.298663   8.279905   7.140528
    34  C    7.369052   5.954291   5.378954   6.512463   7.874945
    35  C    7.895483   6.512608   6.138557   7.363461   8.655322
    36  C    9.268031   7.887651   7.520573   8.735440  10.045681
    37  C    9.813181   8.411193   7.912731   9.047146  10.413194
    38  S    8.801957   7.402078   6.727711   7.737400   9.137549
    39  H    7.463208   6.132686   5.895723   7.156685   8.365344
    40  H    9.932015   8.585424   8.318872   9.567815  10.836795
    41  H   10.842646   9.443966   8.936964  10.050463  11.425584
                    6          7          8          9         10
     6  C    0.000000
     7  H    2.130875   0.000000
     8  H    3.415811   2.405533   0.000000
     9  C    1.447313   2.707587   4.626996   0.000000
    10  C    2.565542   4.076468   5.927317   1.376680   0.000000
    11  C    3.771180   4.835169   6.957251   2.361126   1.419585
    12  C    4.006004   4.437710   6.756970   2.592481   2.360699
    13  S    2.849816   2.682411   5.044756   1.836982   2.637385
    14  H    2.883024   4.737740   6.284291   2.143534   1.076860
    15  H    4.723381   5.906335   7.990735   3.367877   2.198443
    16  N    2.458244   4.564720   5.205822   2.965867   2.936619
    17  N    3.711891   5.206800   4.562855   4.905907   5.359002
    18  S    3.951393   5.897982   5.895512   4.713049   4.689906
    19  C    6.939457   6.760695   4.432116   8.374446   9.427527
    20  C    6.704866   6.940592   4.819062   8.140874   9.056496
    21  C    5.404522   5.904692   4.059821   6.827077   7.682804
    22  C    4.410880   4.628527   2.707721   5.855202   6.853979
    23  S    5.557911   5.077641   2.703887   6.951495   8.109506
    24  H    7.604965   7.966843   5.886421   9.026340   9.868703
    25  H    5.382186   6.247966   4.716518   6.740017   7.433694
    26  C    7.933448   7.927261  10.311830   6.549066   6.163088
    27  C    7.486530   7.149588   9.505616   6.203075   6.108921
    28  C    6.081312   5.729433   8.094338   4.837975   4.894516
    29  C    5.373153   5.493719   7.871787   3.995371   3.755221
    30  S    6.797296   7.219370   9.573515   5.356149   4.698242
    31  H    8.972992   9.001992  11.386758   7.573783   7.107100
    32  H    8.258878   7.695775   9.995694   7.047811   7.074841
    33  H    5.784380   5.087446   7.391344   4.711993   5.070003
    34  C    8.267574   7.881701   5.487457   9.688811  10.787334
    35  C    8.907227   8.281654   5.896289  10.297095  11.448877
    36  C   10.299247   9.617878   7.231954  11.684982  12.848547
    37  C   10.772581  10.233888   7.831877  12.177719  13.306467
    38  S    9.628877   9.345733   6.985843  11.044800  12.103903
    39  H    8.518739   7.784990   5.469576   9.873635  11.040542
    40  H   11.015150  10.207047   7.865288  12.374411  13.562296
    41  H   11.799020  11.254610   8.858343  13.201603  14.328462
                   11         12         13         14         15
    11  C    0.000000
    12  C    1.375544   0.000000
    13  S    2.631874   1.823847   0.000000
    14  H    2.205093   3.369184   3.677979   0.000000
    15  H    1.080253   2.154520   3.677891   2.595523   0.000000
    16  N    4.321246   5.209219   4.785985   2.292981   4.859108
    17  N    6.768949   7.435110   6.533227   4.875763   7.418835
    18  S    6.043723   6.980637   6.512553   3.921456   6.473866
    19  C   10.703947  10.819352   9.258573   9.377544  11.620046
    20  C   10.391096  10.661093   9.237195   8.872290  11.236286
    21  C    9.033511   9.371642   8.035007   7.466100   9.853257
    22  C    8.155168   8.363414   6.916265   6.789242   9.048204
    23  S    9.310412   9.302697   7.669700   8.204962  10.279732
    24  H   11.222992  11.559250  10.191690   9.608888  12.026445
    25  H    8.810981   9.287713   8.110780   7.088806   9.549880
    26  C    4.806574   3.964082   5.319039   7.005114   4.679370
    27  C    4.897623   3.759392   4.699156   7.070992   5.068116
    28  C    3.832018   2.545029   3.272901   5.912836   4.251047
    29  C    2.546836   1.434182   2.828947   4.709929   2.879266
    30  S    3.283521   2.839618   4.549706   5.418657   2.952014
    31  H    5.718245   4.982927   6.389618   7.892801   5.454697
    32  H    5.918555   4.715767   5.421870   8.065654   6.137716
    33  H    4.252330   2.879028   2.944819   6.136491   4.878988
    34  C   12.036133  12.080110  10.457569  10.775911  12.975420
    35  C   12.654019  12.613616  10.936284  11.502408  13.621804
    36  C   14.044955  13.975807  12.276029  12.906965  15.019406
    37  C   14.530353  14.509205  12.837041  13.316830  15.485587
    38  S   13.361687  13.433661  11.838067  12.048023  14.278353
    39  H   12.214226  12.139840  10.457448  11.132777  13.189730
    40  H   14.728091  14.608080  12.885038  13.656979  15.715840
    41  H   15.550406  15.522719  13.846579  14.333480  16.504413
                   16         17         18         19         20
    16  N    0.000000
    17  N    2.609743   0.000000
    18  S    1.781281   1.778148   0.000000
    19  C    7.442224   5.206566   6.979510   0.000000
    20  C    6.775108   4.338225   6.056562   1.372671   0.000000
    21  C    5.356621   2.955713   4.699037   2.358498   1.421536
    22  C    4.905086   2.961933   4.707578   2.589870   2.362547
    23  S    6.536867   4.764937   6.495679   1.824850   2.632202
    24  H    7.430215   4.890310   6.500208   2.150278   1.081025
    25  H    4.868561   2.337606   3.942867   3.366725   2.206388
    26  C    9.063928  11.369819  10.798957  14.561757  14.492363
    27  C    8.944402  11.067852  10.707135  13.834895  13.870910
    28  C    7.656827   9.697039   9.424299  12.415626  12.449816
    29  C    6.628035   8.852853   8.391924  12.060634  11.965277
    30  S    7.585425  10.019496   9.280260  13.649991  13.453263
    31  H   10.005268  12.360489  11.719611  15.630591  15.546624
    32  H    9.859606  11.885332  11.621860  14.359000  14.473045
    33  H    7.632761   9.454225   9.381115  11.758481  11.886325
    34  C    8.872231   6.632450   8.401042   1.438329   2.548333
    35  C    9.717616   7.601339   9.366885   2.549519   3.786580
    36  C   11.096754   8.919040  10.685170   3.762667   4.873854
    37  C   11.401506   9.104578  10.855272   3.963977   4.827794
    38  S   10.045298   7.683525   9.399201   2.837128   3.363657
    39  H    9.465342   7.508326   9.244784   2.880664   4.163628
    40  H   11.916752   9.805590  11.566025   4.719861   5.877452
    41  H   12.395554  10.065818  11.801929   4.980368   5.748051
                   21         22         23         24         25
    21  C    0.000000
    22  C    1.377256   0.000000
    23  S    2.635787   1.833072   0.000000
    24  H    2.204243   3.371935   3.677987   0.000000
    25  H    1.076943   2.145277   3.676452   2.602278   0.000000
    26  C   13.243010  12.198795  12.973129  15.405642  13.183364
    27  C   12.688037  11.578041  12.199501  14.819399  12.727659
    28  C   11.269222  10.150387  10.783488  13.403468  11.326513
    29  C   10.705856   9.662661  10.495128  12.880034  10.655734
    30  S   12.138530  11.178344  12.140493  14.322130  11.977253
    31  H   14.287690  13.258018  14.047027  16.451262  14.205073
    32  H   13.343133  12.197543  12.696012  15.439713  13.443319
    33  H   10.774021   9.603804  10.092532  12.866219  10.922015
    34  C    3.758144   3.996491   2.831675   2.876420   4.712914
    35  C    4.874910   4.866579   3.362216   4.160370   5.874896
    36  C    6.099481   6.218033   4.741959   5.015059   7.051262
    37  C    6.174435   6.534365   5.284848   4.721821   7.027689
    38  S    4.733176   5.314031   4.449115   3.132921   5.486985
    39  H    5.024361   4.767155   3.137703   4.716138   6.054195
    40  H    7.056446   7.075793   5.498462   6.049266   8.027596
    41  H    7.122185   7.550522   6.337900   5.519326   7.925485
                   26         27         28         29         30
    26  C    0.000000
    27  C    1.361554   0.000000
    28  C    2.344535   1.431903   0.000000
    29  C    2.562230   2.362754   1.374012   0.000000
    30  S    1.801845   2.630011   2.639111   1.834255   0.000000
    31  H    1.074999   2.207009   3.388549   3.609580   2.503546
    32  H    2.147830   1.079915   2.214713   3.372400   3.673623
    33  H    3.355435   2.214642   1.080846   2.154756   3.686743
    34  C   15.748974  14.957262  13.549657  13.278544  14.914694
    35  C   16.199510  15.348316  13.954591  13.763785  15.445369
    36  C   17.511145  16.624507  15.244371  15.101140  16.801875
    37  C   18.078594  17.216514  15.833130  15.656797  17.333715
    38  S   17.080249  16.294303  14.899833  14.628695  16.243430
    39  H   15.688173  14.827504  13.440793  13.269030  14.957584
    40  H   18.073770  17.150821  15.787248  15.697326  17.420044
    41  H   19.067373  18.192012  16.817047  16.659804  18.340514
                   31         32         33         34         35
    31  H    0.000000
    32  H    2.631322   0.000000
    33  H    4.356785   2.610214   0.000000
    34  C   16.821562  15.421366  12.832169   0.000000
    35  C   17.274317  15.758324  13.185870   1.372694   0.000000
    36  C   18.584788  16.994819  14.444154   2.360898   1.431390
    37  C   19.149963  17.604941  15.052496   2.558738   2.342192
    38  S   18.145017  16.749111  14.185531   1.831847   2.637474
    39  H   16.760865  15.228549  12.666543   2.152052   1.081841
    40  H   19.144852  17.481981  14.957663   3.370893   2.214644
    41  H   20.136602  18.562195  16.024763   3.603956   3.383716
                   36         37         38         39         40
    36  C    0.000000
    37  C    1.360299   0.000000
    38  S    2.629544   1.801459   0.000000
    39  H    2.217293   3.355323   3.684857   0.000000
    40  H    1.080242   2.147496   3.673603   2.614192   0.000000
    41  H    2.202874   1.072749   2.502036   4.354425   2.628052
                   41
    41  H    0.000000
 Stoichiometry    C22H12N2S5
 Framework group  C1[X(C22H12N2S5)]
 Deg. of freedom   117
 Full point group                 C1      NOp   1
 Largest Abelian subgroup         C1      NOp   1
 Largest concise Abelian subgroup C1      NOp   1
                         Standard orientation:                         
 ---------------------------------------------------------------------
 Center     Atomic      Atomic             Coordinates (Angstroms)
 Number     Number       Type             X           Y           Z
 ---------------------------------------------------------------------
      1          6           0       -0.692511   -0.696175    0.367588
      2          6           0        0.723081   -0.684523    0.317988
      3          6           0        1.481529    0.466800    0.171432
      4          6           0        0.724673    1.703311    0.112289
      5          6           0       -0.746608    1.693163    0.180160
      6          6           0       -1.478595    0.442545    0.281417
      7          1           0       -1.175556   -1.658914    0.462152
      8          1           0        1.228111   -1.639220    0.369506
      9          6           0       -2.925021    0.397493    0.258217
     10          6           0       -3.853723    1.411396    0.327221
     11          6           0       -5.208183    0.998406    0.226730
     12          6           0       -5.398608   -0.354340    0.065678
     13         16           0       -3.788458   -1.210889    0.053071
     14          1           0       -3.552297    2.439452    0.436167
     15          1           0       -6.032709    1.695516    0.260518
     16          7           0       -1.324803    2.891502    0.133367
     17          7           0        1.281848    2.908940    0.007570
     18         16           0       -0.031030    4.108113   -0.004369
     19          6           0        5.419983   -0.250784   -0.010103
     20          6           0        5.160492    1.021553   -0.455130
     21          6           0        3.793242    1.408465   -0.413988
     22          6           0        2.926419    0.445959    0.054023
     23         16           0        3.866960   -1.063732    0.497156
     24          1           0        5.947568    1.681502   -0.792165
     25          1           0        3.442678    2.382178   -0.711969
     26          6           0       -9.051771   -1.813780   -0.422565
     27          6           0       -8.161563   -2.841542   -0.493726
     28          6           0       -6.796113   -2.445457   -0.323399
     29          6           0       -6.610250   -1.100155   -0.114771
     30         16           0       -8.229529   -0.238560   -0.123828
     31          1           0      -10.122441   -1.828987   -0.517745
     32          1           0       -8.461321   -3.864084   -0.669137
     33          1           0       -5.971758   -3.143599   -0.358986
     34          6           0        6.666139   -0.963186    0.081375
     35          6           0        7.085563   -1.900080    0.992748
     36          6           0        8.408839   -2.398805    0.771183
     37          6           0        9.026442   -1.866904   -0.317882
     38         16           0        7.974307   -0.677672   -1.168761
     39          1           0        6.469215   -2.205013    1.827920
     40          1           0        8.880332   -3.126949    1.414942
     41          1           0       10.012118   -2.051287   -0.698981
 ---------------------------------------------------------------------
 Rotational constants (GHZ):      0.3165131      0.0371033      0.0336507
 Standard basis: 6-311++G(d,p) (5D, 7F)
 There are   791 symmetry adapted cartesian basis functions of A   symmetry.
 There are   762 symmetry adapted basis functions of A   symmetry.
   762 basis functions,  1222 primitive gaussians,   791 cartesian basis functions
   119 alpha electrons      119 beta electrons
       nuclear repulsion energy      3017.3354478488 Hartrees.
 NAtoms=   41 NActive=   41 NUniq=   41 SFac= 1.00D+00 NAtFMM=   60 NAOKFM=F Big=F
 Integral buffers will be    131072 words long.
 Regular integral format.
 Two-electron integral symmetry is turned on.
 One-electron integrals computed using PRISM.
 NBasis=   762 RedAO= T EigKep=  1.44D-06  NBF=   762
 NBsUse=   752 1.00D-06 EigRej=  6.69D-07 NBFU=   752
 ExpMin= 3.60D-02 ExpMax= 9.34D+04 ExpMxC= 3.17D+03 IAcc=3 IRadAn=         5 AccDes= 0.00D+00
 Harris functional with IExCor=  402 and IRadAn=       5 diagonalized for initial guess.
 HarFok:  IExCor=  402 AccDes= 0.00D+00 IRadAn=         5 IDoV= 1 UseB2=F ITyADJ=14
 ICtDFT=  3500011 ScaDFX=  1.000000  1.000000  1.000000  1.000000
 FoFCou: FMM=F IPFlag=           0 FMFlag=      100000 FMFlg1=           0
         NFxFlg=           0 DoJE=T BraDBF=F KetDBF=T FulRan=T
         wScrn=  0.000000 ICntrl=     500 IOpCl=  0 I1Cent=   200000004 NGrid=           0
         NMat0=    1 NMatS0=      1 NMatT0=    0 NMatD0=    1 NMtDS0=    0 NMtDT0=    0
 Petite list used in FoFCou.
 Requested convergence on RMS density matrix=1.00D-08 within 128 cycles.
 Requested convergence on MAX density matrix=1.00D-06.
 Requested convergence on             energy=1.00D-06.
 No special actions if energy rises.
 Restarting incremental Fock formation.
 SCF Done:  E(RB3LYP) =  -2946.30573412     A.U. after   28 cycles
            NFock= 28  Conv=0.75D-08     -V/T= 2.0027
 DoSCS=F DFT=T ScalE2(SS,OS)=  1.000000  1.000000
 ExpMin= 3.60D-02 ExpMax= 9.34D+04 ExpMxC= 3.17D+03 IAcc=3 IRadAn=         5 AccDes= 0.00D+00
 HarFok:  IExCor=  205 AccDes= 0.00D+00 IRadAn=         5 IDoV=-2 UseB2=F ITyADJ=14
 ICtDFT= 12500011 ScaDFX=  1.000000  1.000000  1.000000  1.000000
 Range of M.O.s used for correlation:    50   752
 NBasis=   762 NAE=   119 NBE=   119 NFC=    49 NFV=     0
 NROrb=    703 NOA=    70 NOB=    70 NVA=   633 NVB=   633

 **** Warning!!: The largest alpha MO coefficient is  0.18047909D+03


 **** Warning!!: The smallest alpha delta epsilon is  0.77084177D-01

 Would need an additional        141185500000 words for in-memory AO integral storage.
 Orbital symmetries:
       Occupied  (A) (A) (A) (A) (A) (A) (A) (A) (A) (A) (A) (A)
                 (A) (A) (A) (A) (A) (A) (A) (A) (A) (A) (A) (A)
                 (A) (A) (A) (A) (A) (A) (A) (A) (A) (A) (A) (A)
                 (A) (A) (A) (A) (A) (A) (A) (A) (A) (A) (A) (A)
                 (A) (A) (A) (A) (A) (A) (A) (A) (A) (A) (A) (A)
                 (A) (A) (A) (A) (A) (A) (A) (A) (A) (A) (A) (A)
                 (A) (A) (A) (A) (A) (A) (A) (A) (A) (A) (A) (A)
                 (A) (A) (A) (A) (A) (A) (A) (A) (A) (A) (A) (A)
                 (A) (A) (A) (A) (A) (A) (A) (A) (A) (A) (A) (A)
                 (A) (A) (A) (A) (A) (A) (A) (A) (A) (A) (A)
       Virtual   (A) (A) (A) (A) (A) (A) (A) (A) (A) (A) (A) (A)
                 (A) (A) (A) (A) (A) (A) (A) (A) (A) (A) (A) (A)
                 (A) (A) (A) (A) (A) (A) (A) (A) (A) (A) (A) (A)
                 (A) (A) (A) (A) (A) (A) (A) (A) (A) (A) (A) (A)
                 (A) (A) (A) (A) (A) (A) (A) (A) (A) (A) (A) (A)
                 (A) (A) (A) (A) (A) (A) (A) (A) (A) (A) (A) (A)
                 (A) (A) (A) (A) (A) (A) (A) (A) (A) (A) (A) (A)
                 (A) (A) (A) (A) (A) (A) (A) (A) (A) (A) (A) (A)
                 (A) (A) (A) (A) (A) (A) (A) (A) (A) (A) (A) (A)
                 (A) (A) (A) (A) (A) (A) (A) (A) (A) (A) (A) (A)
                 (A) (A) (A) (A) (A) (A) (A) (A) (A) (A) (A) (A)
                 (A) (A) (A) (A) (A) (A) (A) (A) (A) (A) (A) (A)
                 (A) (A) (A) (A) (A) (A) (A) (A) (A) (A) (A) (A)
                 (A) (A) (A) (A) (A) (A) (A) (A) (A) (A) (A) (A)
                 (A) (A) (A) (A) (A) (A) (A) (A) (A) (A) (A) (A)
                 (A) (A) (A) (A) (A) (A) (A) (A) (A) (A) (A) (A)
                 (A) (A) (A) (A) (A) (A) (A) (A) (A) (A) (A) (A)
                 (A) (A) (A) (A) (A) (A) (A) (A) (A) (A) (A) (A)
                 (A) (A) (A) (A) (A) (A) (A) (A) (A) (A) (A) (A)
                 (A) (A) (A) (A) (A) (A) (A) (A) (A) (A) (A) (A)
                 (A) (A) (A) (A) (A) (A) (A) (A) (A) (A) (A) (A)
                 (A) (A) (A) (A) (A) (A) (A) (A) (A) (A) (A) (A)
                 (A) (A) (A) (A) (A) (A) (A) (A) (A) (A) (A) (A)
                 (A) (A) (A) (A) (A) (A) (A) (A) (A) (A) (A) (A)
                 (A) (A) (A) (A) (A) (A) (A) (A) (A) (A) (A) (A)
                 (A) (A) (A) (A) (A) (A) (A) (A) (A) (A) (A) (A)
                 (A) (A) (A) (A) (A) (A) (A) (A) (A) (A) (A) (A)
                 (A) (A) (A) (A) (A) (A) (A) (A) (A) (A) (A) (A)
                 (A) (A) (A) (A) (A) (A) (A) (A) (A) (A) (A) (A)
                 (A) (A) (A) (A) (A) (A) (A) (A) (A) (A) (A) (A)
                 (A) (A) (A) (A) (A) (A) (A) (A) (A) (A) (A) (A)
                 (A) (A) (A) (A) (A) (A) (A) (A) (A) (A) (A) (A)
                 (A) (A) (A) (A) (A) (A) (A) (A) (A) (A) (A) (A)
                 (A) (A) (A) (A) (A) (A) (A) (A) (A) (A) (A) (A)
                 (A) (A) (A) (A) (A) (A) (A) (A) (A) (A) (A) (A)
                 (A) (A) (A) (A) (A) (A) (A) (A) (A) (A) (A) (A)
                 (A) (A) (A) (A) (A) (A) (A) (A) (A) (A) (A) (A)
                 (A) (A) (A) (A) (A) (A) (A) (A) (A) (A) (A) (A)
                 (A) (A) (A) (A) (A) (A) (A) (A) (A) (A) (A) (A)
                 (A) (A) (A) (A) (A) (A) (A) (A) (A) (A) (A) (A)
                 (A) (A) (A) (A) (A) (A) (A) (A) (A) (A) (A) (A)
                 (A) (A) (A) (A) (A) (A) (A) (A) (A) (A) (A) (A)
                 (A) (A) (A) (A) (A) (A) (A) (A) (A) (A) (A) (A)
                 (A) (A) (A) (A) (A) (A) (A) (A) (A) (A) (A) (A)
                 (A) (A) (A) (A) (A) (A) (A) (A) (A) (A) (A) (A)
                 (A) (A) (A) (A) (A) (A) (A) (A) (A) (A) (A) (A)
                 (A) (A) (A) (A) (A) (A) (A) (A) (A) (A) (A) (A)
                 (A) (A) (A) (A) (A) (A) (A) (A) (A) (A) (A) (A)
                 (A) (A) (A) (A) (A) (A) (A) (A) (A) (A) (A) (A)
                 (A) (A) (A) (A) (A) (A) (A) (A) (A) (A) (A) (A)
                 (A) (A) (A) (A) (A) (A) (A) (A) (A) (A) (A) (A)
                 (A) (A) (A) (A) (A) (A) (A) (A) (A) (A) (A) (A)
                 (A) (A) (A) (A) (A) (A) (A) (A) (A)
   400 initial guesses have been made.
 Convergence on wavefunction:    0.001000000000000
 Iteration     1 Dimension   400 NMult     0 NNew    400
 CISAX will form   400 AO SS matrices at one time.
 New state      4 was old state      5
 New state      5 was old state      6
 New state      6 was old state      4
 New state      8 was old state     11
 New state      9 was old state      8
 New state     10 was old state      9
 New state     11 was old state     10
 New state     12 was old state     14
 New state     13 was old state     12
 New state     14 was old state     25
 New state     15 was old state     20
 New state     16 was old state     13
 New state     17 was old state     22
 New state     18 was old state     16
 New state     20 was old state     29
 New state     21 was old state     38
 New state     22 was old state     31
 New state     23 was old state     17
 New state     24 was old state     27
 New state     25 was old state     21
 New state     26 was old state     18
 New state     27 was old state     24
 New state     28 was old state     23
 New state     29 was old state     26
 New state     30 was old state     33
 New state     31 was old state     30
 New state     32 was old state     34
 New state     33 was old state     28
 New state     34 was old state     36
 New state     35 was old state     40
 New state     36 was old state     43
 New state     37 was old state     39
 New state     38 was old state     44
 New state     39 was old state     41
 New state     40 was old state     35
 New state     41 was old state     45
 New state     42 was old state     79
 New state     43 was old state     37
 New state     44 was old state     46
 New state     45 was old state     47
 New state     46 was old state     42
 New state     47 was old state     48
 New state     48 was old state     52
 New state     49 was old state     50
 New state     50 was old state     49
 New state     51 was old state     61
 New state     52 was old state     51
 New state     53 was old state     59
 New state     55 was old state     53
 New state     56 was old state     58
 New state     57 was old state     56
 New state     58 was old state     64
 New state     59 was old state     65
 New state     60 was old state     69
 New state     61 was old state     63
 New state     62 was old state     67
 New state     63 was old state     55
 New state     64 was old state     77
 New state     65 was old state     68
 New state     66 was old state    101
 New state     67 was old state     60
 New state     68 was old state    110
 New state     69 was old state     62
 New state     70 was old state     73
 New state     71 was old state    131
 New state     72 was old state     78
 New state     73 was old state    109
 New state     74 was old state     80
 New state     76 was old state     70
 New state     77 was old state     72
 New state     78 was old state     81
 New state     79 was old state     83
 New state     80 was old state     86
 New state     81 was old state     74
 New state     82 was old state     71
 New state     83 was old state     84
 New state     84 was old state     90
 New state     85 was old state    107
 New state     86 was old state     87
 New state     87 was old state     88
 New state     88 was old state     85
 New state     89 was old state     92
 New state     90 was old state     76
 New state     91 was old state     82
 New state     92 was old state     95
 New state     95 was old state     91
 New state     96 was old state    119
 New state     97 was old state    102
 New state     98 was old state     99
 No map to state     99
 Iteration     2 Dimension   600 NMult   400 NNew    200
 New state     14 was old state     16
 New state     15 was old state     14
 New state     16 was old state     15
 New state     20 was old state     23
 New state     21 was old state     26
 New state     22 was old state     20
 New state     23 was old state     22
 New state     24 was old state     21
 New state     26 was old state     24
 New state     27 was old state     28
 New state     28 was old state     27
 New state     29 was old state     31
 New state     30 was old state     29
 New state     31 was old state     33
 New state     32 was old state     30
 New state     33 was old state     32
 New state     35 was old state     37
 New state     36 was old state     40
 New state     37 was old state     35
 New state     38 was old state     36
 New state     39 was old state     41
 New state     40 was old state     38
 New state     41 was old state     39
 New state     42 was old state     44
 New state     43 was old state     42
 New state     44 was old state     43
 New state     45 was old state     47
 New state     46 was old state     45
 New state     47 was old state     46
 New state     49 was old state     60
 New state     50 was old state     49
 New state     51 was old state     53
 New state     52 was old state     51
 New state     53 was old state     50
 New state     54 was old state     52
 New state     56 was old state     54
 New state     57 was old state     56
 New state     58 was old state     57
 New state     59 was old state     58
 New state     60 was old state     65
 New state     61 was old state     59
 New state     62 was old state     64
 New state     63 was old state     61
 New state     64 was old state     62
 New state     65 was old state     66
 New state     66 was old state     63
 New state     67 was old state     70
 New state     68 was old state     69
 New state     69 was old state     71
 New state     70 was old state     68
 New state     71 was old state     73
 New state     72 was old state     67
 New state     73 was old state     75
 New state     74 was old state     79
 New state     75 was old state     72
 New state     76 was old state     74
 New state     77 was old state     80
 New state     79 was old state     76
 New state     80 was old state     77
 New state     83 was old state     84
 New state     84 was old state     91
 New state     85 was old state     83
 New state     86 was old state     85
 New state     87 was old state     86
 New state     88 was old state     87
 New state     89 was old state     88
 New state     90 was old state     89
 New state     91 was old state     93
 New state     92 was old state     90
 New state     93 was old state     94
 New state     94 was old state     95
 New state     95 was old state    100
 New state     96 was old state     92
 New state     97 was old state     96
 New state     98 was old state     97
 New state     99 was old state     98
 No map to state    100
 Iteration     3 Dimension   800 NMult   600 NNew    200
 Iteration     4 Dimension   996 NMult   800 NNew    196
 Iteration     5 Dimension  1092 NMult   996 NNew     96
 ***********************************************************************
 Excited states from <AA,BB:AA,BB> singles matrix:
 ***********************************************************************
 
 Ground to excited state transition densities written to RWF  633
 Ground to excited state transition electric dipole moments (Au):
       state          X           Y           Z        Dip. S.      Osc.
         1        -3.3823     -0.1114     -0.0149     11.4528      0.4957
         2        -0.1916      0.5456      0.0735      0.3398      0.0203
         3        -3.7271     -0.2468     -0.0881     13.9601      0.9934
         4        -0.2495      0.0769      0.0011      0.0682      0.0053
         5        -0.3478      0.7305      0.0974      0.6640      0.0528
         6        -0.1375      0.6247      0.0498      0.4117      0.0335
         7        -0.0014     -0.0442     -0.0583      0.0054      0.0004
         8        -0.0870      0.0040      0.0338      0.0087      0.0008
         9         0.0516      0.0509     -0.1092      0.0172      0.0015
        10         0.0713      0.0084     -0.0060      0.0052      0.0005
        11         0.0428      0.9494      0.1302      0.9202      0.0828
        12         0.2793     -0.1653      0.0316      0.1063      0.0102
        13        -1.0896      0.4271     -0.0481      1.3720      0.1331
        14        -0.4574     -0.5551      0.0854      0.5246      0.0512
        15         0.1616     -0.1034      0.0125      0.0370      0.0037
        16        -0.0611      0.1427      0.0616      0.0279      0.0028
        17        -0.1497     -0.3070      0.0074      0.1168      0.0122
        18         0.0038      0.0294      0.0110      0.0010      0.0001
        19         0.0216      0.0132     -0.0326      0.0017      0.0002
        20        -0.1399     -0.0019     -0.0110      0.0197      0.0021
        21         0.0818     -0.0688      0.0136      0.0116      0.0013
        22        -0.0587      0.3968     -0.0178      0.1612      0.0177
        23        -0.1512      0.1660     -0.0018      0.0504      0.0056
        24         0.0805     -0.0286     -0.0466      0.0095      0.0010
        25        -0.2053      0.3074     -0.0711      0.1417      0.0158
        26        -0.0088     -0.0214     -0.0383      0.0020      0.0002
        27         0.2483      0.2891      0.0048      0.1453      0.0165
        28        -0.2417      0.0088      0.0719      0.0637      0.0072
        29        -0.2414     -0.2492     -0.0562      0.1235      0.0142
        30         0.0552      0.4608     -0.2588      0.2823      0.0327
        31         0.2051     -0.4145     -0.1837      0.2476      0.0289
        32         0.1883     -0.1584     -0.1203      0.0750      0.0088
        33         0.1949     -0.0843      0.0219      0.0456      0.0054
        34         0.2630     -0.3078      0.0111      0.1641      0.0196
        35         0.2184      0.6401     -0.0560      0.4605      0.0551
        36        -0.1246      0.1540      0.0934      0.0480      0.0058
        37        -0.0179     -0.0136     -0.0190      0.0009      0.0001
        38        -0.0658      0.3398     -0.1846      0.1539      0.0188
        39        -0.0233     -0.1217      0.0758      0.0211      0.0026
        40        -0.0582      0.0676     -0.0389      0.0095      0.0012
        41         0.0185      0.1482     -0.0198      0.0227      0.0028
        42         0.0558     -0.0962     -0.0212      0.0128      0.0016
        43         0.0302     -0.0442     -0.0053      0.0029      0.0004
        44         0.0450     -0.2742      0.0224      0.0777      0.0097
        45         0.2942      0.1750     -0.0656      0.1215      0.0152
        46        -0.0605      0.3100     -0.0118      0.0999      0.0126
        47         0.0934     -0.1494     -0.1166      0.0446      0.0057
        48        -0.2214      0.1161      0.0043      0.0625      0.0080
        49        -0.0547     -0.1619      0.0003      0.0292      0.0038
        50        -0.1908      0.1266      0.1121      0.0650      0.0085
        51         0.3083     -0.0881     -0.0233      0.1034      0.0135
        52        -0.0851      0.0283     -0.0142      0.0082      0.0011
        53         0.0017     -0.0785      0.0160      0.0064      0.0008
        54         0.1426      0.0799      0.0122      0.0268      0.0035
        55         0.1952     -0.0081     -0.0119      0.0383      0.0050
        56        -0.0372      0.0454     -0.0400      0.0050      0.0007
        57        -0.0612      0.0076      0.0627      0.0077      0.0010
        58        -0.0015     -0.0026      0.1509      0.0228      0.0030
        59         0.3386     -0.0310     -0.0289      0.1164      0.0155
        60         0.1793     -0.0681      0.0427      0.0386      0.0052
        61         0.1943     -0.0571     -0.0038      0.0410      0.0055
        62        -0.0601      0.2235     -0.0870      0.0612      0.0082
        63        -0.1353      0.0302      0.0110      0.0193      0.0026
        64        -0.1095      0.0326     -0.0075      0.0131      0.0018
        65         0.0641     -0.0045      0.0116      0.0043      0.0006
        66         0.0177     -0.0098     -0.0066      0.0005      0.0001
        67         0.1857      0.0557     -0.0678      0.0422      0.0058
        68         0.0620      0.0052     -0.0436      0.0058      0.0008
        69        -0.1036     -0.0754      0.1776      0.0480      0.0066
        70        -0.2161     -0.0254      0.0551      0.0504      0.0069
        71        -0.4205     -0.0439      0.0014      0.1788      0.0246
        72        -0.0049     -0.0073     -0.0125      0.0002      0.0000
        73         0.0128     -0.0220      0.0634      0.0047      0.0006
        74         0.3340      0.0240      0.0353      0.1134      0.0157
        75         0.0089      0.0714     -0.0032      0.0052      0.0007
        76         0.2264      0.0998     -0.0800      0.0676      0.0095
        77         0.2895      0.1382      0.0366      0.1042      0.0147
        78         0.1913     -0.2553      0.0776      0.1078      0.0152
        79        -0.0106     -0.1070     -0.0583      0.0150      0.0021
        80        -0.0067      0.0018     -0.0976      0.0096      0.0014
        81        -0.2800      0.0968      0.0071      0.0878      0.0125
        82        -0.1958      0.0006     -0.0728      0.0436      0.0062
        83        -0.0915      0.0357     -0.0091      0.0097      0.0014
        84        -0.2387      0.1073      0.0624      0.0724      0.0103
        85         0.0766     -0.1851     -0.0570      0.0434      0.0062
        86         0.2404     -0.0409     -0.0590      0.0629      0.0090
        87        -0.0890      0.0540      0.0527      0.0136      0.0020
        88        -0.2119      0.2017     -0.1252      0.1013      0.0146
        89         0.1195      0.2016      0.0675      0.0595      0.0086
        90         0.2788      0.0015     -0.2005      0.1179      0.0171
        91         0.0161     -0.1741      0.2158      0.0772      0.0112
        92        -0.0466     -0.2384     -0.1117      0.0715      0.0104
        93        -0.0517     -0.0905     -0.0068      0.0109      0.0016
        94        -0.0551      0.3242     -0.0664      0.1126      0.0165
        95         0.0138      0.2102      0.0025      0.0444      0.0065
        96        -0.1642     -0.1089     -0.0030      0.0388      0.0057
        97         0.0908      0.2546      0.0077      0.0731      0.0108
        98         0.0861     -0.1798      0.0927      0.0483      0.0072
        99        -0.1728     -0.3004      0.0490      0.1225      0.0182
       100         0.0904      0.2584     -0.0158      0.0752      0.0112
 Ground to excited state transition velocity dipole moments (Au):
       state          X           Y           Z        Dip. S.      Osc.
         1         0.2215      0.0078      0.0013      0.0491      0.5042
         2         0.0171     -0.0513     -0.0057      0.0030      0.0220
         3         0.3915      0.0272      0.0102      0.1541      0.9626
         4         0.0237     -0.0079     -0.0003      0.0006      0.0036
         5         0.0398     -0.0888     -0.0112      0.0096      0.0536
         6         0.0160     -0.0749     -0.0063      0.0059      0.0322
         7        -0.0011      0.0056      0.0074      0.0001      0.0005
         8         0.0112     -0.0006     -0.0066      0.0002      0.0009
         9        -0.0074     -0.0068      0.0139      0.0003      0.0015
        10        -0.0095     -0.0016      0.0009      0.0001      0.0005
        11        -0.0061     -0.1252     -0.0174      0.0160      0.0791
        12        -0.0400      0.0200     -0.0052      0.0020      0.0094
        13         0.1565     -0.0562      0.0076      0.0277      0.1270
        14         0.0651      0.0688     -0.0114      0.0091      0.0415
        15        -0.0238      0.0148     -0.0014      0.0008      0.0035
        16         0.0062     -0.0222     -0.0113      0.0007      0.0029
        17         0.0222      0.0456     -0.0030      0.0026      0.0110
        18        -0.0009     -0.0051     -0.0017      0.0000      0.0001
        19        -0.0021     -0.0038      0.0025      0.0000      0.0001
        20         0.0222      0.0020      0.0023      0.0005      0.0021
        21        -0.0084      0.0088     -0.0020      0.0002      0.0006
        22         0.0093     -0.0619      0.0017      0.0039      0.0159
        23         0.0242     -0.0231      0.0013      0.0011      0.0045
        24        -0.0135      0.0050      0.0210      0.0006      0.0026
        25         0.0338     -0.0460      0.0093      0.0033      0.0134
        26         0.0020      0.0026      0.0052      0.0000      0.0001
        27        -0.0405     -0.0447     -0.0011      0.0036      0.0143
        28         0.0398     -0.0057     -0.0107      0.0017      0.0068
        29         0.0405      0.0434      0.0097      0.0036      0.0140
        30        -0.0099     -0.0750      0.0421      0.0075      0.0288
        31        -0.0345      0.0651      0.0302      0.0063      0.0241
        32        -0.0312      0.0278      0.0194      0.0021      0.0080
        33        -0.0324      0.0163     -0.0025      0.0013      0.0050
        34        -0.0447      0.0521     -0.0033      0.0047      0.0176
        35        -0.0365     -0.1102      0.0104      0.0136      0.0505
        36         0.0211     -0.0291     -0.0160      0.0015      0.0057
        37         0.0030      0.0026      0.0059      0.0001      0.0002
        38         0.0121     -0.0594      0.0326      0.0047      0.0172
        39         0.0050      0.0236     -0.0125      0.0007      0.0027
        40         0.0112     -0.0055      0.0064      0.0002      0.0007
        41        -0.0037     -0.0212      0.0027      0.0005      0.0017
        42        -0.0089      0.0163      0.0041      0.0004      0.0013
        43        -0.0054      0.0088      0.0008      0.0001      0.0004
        44        -0.0084      0.0527     -0.0022      0.0029      0.0102
        45        -0.0566     -0.0332      0.0121      0.0045      0.0158
        46         0.0109     -0.0525      0.0021      0.0029      0.0101
        47        -0.0172      0.0271      0.0227      0.0015      0.0054
        48         0.0414     -0.0227      0.0004      0.0022      0.0077
        49         0.0094      0.0306      0.0009      0.0010      0.0035
        50         0.0349     -0.0241     -0.0199      0.0022      0.0075
        51        -0.0557      0.0160      0.0066      0.0034      0.0116
        52         0.0155     -0.0055      0.0009      0.0003      0.0009
        53         0.0002      0.0156     -0.0029      0.0003      0.0009
        54        -0.0264     -0.0137     -0.0024      0.0009      0.0030
        55        -0.0378      0.0037      0.0024      0.0014      0.0049
        56         0.0065     -0.0089      0.0086      0.0002      0.0007
        57         0.0105     -0.0014     -0.0137      0.0003      0.0010
        58        -0.0003     -0.0002     -0.0319      0.0010      0.0034
        59        -0.0650      0.0059      0.0064      0.0043      0.0144
        60        -0.0353      0.0129     -0.0077      0.0015      0.0049
        61        -0.0405      0.0095     -0.0004      0.0017      0.0057
        62         0.0159     -0.0413      0.0139      0.0022      0.0071
        63         0.0279     -0.0062     -0.0013      0.0008      0.0027
        64         0.0211     -0.0058      0.0002      0.0005      0.0016
        65        -0.0127      0.0011     -0.0043      0.0002      0.0006
        66        -0.0037      0.0023      0.0009      0.0000      0.0001
        67        -0.0347     -0.0091      0.0143      0.0015      0.0049
        68        -0.0145     -0.0006      0.0083      0.0003      0.0009
        69         0.0184      0.0107     -0.0335      0.0016      0.0051
        70         0.0426      0.0031     -0.0118      0.0020      0.0063
        71         0.0844      0.0071      0.0014      0.0072      0.0232
        72         0.0008      0.0011      0.0022      0.0000      0.0000
        73        -0.0038      0.0042     -0.0147      0.0002      0.0008
        74        -0.0710     -0.0052     -0.0079      0.0051      0.0164
        75        -0.0025     -0.0144     -0.0019      0.0002      0.0007
        76        -0.0523     -0.0180      0.0197      0.0035      0.0110
        77        -0.0592     -0.0261     -0.0079      0.0042      0.0134
        78        -0.0364      0.0544     -0.0156      0.0045      0.0142
        79         0.0010      0.0320      0.0083      0.0011      0.0034
        80         0.0001     -0.0071      0.0198      0.0004      0.0014
        81         0.0543     -0.0170     -0.0009      0.0032      0.0101
        82         0.0405     -0.0021      0.0133      0.0018      0.0057
        83         0.0182     -0.0037      0.0024      0.0004      0.0011
        84         0.0486     -0.0225     -0.0119      0.0030      0.0094
        85        -0.0208      0.0357      0.0107      0.0018      0.0056
        86        -0.0496      0.0078      0.0119      0.0027      0.0083
        87         0.0194     -0.0127     -0.0182      0.0009      0.0027
        88         0.0417     -0.0408      0.0273      0.0041      0.0128
        89        -0.0217     -0.0459     -0.0130      0.0028      0.0085
        90        -0.0558      0.0005      0.0411      0.0048      0.0148
        91        -0.0031      0.0362     -0.0431      0.0032      0.0098
        92         0.0057      0.0507      0.0241      0.0032      0.0097
        93         0.0112      0.0189      0.0029      0.0005      0.0015
        94         0.0100     -0.0778      0.0129      0.0063      0.0191
        95        -0.0028     -0.0464     -0.0008      0.0022      0.0066
        96         0.0371      0.0242      0.0021      0.0020      0.0059
        97        -0.0194     -0.0548     -0.0013      0.0034      0.0102
        98        -0.0207      0.0414     -0.0212      0.0026      0.0078
        99         0.0353      0.0624     -0.0102      0.0052      0.0157
       100        -0.0181     -0.0558      0.0063      0.0035      0.0104
 Ground to excited state transition magnetic dipole moments (Au):
       state          X           Y           Z
         1         0.0088      0.1448     -0.2999
         2         0.0182     -0.0376     -0.0404
         3         0.0270      0.2598     -1.3600
         4         0.0238      0.0118     -0.1847
         5         0.0717     -0.0253     -0.2024
         6         0.0242     -0.2136     -0.1551
         7        -0.0298     -0.0793     -0.5923
         8        -0.0866      0.0149     -0.0951
         9        -0.0599     -0.3112     -0.2308
        10         0.0282      0.0148     -0.5973
        11         0.0914     -0.2255      0.1753
        12        -0.0389      0.6120      0.0473
        13         0.0305      0.4819     -0.8901
        14         0.0138     -0.1199     -0.3535
        15        -0.0069      0.7730      0.1617
        16        -0.0363     -0.1113      0.3000
        17        -0.0218     -0.1654      0.0783
        18        -0.0156     -0.0764     -0.0047
        19         0.0493      0.0679     -0.1154
        20        -0.0168      0.0785     -0.2129
        21        -0.0665     -0.1789     -0.3195
        22         0.1251      0.0136      0.1638
        23        -0.0040     -0.2658     -0.3173
        24         0.0129      0.0198      0.1410
        25         0.0581      0.1066     -0.0836
        26        -0.0596      0.1028     -0.4930
        27         0.0402      0.2346      0.4310
        28         0.1161      0.3249     -0.1411
        29        -0.1508     -0.3823      0.5231
        30        -0.1153     -0.7695     -0.3505
        31         0.0245      0.0017     -1.2462
        32        -0.1511     -0.1973     -0.0498
        33        -0.0708     -0.3612     -0.1072
        34         0.1075      0.3174     -0.1546
        35         0.0796     -0.0439      0.0901
        36         0.2365      0.7059     -0.0401
        37         0.1911      0.0265      0.0437
        38        -0.0055     -0.2869     -0.3110
        39        -0.0583      0.2428      0.3592
        40        -0.0526      0.1935     -0.0555
        41         0.0733     -0.2521     -0.2679
        42        -0.1016     -0.1223     -0.0876
        43        -0.0264      0.4842     -0.0985
        44        -0.0809     -0.2446     -0.0845
        45        -0.0595     -0.1066     -0.7154
        46         0.0370     -0.0603      0.4190
        47        -0.0235     -0.0588     -0.3189
        48         0.1313      0.2722      0.6922
        49        -0.1643     -0.3967      0.1836
        50         0.1209      0.2121      0.0613
        51        -0.0129     -0.3678     -0.6257
        52        -0.0707     -0.1546      0.1535
        53        -0.0163     -0.1799     -0.0507
        54         0.0033      0.0890     -0.4396
        55         0.0430     -0.0006     -0.0752
        56        -0.1112     -0.0820      0.1405
        57         0.0434     -0.3803      0.1888
        58         0.1554     -0.2344     -0.1689
        59        -0.0054     -0.4195     -0.4625
        60        -0.0864     -0.1550     -0.5657
        61        -0.2661     -0.0923     -0.0508
        62         0.0019      0.4480     -0.9516
        63         0.0304     -0.0982     -0.4432
        64         0.1921     -0.4644      0.1301
        65        -0.0294     -0.2655     -0.2449
        66         0.0078     -0.0404      0.0280
        67         0.0902     -0.5751     -0.5087
        68         0.0133     -0.0541      0.3513
        69         0.1331      0.3402      0.6507
        70        -0.0018      0.0701      0.3781
        71         0.0915      0.0947      0.0182
        72         0.0176      0.0516     -0.0413
        73        -0.0318      0.1605      0.1159
        74         0.0463      0.2219      0.2106
        75        -0.0048      0.0791     -0.1540
        76         0.0022     -0.2243     -0.9671
        77        -0.0697     -0.1534     -0.2165
        78         0.0177      0.0900      0.3553
        79        -0.1747     -0.2367      0.0507
        80         0.2110      0.1288      0.1652
        81         0.0797      0.0671     -0.0165
        82         0.0068     -0.0379     -0.5520
        83         0.0359      0.2503      0.2398
        84         0.0260      0.0434      0.2881
        85        -0.1842     -0.1424     -1.3077
        86        -0.2704     -0.2231     -0.6281
        87        -0.5517      0.1285      0.3787
        88         0.0313     -0.5107     -0.0941
        89         0.0797      0.2489      0.3340
        90         0.0412     -0.5789     -0.9303
        91         0.2052      0.7248      0.9903
        92        -0.0228     -0.1433     -1.8560
        93        -0.0316      0.0000      0.1425
        94        -0.1126     -0.2601     -0.2325
        95         0.1296     -0.2381     -0.4825
        96         0.2990      0.1728     -0.0213
        97         0.0872      0.0213      0.1471
        98         0.0334      0.1023      0.2223
        99         0.0151      0.1595     -0.0261
       100         0.1210      0.0076     -0.0046
 Ground to excited state transition velocity quadrupole moments (Au):
       state          XX          YY          ZZ          XY          XZ          YZ
         1        -0.2211     -0.0065      0.0144     -0.4030     -0.0458     -0.0364
         2         2.0765     -0.1868      0.0119     -0.0147      0.0266      0.0076
         3        -1.0408     -0.0373      0.0263     -1.2887     -0.1729     -0.0642
         4         0.3090     -0.0095      0.0093     -0.3380     -0.0462     -0.0123
         5         3.7995     -0.1356      0.0310     -0.0688      0.0683      0.0167
         6         2.7214     -0.0363      0.0387     -0.0335      0.0860      0.0120
         7        -0.4518      0.0499     -0.0041     -0.2913     -0.0113      0.0225
         8         0.0019     -0.0097      0.0003     -0.0653     -0.0060     -0.0520
         9        -0.2928      0.0478      0.0002     -0.1079      0.1889     -0.0283
        10         1.0870     -0.0931     -0.0005     -0.2394      0.0196     -0.0013
        11         5.0413      0.0263      0.0241      0.2474      0.1775      0.0294
        12         0.2489      0.0658      0.0097      0.2631     -0.0301      0.0038
        13         0.6842     -0.4057      0.0218     -0.9674     -0.1821     -0.0219
        14         1.7039      0.8940      0.0307     -0.3280      0.0429      0.0148
        15        -0.0158      0.3274     -0.0017      0.1971     -0.0200      0.0098
        16         0.1710     -0.2293      0.0031      0.8261      0.1169     -0.0338
        17        -0.3133      0.2525      0.0079      0.1425      0.0763     -0.0171
        18         0.1578     -0.0084      0.0024      0.0561     -0.0181     -0.0118
        19         0.2084     -0.0370      0.0221     -0.4367     -0.1322      0.0388
        20        -0.3471      0.0023      0.0137     -0.5042     -0.1368     -0.0056
        21         0.5605      0.1463      0.0005      0.3028      0.1494      0.0088
        22         0.4015     -0.3254     -0.0073     -0.1185     -0.0016      0.0316
        23        -0.3713     -0.2802      0.0399      0.0741      0.1310     -0.0307
        24        -0.1430      0.0131      0.0076      0.0921     -0.0302      0.0829
        25        -0.1111     -0.2954      0.0117     -0.0026     -0.0174     -0.0594
        26        -0.1504     -0.2077     -0.0063      0.1226      0.0363     -0.0802
        27        -0.5531      0.0073      0.0104     -0.0913     -0.2359      0.1027
        28         2.0685     -0.1652     -0.0073     -0.2873     -0.1661      0.0128
        29        -0.2006      0.5161     -0.0049      0.0750      0.1854     -0.0219
        30         0.0448      0.1594     -0.0271     -0.3297      0.6679     -0.0739
        31         0.0021     -0.0504      0.0052     -1.6170     -0.0087      0.0060
        32        -1.3334     -0.1271     -0.0181     -0.3016     -0.0678     -0.0732
        33        -1.1724      0.1002      0.0426      0.0156      0.1479      0.0417
        34         0.0230      0.3594     -0.0084     -0.1600     -0.1416      0.0701
        35         0.7980     -0.3507      0.0095     -0.0881      0.0369      0.0095
        36         0.7051      0.0590      0.0326      0.0347     -0.3247      0.0570
        37        -0.0005     -0.0157     -0.0002     -0.0377     -0.0284      0.0935
        38         0.2658      0.1581      0.0000     -0.4391      0.3508     -0.0474
        39        -0.3325     -0.2070     -0.0003      0.2429     -0.3217      0.0105
        40        -0.3313     -0.3057     -0.0374     -0.1566     -0.3216     -0.0455
        41         0.3444     -0.4285     -0.0167     -0.2954      0.1768      0.0238
        42        -0.3587      0.2665     -0.0056      0.0276     -0.0667     -0.0622
        43        -0.0855      0.0231     -0.0188     -0.0266      0.1160     -0.0078
        44        -0.3434      0.1438     -0.0192      0.2259      0.0937     -0.0192
        45        -0.0200     -0.0143     -0.0001      0.1709     -0.0599     -0.0488
        46         0.2564      0.0853      0.0021      0.2254      0.1437      0.0295
        47         0.0328     -0.0460     -0.0304     -0.1408     -0.0484     -0.0527
        48         0.0864      0.0314     -0.0282      0.0789     -0.3291      0.0356
        49        -0.6248      0.1121      0.0286     -0.0858     -0.0329     -0.0598
        50         0.0375      0.0994      0.0232      0.1257     -0.0639      0.0142
        51         0.7504     -0.1409      0.0217     -0.4643      0.0404     -0.0201
        52        -0.2344      0.0984     -0.0440      0.2114     -0.0149     -0.0270
        53        -0.1658      0.0926     -0.0004      0.0035     -0.0071     -0.0110
        54         0.0729     -0.1331      0.0114     -0.1163      0.0343      0.0027
        55        -0.1286      0.0224     -0.0038      0.0064      0.0056      0.0339
        56         0.1777      0.0418     -0.0706      0.1939     -0.1474     -0.0957
        57         0.3296     -0.0078      0.0263      0.4328      0.0198      0.0230
        58        -0.2507      0.1076      0.0106     -0.3929      0.0527      0.1491
        59        -0.6314      0.0020      0.0202     -0.1399      0.2147     -0.0114
        60        -0.2105     -0.0568      0.0099      0.4638      0.1332     -0.0139
        61        -0.0621     -0.0378      0.0402      0.1173     -0.0402     -0.0695
        62         0.9783     -0.0760     -0.0040     -0.4101      0.0666     -0.0415
        63         0.1894      0.0238      0.0063     -0.1796      0.1278      0.0555
        64         0.2563     -0.0410     -0.0212      0.1782      0.3820      0.0575
        65         0.1809     -0.0044      0.0052     -0.0235      0.0499     -0.0084
        66        -0.0021      0.0273      0.0012     -0.0262      0.0067      0.0046
        67         0.5136     -0.0321     -0.0134     -0.0707      0.0954     -0.0571
        68        -0.2814      0.1281     -0.0581      0.3387     -0.0095     -0.0386
        69        -0.4387     -0.0920      0.1266      0.4542     -0.6725      0.1480
        70         0.3365     -0.1528      0.0402      0.1125      0.2736      0.0288
        71         0.4341      0.0845     -0.0230     -0.3083     -0.3332      0.0320
        72         0.0208      0.0017     -0.0029     -0.1217     -0.0547      0.0075
        73         0.0307      0.0703      0.0237     -0.0416      0.1094      0.0398
        74        -0.1258     -0.0219      0.0131      0.1489     -0.1448      0.0799
        75         0.2652      0.0208      0.0262     -0.0606     -0.0628     -0.0107
        76         0.5115     -0.0574      0.0098      0.0883      0.3095     -0.1137
        77         1.7216     -0.1457     -0.0065      0.3123      0.0331      0.0242
        78        -0.7113     -0.0061     -0.0092      0.4149      0.0155     -0.0258
        79        -0.1155      0.3201     -0.0469      0.0398      0.1262     -0.0041
        80        -0.2247     -0.2400     -0.0292      0.1129      0.0303      0.1051
        81         0.5173      0.1749      0.0013     -0.2535      0.0082      0.1113
        82         0.4636     -0.0238     -0.0642     -0.6284     -0.0183     -0.0039
        83         0.7203      0.0221     -0.0321     -0.0693     -0.1616     -0.0147
        84         0.5462     -0.0305     -0.0016      0.2256     -0.0063      0.0302
        85        -1.0615     -0.1479     -0.0132     -0.3749      0.0478     -0.0336
        86        -0.6873      0.0042      0.0321     -0.0960      0.0962     -0.0270
        87         0.3420     -0.1177      0.0070      0.1775     -0.0371     -0.1475
        88        -0.2706     -0.2102      0.0304     -0.2245      0.4201      0.0262
        89         0.2958     -0.5747     -0.0180      0.4168     -0.3477      0.0460
        90        -0.3015      0.1840     -0.0403     -0.4973      0.4226      0.0547
        91        -0.1052      0.0702      0.0344      0.7728     -0.7900      0.0814
        92         0.3920     -0.0793     -0.0374     -0.9810     -0.0502     -0.1147
        93         0.0345      0.0052      0.0415     -0.0391      0.0889     -0.0113
        94         0.0759     -0.6092     -0.0240     -0.5853      0.1415     -0.1651
        95         0.2881     -0.5161      0.0434      0.0421      0.0155      0.0286
        96        -0.1267      0.2233     -0.0074      0.0182     -0.1556      0.0116
        97         0.7537     -0.4585     -0.0178      0.4586      0.0207      0.0424
        98         0.0647      0.2961      0.0097      0.2297      0.0378      0.0757
        99         0.2720     -0.5146      0.0668     -0.3463     -0.2278      0.0095
       100         1.8773     -0.1345     -0.0463      0.0164      0.0840      0.0923
 <0|del|b> * <b|rxdel|0> + <0|del|b> * <b|delr+rdel|0>
 Rotatory Strengths (R) in cgs (10**-40 erg-esu-cm/Gauss)
       state          XX          YY          ZZ    R(velocity)    E-M Angle
         1         3.0370    -32.5627     58.6448      9.7064       87.92
         2        14.2419      2.3188      2.9481      6.5029       38.54
         3       -50.3134    -50.6269    126.0369      8.3655       89.60
         4        -0.9742      0.7106      3.4274      1.0546       83.60
         5        33.6476     14.8744     -4.8141     14.5693       69.64
         6        68.4226      3.9019     28.2433     33.5226       31.52
         7       -19.7873     -6.3454     -1.2836     -9.1388      149.02
         8         2.8547     -3.7329     -1.0800     -0.6528      102.22
         9        -3.5891     -2.8778      2.8819     -1.1950       95.64
        10        -1.9469     -1.5260     -0.8975     -1.4568       98.11
        11       112.8792      1.3481     14.7586     42.9953       49.57
        12        27.6249      6.2014     32.8100     22.2121       60.66
        13      -124.9819      4.6905    -21.0355    -47.1090       99.93
        14        -8.3145      5.1950    -12.9605     -5.3600       95.36
        15        26.6688     -0.0522     27.3699     17.9955       59.06
        16       -17.9754     12.9297     -0.3302     -1.7920       97.96
        17       -26.3743     -1.5074     -9.4019    -12.4279      151.96
        18         0.4778      0.2807      1.0903      0.6163       14.35
        19        -4.7606      1.3809      0.4960     -0.9612      155.38
        20        -2.7253      0.3940     -0.8077     -1.0464       98.02
        21        -6.2682      3.7653      0.8098     -0.5644       94.83
        22        -1.8553      4.1705      0.2812      0.8655       87.33
        23        18.8669     -2.8995      8.0217      7.9963       66.08
        24        10.9508     -0.5705      1.9026      4.0943       37.60
        25       -13.7707     -1.6869     -0.2747     -5.2441      115.84
        26        -3.6264     -7.2112      0.8438     -3.3312      140.53
        27       -44.4377    -13.2135      5.3777    -17.4245      115.07
        28         3.7083      7.3739      6.6402      5.9075       74.00
        29       -38.6303     -5.4571    -28.1915    -24.0930      116.17
        30       161.3606      2.0172     16.3601     59.9127       53.35
        31      -173.3770     20.5077     -2.2083    -51.6925      112.76
        32       -20.9201     23.8632     -9.9106     -2.3225       98.55
        33       -16.1047      2.5043      0.3306     -4.4233      103.80
        34        49.2191    -15.7165     14.7475     16.0834       61.18
        35        17.5854     -2.7457     -3.5464      3.7644       78.93
        36       -58.0259     14.3241    -14.1866    -19.2961      120.59
        37         0.3427      2.5631      0.5497      1.1519       50.54
        38        25.8943      6.8091     -6.3299      8.7912       76.41
        39        11.1164     -3.2595     -4.2367      1.2067       85.46
        40        -8.0456     -0.8527      1.1972     -2.5671      133.55
        41        14.5060     -0.5463      2.7039      5.5546       57.63
        42        -2.1976      1.8745     -5.2255     -1.8495      114.90
        43         5.9442      0.2437     10.1915      5.4598       32.60
        44       -34.2234      2.8553    -14.0373    -15.1352      146.16
        45        -9.5182     -8.7111     11.5478     -2.2272       92.10
        46        22.4591      2.0882     -8.0156      5.5106       78.80
        47       -19.9044     -5.0783     -6.3244    -10.4357      131.28
        48       -24.4797     13.1538      9.6465     -0.5598       90.73
        49       -20.2549     -3.4185    -25.9007    -16.5247      154.72
        50       -18.7808     10.8412      0.2606     -2.5597      100.37
        51       -24.8079      1.3903    -10.1830    -11.2002      102.72
        52         1.9738     -2.8201      0.4753     -0.1237       91.56
        53        -4.5910      0.2784     -5.2424     -3.1850      153.23
        54         1.0729      1.1211     -3.0596     -0.2886       91.03
        55        -0.3329     -5.5505     -0.5780     -2.1538      123.19
        56         4.0914     -3.2008      3.4682      1.4529       63.64
        57       -14.1568      7.1990      1.2994     -1.8861      102.40
        58        31.8492    -12.8229      0.0699      6.3654       58.98
        59       -13.4704     -1.7277     -2.8369     -6.0117       97.15
        60        -5.1637     20.3075      4.0137      6.3858       76.18
        61        -0.9172     23.9975     11.7834     11.6213       33.52
        62       -60.6605    -14.2893    -35.9023    -36.9507      130.56
        63         3.8937      4.7976     -1.5415      2.3833       80.95
        64         8.6809      9.1404      5.7743      7.8652       53.35
        65         1.4428      2.5025      0.0670      1.3374       76.31
        66        -0.1814      0.0069     -0.1519     -0.1088       90.00
        67        -3.7566    -12.8040     -1.2704     -5.9437       99.96
        68         9.9462      0.8117     -1.2265      3.1772       62.26
        69       -45.1120     -2.3943     -6.5762    -18.0275      122.02
        70       -10.9548     -3.3798     -0.4274     -4.9207      104.65
        71         4.5495     18.6185      5.6875      9.6185       41.60
        72        -0.4195      0.3388      0.0082     -0.0242       90.00
        73        -1.4913     -3.9867      2.3969     -1.0270      106.66
        74        -8.0576    -16.0369      3.3636     -6.9103      105.99
        75        -2.7899      0.3638     -0.4231     -0.9497      109.16
        76       -12.9866    -25.2419    -12.7981    -17.0089      105.05
        77         6.8878     11.4965     14.5626     10.9823       56.59
        78       -13.3308      2.0477      6.9313     -1.4506       93.03
        79       -18.0879     -0.1427     -6.1630     -8.1312      137.95
        80         7.9824      1.7716     -1.8556      2.6328       67.65
        81        -1.2355     16.8315     -4.9734      3.5409       57.74
        82       -25.8612      1.8735      0.9111     -7.6922      107.14
        83        -1.8620      1.8568      0.9802      0.3250       87.41
        84       -11.9706      3.2763     -1.7232     -3.4725      101.34
        85       -40.8103     -8.9769     -0.3974    -16.7282      105.61
        86       -18.2503     13.8548     18.2262      4.6102       83.50
        87       -20.0517    -28.2898    -14.7785    -21.0400      163.28
        88        47.7672      9.7271      6.3766     21.2903       54.29
        89       -60.6510     -2.6893      6.2076    -19.0442      141.96
        90       -96.5576    -37.7462      1.0884    -44.4051      122.53
        91       -34.5191    -16.7171     -4.4679    -18.5681      104.13
        92      -118.1084    -35.3472    -15.0254    -56.1603      119.70
        93        -2.2321      0.0748      2.3503      0.0643       90.00
        94        33.1751      2.8634     15.6742     17.2376       56.48
        95        19.4777     -0.0292     16.1542     11.8675       64.50
        96        12.7174     18.3295     17.7517     16.2662        6.91
        97        -1.2859     -3.3845     -5.0680     -3.2461      107.68
        98       -10.9876     -3.3356     10.6147     -1.2362       95.32
        99        44.3976     -3.8005     -6.4527     11.3814       23.82
       100         6.8631     -6.3171     -8.9126     -2.7889      111.68
 1/2[<0|r|b>*<b|rxdel|0> + (<0|rxdel|b>*<b|r|0>)*]
 Rotatory Strengths (R) in cgs (10**-40 erg-esu-cm/Gauss)
       state          XX          YY          ZZ     R(length)
         1        20.9926     11.4077     -3.1655      9.7449
         2         2.4725     14.5231      2.1002      6.3653
         3        71.1121     45.3296    -84.7286     10.5711
         4         4.2009     -0.6400      0.1405      1.2338
         5        17.6448     13.0736     13.9450     14.8878
         6         2.3556     94.3701      5.4572     34.0610
         7        -0.0299     -2.4793    -24.4116     -8.9736
         8        -5.3263     -0.0417      2.2751     -1.0310
         9         2.1885     11.1929    -17.8277     -1.4821
        10        -1.4209     -0.0883     -2.5265     -1.3452
        11        -2.7654    151.4130    -16.1452     44.1675
        12         7.6897     71.5279     -1.0584     26.0531
        13        23.4834   -145.5415    -30.2956    -50.7846
        14         4.4642    -47.0606     21.3572     -7.0797
        15         0.7861     56.5309     -1.4345     18.6275
        16        -1.5667     11.2237    -13.0591     -1.1340
        17        -2.3055    -35.9121     -0.4114    -12.8764
        18         0.0415      1.5906      0.0366      0.5562
        19        -0.7533     -0.6326     -2.6634     -1.3498
        20        -1.6657      0.1055     -1.6549     -1.0717
        21         3.8453     -8.7030      3.0828     -0.5916
        22         5.1967     -3.8038      2.0630      1.1520
        23        -0.4299     31.2080     -0.3994     10.1262
        24        -0.7342      0.3998      4.6519      1.4392
[...]
    17  N   -0.003136   0.001268   0.000089   0.002051   7.081382   0.064659
    18  S   -0.014083   0.000889  -0.000149   0.025348   0.064659  15.806412
    19  C   -0.005271   0.000092  -0.000004  -0.002829  -0.026866  -0.000996
    20  C    0.003506  -0.000480   0.000010   0.005002  -0.045760   0.029359
    21  C   -0.005125  -0.003155   0.000094   0.025372   0.048510  -0.006279
    22  C   -0.096475   0.005420  -0.000666  -0.062752  -0.203966  -0.083549
    23  S   -0.034148   0.000921  -0.000004  -0.004310   0.006901  -0.009403
    24  H   -0.000036   0.000020  -0.000001   0.000048   0.002483  -0.000037
    25  H    0.000421  -0.000445   0.000025   0.002208  -0.048162  -0.008011
    26  C    0.016358   0.005522  -0.000598   0.000218   0.000001   0.000005
    27  C   -0.174700  -0.007102  -0.005541  -0.000211  -0.000002  -0.000047
    28  C   -1.200017   0.019532   0.075353   0.003283  -0.000012  -0.000506
    29  C    1.548135   0.007122  -0.064238   0.004921  -0.000183  -0.000472
    30  S    0.205342  -0.004223  -0.021142  -0.000847  -0.000019   0.000190
    31  H   -0.001955   0.000181   0.000066   0.000007   0.000000   0.000000
    32  H    0.003824  -0.000080  -0.000253  -0.000002   0.000000   0.000000
    33  H   -0.004647   0.000617  -0.001230   0.000356  -0.000004  -0.000020
    34  C   -0.000188  -0.000009   0.000000   0.000023  -0.002087   0.000051
    35  C   -0.000302   0.000004   0.000000   0.000027   0.000977  -0.000045
    36  C    0.000033  -0.000001   0.000000  -0.000003  -0.000059   0.000157
    37  C   -0.000010   0.000000   0.000000   0.000001   0.000003  -0.000036
    38  S    0.000048  -0.000002   0.000000  -0.000009   0.000328   0.000135
    39  H   -0.000096   0.000001   0.000000  -0.000008  -0.000190  -0.000080
    40  H    0.000002   0.000000   0.000000   0.000000   0.000008   0.000002
    41  H    0.000000   0.000000   0.000000   0.000000  -0.000001   0.000000
              19         20         21         22         23         24
     1  C   -0.298309   0.461244  -0.008035  -2.849974  -1.012977   0.004007
     2  C   -0.709054   0.531510  -1.096130  -2.219212  -0.299920   0.003527
     3  C    0.417654  -1.058001  -0.573601   5.286879   1.723968  -0.009795
     4  C   -0.692533   0.760675   0.655616  -2.538240  -1.072623   0.021894
     5  C   -0.020313   0.168563   0.032385  -1.012007  -0.055901   0.000298
     6  C   -0.080117  -0.111939  -0.774499  -0.715614  -0.295750  -0.000530
     7  H    0.017377  -0.010401   0.014630   0.104676   0.066983  -0.000137
     8  H   -0.116775   0.117051   0.004101  -0.291035  -0.208406   0.001534
     9  C   -0.008518   0.017870  -0.073594  -0.530166  -0.040968  -0.000563
    10  C    0.007643  -0.005283  -0.039549   0.089685   0.022690   0.000110
    11  C    0.000801  -0.000318  -0.002927   0.023146   0.004013   0.000011
    12  C   -0.000295   0.000494   0.001599  -0.017133  -0.003507  -0.000008
    13  S   -0.005271   0.003506  -0.005125  -0.096475  -0.034148  -0.000036
    14  H    0.000092  -0.000480  -0.003155   0.005420   0.000921   0.000020
    15  H   -0.000004   0.000010   0.000094  -0.000666  -0.000004  -0.000001
    16  N   -0.002829   0.005002   0.025372  -0.062752  -0.004310   0.000048
    17  N   -0.026866  -0.045760   0.048510  -0.203966   0.006901   0.002483
    18  S   -0.000996   0.029359  -0.006279  -0.083549  -0.009403  -0.000037
    19  C   13.060701  -1.220068  -4.674797   0.226738   2.102969  -0.220034
    20  C   -1.220068  12.742047   0.926079  -4.246291  -2.791868   0.415122
    21  C   -4.674797   0.926079  13.889028  -1.233341  -2.354723   0.096259
    22  C    0.226738  -4.246291  -1.233341  15.220047   1.321479  -0.037121
    23  S    2.102969  -2.791868  -2.354723   1.321479  19.791007  -0.019694
    24  H   -0.220034   0.415122   0.096259  -0.037121  -0.019694   0.585833
    25  H   -0.016890   0.000323   0.421348  -0.085778   0.012333  -0.018738
    26  C    0.000000   0.000000  -0.000001   0.000006   0.000000   0.000000
    27  C    0.000000   0.000000  -0.000004  -0.000077  -0.000013   0.000000
    28  C   -0.000005   0.000002  -0.000025  -0.001203  -0.000138   0.000000
    29  C    0.000031  -0.000026  -0.000522   0.001449  -0.000111   0.000001
    30  S    0.000000   0.000000  -0.000013   0.000127   0.000001   0.000000
    31  H    0.000000   0.000000   0.000000   0.000000   0.000000   0.000000
    32  H    0.000000   0.000000   0.000000   0.000001   0.000001   0.000000
    33  H   -0.000004   0.000001  -0.000018  -0.000211  -0.000044   0.000000
    34  C    1.045903  -0.978467  -0.599826   0.427090   0.696977  -0.053925
    35  C   -4.225218   0.499422   1.702675  -1.226119  -0.689745   0.107590
    36  C    1.579118  -0.275882  -0.574414   0.273568   0.070668  -0.048150
    37  C   -0.956086  -0.127437   0.215468  -0.111835  -0.002148   0.025730
    38  S    1.387971  -0.039739  -0.464483   0.307542   0.159466  -0.027357
    39  H   -0.108726   0.024006   0.066948  -0.059608  -0.012166   0.000292
    40  H    0.031052  -0.000196  -0.005525   0.005969   0.002201  -0.000921
    41  H   -0.038961  -0.002633   0.005162  -0.002664  -0.002729   0.000974
              25         26         27         28         29         30
     1  C    0.004063  -0.002887  -0.024768  -0.257597  -0.145250   0.008061
     2  C    0.001724  -0.000070  -0.010162  -0.067516  -0.034737   0.002612
     3  C   -0.015689  -0.000222   0.000039  -0.013497  -0.016518  -0.000214
     4  C    0.026569   0.000037  -0.000743  -0.003262  -0.000475   0.001032
     5  C   -0.007851  -0.001539  -0.009676  -0.134669  -0.048690   0.015811
     6  C   -0.017717  -0.019021   0.025156  -0.099824  -0.187925   0.004591
     7  H    0.000385  -0.000339  -0.009112  -0.036738  -0.024370  -0.001021
     8  H   -0.003040   0.000011   0.000267   0.002756   0.001715   0.000070
     9  C    0.000032  -0.125869   0.104274  -1.645997   0.332145   0.303639
    10  C   -0.002444   0.029677  -0.115490   1.544673  -0.746252  -0.679011
    11  C   -0.000343  -0.330501   0.197421   0.434506  -0.977847  -0.317719
    12  C   -0.000025  -0.392659   0.605557  -2.586131   0.116213   1.662127
    13  S    0.000421   0.016358  -0.174700  -1.200017   1.548135   0.205342
    14  H   -0.000445   0.005522  -0.007102   0.019532   0.007122  -0.004223
    15  H    0.000025  -0.000598  -0.005541   0.075353  -0.064238  -0.021142
    16  N    0.002208   0.000218  -0.000211   0.003283   0.004921  -0.000847
    17  N   -0.048162   0.000001  -0.000002  -0.000012  -0.000183  -0.000019
    18  S   -0.008011   0.000005  -0.000047  -0.000506  -0.000472   0.000190
    19  C   -0.016890   0.000000   0.000000  -0.000005   0.000031   0.000000
    20  C    0.000323   0.000000   0.000000   0.000002  -0.000026   0.000000
    21  C    0.421348  -0.000001  -0.000004  -0.000025  -0.000522  -0.000013
    22  C   -0.085778   0.000006  -0.000077  -0.001203   0.001449   0.000127
    23  S    0.012333   0.000000  -0.000013  -0.000138  -0.000111   0.000001
    24  H   -0.018738   0.000000   0.000000   0.000000   0.000001   0.000000
    25  H    0.540600   0.000000   0.000000   0.000006  -0.000020  -0.000002
    26  C    0.000000   6.905954  -1.636777   4.257005  -2.305513  -1.003170
    27  C    0.000000  -1.636777   9.988000  -7.293691   3.388874   1.671489
    28  C    0.000006   4.257005  -7.293691  26.589508 -11.154721  -5.278290
    29  C   -0.000020  -2.305513   3.388874 -11.154721  15.212065   2.029532
    30  S   -0.000002  -1.003170   1.671489  -5.278290   2.029532  18.169106
    31  H    0.000000   0.369205  -0.012067   0.080040  -0.027666  -0.088805
    32  H    0.000000  -0.130836   0.508479  -0.302088   0.167605   0.075424
    33  H    0.000001   0.069375  -0.272399   0.799742  -0.203614  -0.065375
    34  C   -0.008223   0.000000   0.000000   0.000000  -0.000003   0.000000
    35  C    0.001949   0.000000   0.000000   0.000000   0.000000   0.000000
    36  C   -0.000129   0.000000   0.000000   0.000000   0.000000   0.000000
    37  C    0.000104   0.000000   0.000000   0.000000   0.000000   0.000000
    38  S   -0.002079   0.000000   0.000000   0.000000   0.000000   0.000000
    39  H   -0.000027   0.000000   0.000000   0.000000   0.000000   0.000000
    40  H    0.000007   0.000000   0.000000   0.000000   0.000000   0.000000
    41  H    0.000028   0.000000   0.000000   0.000000   0.000000   0.000000
              31         32         33         34         35         36
     1  C   -0.000126   0.000016  -0.025411  -0.054078  -0.009551   0.008356
     2  C   -0.000013   0.000050  -0.010474  -0.056201  -0.143584   0.028310
     3  C   -0.000003   0.000014  -0.002247  -0.158545  -0.056767  -0.011211
     4  C   -0.000002   0.000004  -0.000382   0.004102  -0.036902   0.009014
     5  C   -0.000056   0.000085  -0.010609  -0.015037  -0.008449   0.001109
     6  C   -0.000408   0.000499   0.006379  -0.012980  -0.008813  -0.000512
     7  H   -0.000016   0.000138  -0.007219   0.001531   0.003196  -0.000268
     8  H    0.000000  -0.000010   0.000830  -0.009230  -0.039804   0.010495
     9  C   -0.002133   0.004929  -0.043183  -0.001567  -0.000671   0.000101
    10  C    0.004044  -0.002641   0.055089  -0.000521   0.000122  -0.000020
    11  C    0.000155   0.000397   0.015377  -0.000036   0.000008  -0.000001
    12  C   -0.019347   0.007615  -0.049002   0.000006  -0.000010   0.000001
    13  S   -0.001955   0.003824  -0.004647  -0.000188  -0.000302   0.000033
    14  H    0.000181  -0.000080   0.000617  -0.000009   0.000004  -0.000001
    15  H    0.000066  -0.000253  -0.001230   0.000000   0.000000   0.000000
    16  N    0.000007  -0.000002   0.000356   0.000023   0.000027  -0.000003
    17  N    0.000000   0.000000  -0.000004  -0.002087   0.000977  -0.000059
    18  S    0.000000   0.000000  -0.000020   0.000051  -0.000045   0.000157
    19  C    0.000000   0.000000  -0.000004   1.045903  -4.225218   1.579118
    20  C    0.000000   0.000000   0.000001  -0.978467   0.499422  -0.275882
    21  C    0.000000   0.000000  -0.000018  -0.599826   1.702675  -0.574414
    22  C    0.000000   0.000001  -0.000211   0.427090  -1.226119   0.273568
    23  S    0.000000   0.000001  -0.000044   0.696977  -0.689745   0.070668
    24  H    0.000000   0.000000   0.000000  -0.053925   0.107590  -0.048150
    25  H    0.000000   0.000000   0.000001  -0.008223   0.001949  -0.000129
    26  C    0.369205  -0.130836   0.069375   0.000000   0.000000   0.000000
    27  C   -0.012067   0.508479  -0.272399   0.000000   0.000000   0.000000
    28  C    0.080040  -0.302088   0.799742   0.000000   0.000000   0.000000
    29  C   -0.027666   0.167605  -0.203614  -0.000003   0.000000   0.000000
    30  S   -0.088805   0.075424  -0.065375   0.000000   0.000000   0.000000
    31  H    0.453524  -0.012416   0.003075   0.000000   0.000000   0.000000
    32  H   -0.012416   0.539763  -0.013589   0.000000   0.000000   0.000000
    33  H    0.003075  -0.013589   0.564154   0.000000   0.000000   0.000000
    34  C    0.000000   0.000000   0.000000  14.240816 -11.878795   5.513944
    35  C    0.000000   0.000000   0.000000 -11.878795  30.285127 -11.533412
    36  C    0.000000   0.000000   0.000000   5.513944 -11.533412  12.612682
    37  C    0.000000   0.000000   0.000000  -3.166168   6.172260  -3.139719
    38  S    0.000000   0.000000   0.000000   2.018461  -5.414007   2.277948
    39  H    0.000000   0.000000   0.000000  -0.449193   1.196944  -0.489113
    40  H    0.000000   0.000000   0.000000   0.249111  -0.486440   0.672390
    41  H    0.000000   0.000000   0.000000  -0.079157   0.196190  -0.127707
              37         38         39         40         41
     1  C   -0.001868   0.002680  -0.003921   0.000173  -0.000029
     2  C   -0.008625   0.024045  -0.011075   0.000339  -0.000188
     3  C   -0.012822   0.006790   0.000738   0.000492  -0.000365
     4  C   -0.001746   0.004991  -0.003858   0.000099  -0.000005
     5  C   -0.000589   0.001831  -0.001171   0.000027  -0.000010
     6  C   -0.000101   0.001378   0.000106   0.000007  -0.000004
     7  H    0.000145  -0.000290   0.000664  -0.000021   0.000002
     8  H   -0.004037   0.004115  -0.007951   0.000468  -0.000073
     9  C   -0.000034   0.000201  -0.000146   0.000003  -0.000001
    10  C    0.000003  -0.000027   0.000037   0.000000   0.000000
    11  C    0.000000  -0.000002   0.000002   0.000000   0.000000
    12  C    0.000000   0.000002  -0.000006   0.000000   0.000000
    13  S   -0.000010   0.000048  -0.000096   0.000002   0.000000
    14  H    0.000000  -0.000002   0.000001   0.000000   0.000000
    15  H    0.000000   0.000000   0.000000   0.000000   0.000000
    16  N    0.000001  -0.000009  -0.000008   0.000000   0.000000
    17  N    0.000003   0.000328  -0.000190   0.000008  -0.000001
    18  S   -0.000036   0.000135  -0.000080   0.000002   0.000000
    19  C   -0.956086   1.387971  -0.108726   0.031052  -0.038961
    20  C   -0.127437  -0.039739   0.024006  -0.000196  -0.002633
    21  C    0.215468  -0.464483   0.066948  -0.005525   0.005162
    22  C   -0.111835   0.307542  -0.059608   0.005969  -0.002664
    23  S   -0.002148   0.159466  -0.012166   0.002201  -0.002729
    24  H    0.025730  -0.027357   0.000292  -0.000921   0.000974
    25  H    0.000104  -0.002079  -0.000027   0.000007   0.000028
    26  C    0.000000   0.000000   0.000000   0.000000   0.000000
    27  C    0.000000   0.000000   0.000000   0.000000   0.000000
    28  C    0.000000   0.000000   0.000000   0.000000   0.000000
    29  C    0.000000   0.000000   0.000000   0.000000   0.000000
    30  S    0.000000   0.000000   0.000000   0.000000   0.000000
    31  H    0.000000   0.000000   0.000000   0.000000   0.000000
    32  H    0.000000   0.000000   0.000000   0.000000   0.000000
    33  H    0.000000   0.000000   0.000000   0.000000   0.000000
    34  C   -3.166168   2.018461  -0.449193   0.249111  -0.079157
    35  C    6.172260  -5.414007   1.196944  -0.486440   0.196190
    36  C   -3.139719   2.277948  -0.489113   0.672390  -0.127707
    37  C    7.789361  -1.429626   0.180217  -0.222940   0.459971
    38  S   -1.429626  17.812698  -0.084349   0.093993  -0.116016
    39  H    0.180217  -0.084349   0.603349  -0.026741   0.005842
    40  H   -0.222940   0.093993  -0.026741   0.552560  -0.018476
    41  H    0.459971  -0.116016   0.005842  -0.018476   0.461333
 Mulliken charges:
               1
     1  C   -0.719956
     2  C   -0.685289
     3  C    0.609668
     4  C   -0.261589
     5  C   -0.223172
     6  C    0.527795
     7  H    0.152767
     8  H    0.114774
     9  C   -0.004341
    10  C    0.380934
    11  C    0.427548
    12  C   -0.671374
    13  S   -1.371531
    14  H    0.254672
    15  H    0.168128
    16  N   -0.023752
    17  N   -0.076127
    18  S    0.443823
    19  C   -0.455380
    20  C    0.212504
    21  C    0.385310
    22  C    0.331216
    23  S   -1.071280
    24  H    0.171316
    25  H    0.223487
    26  C    0.296628
    27  C   -0.916972
    28  C    2.269518
    29  C   -0.870657
    30  S   -0.689303
    31  H    0.254715
    32  H    0.153072
    33  H    0.194687
    34  C   -0.673776
    35  C    1.592144
    36  C   -0.857293
    37  C    0.342565
    38  S   -0.526640
    39  H    0.179279
    40  H    0.152359
    41  H    0.259519
 Sum of Mulliken charges =   0.00000
 Mulliken charges with hydrogens summed into heavy atoms:
               1
     1  C   -0.567188
     2  C   -0.570514
     3  C    0.609668
     4  C   -0.261589
     5  C   -0.223172
     6  C    0.527795
     9  C   -0.004341
    10  C    0.635606
    11  C    0.595676
    12  C   -0.671374
    13  S   -1.371531
    16  N   -0.023752
    17  N   -0.076127
    18  S    0.443823
    19  C   -0.455380
    20  C    0.383820
    21  C    0.608797
    22  C    0.331216
    23  S   -1.071280
    26  C    0.551343
    27  C   -0.763900
    28  C    2.464205
    29  C   -0.870657
    30  S   -0.689303
    34  C   -0.673776
    35  C    1.771422
    36  C   -0.704934
    37  C    0.602084
    38  S   -0.526640
 Electronic spatial extent (au):  <R**2>=          28502.4130
 Charge=              0.0000 electrons
 Dipole moment (field-independent basis, Debye):
    X=             -0.0328    Y=             -1.5981    Z=              0.1195  Tot=              1.6029
 Quadrupole moment (field-independent basis, Debye-Ang):
   XX=           -168.9853   YY=           -188.6327   ZZ=           -210.2617
   XY=              0.1445   XZ=              3.3001   YZ=             -3.4666
 Traceless Quadrupole moment (field-independent basis, Debye-Ang):
   XX=             20.3079   YY=              0.6605   ZZ=            -20.9684
   XY=              0.1445   XZ=              3.3001   YZ=             -3.4666
 Octapole moment (field-independent basis, Debye-Ang**2):
  XXX=             -8.5032  YYY=             10.3491  ZZZ=              1.8506  XYY=            -26.9752
  XXY=           -146.3047  XXZ=            -28.0637  XZZ=             31.6375  YZZ=              2.9590
  YYZ=              1.4997  XYZ=            -44.1300
 Hexadecapole moment (field-independent basis, Debye-Ang**3):
 XXXX=         -30392.5514 YYYY=          -3810.0334 ZZZZ=           -533.9991 XXXY=           -205.2988
 XXXZ=            138.3646 YYYX=            136.0979 YYYZ=            -23.7894 ZZZX=             -6.7042
 ZZZY=            -18.8270 XXYY=          -6034.2606 XXZZ=          -6301.4224 YYZZ=           -781.6880
 XXYZ=            -62.6754 YYXZ=            100.5910 ZZXY=            -65.3285
 N-N= 3.017335447849D+03 E-N=-1.298589214514D+04  KE= 2.938308756403D+03
 1\1\GINC-LEWIS4-R630-HPC3-NODE243\SP\RB3LYP TD-FC\6-311++G(d,p)\C22H12
 N2S5\EPLUHAR\10-Nov-2016\0\\# td=(nstates=100) density=scf b3lyp/6-311
 ++G** geom=allcheck\\BT1\\0,1\C,0.6925106937,-0.6961749685,-0.36758808
 14\C,-0.723080735,-0.6845226934,-0.3179881414\C,-1.481529338,0.4667998
 204,-0.1714315245\C,-0.7246729699,1.7033109071,-0.1122885887\C,0.74660
 75191,1.6931631419,-0.1801602358\C,1.4785949469,0.4425447762,-0.281417
 295\H,1.1755561209,-1.6589143495,-0.4621518198\H,-1.2281112851,-1.6392
 204406,-0.3695062855\C,2.9250207608,0.3974932804,-0.2582166984\C,3.853
 723232,1.4113960965,-0.3272212318\C,5.2081830123,0.9984061516,-0.22672
 98236\C,5.3986080696,-0.3543402829,-0.0656781922\S,3.7884578279,-1.210
 8890557,-0.0530707733\H,3.5522968977,2.4394523221,-0.4361666271\H,6.03
 27089253,1.6955156919,-0.2605176389\N,1.3248033968,2.891502408,-0.1333
 670743\N,-1.2818475922,2.908939525,-0.0075698217\S,0.031030435,4.10811
 32203,0.0043693974\C,-5.4199832753,-0.2507836285,0.0101030731\C,-5.160
 4917539,1.0215528261,0.4551297569\C,-3.7932423185,1.408464521,0.413988
 2588\C,-2.9264188228,0.4459589529,-0.0540227525\S,-3.8669602784,-1.063
 7322404,-0.4971562106\H,-5.9475682726,1.6815021291,0.7921651537\H,-3.4
 426783715,2.3821779941,0.7119691296\C,9.0517713809,-1.8137804566,0.422
 5652683\C,8.1615629463,-2.8415419585,0.4937258941\C,6.7961130796,-2.44
 54574408,0.3233991383\C,6.6102500015,-1.1001554103,0.1147705695\S,8.22
 95288493,-0.2385602626,0.123827647\H,10.1224407168,-1.8289867514,0.517
 7446278\H,8.4613210613,-3.8640836369,0.6691366594\H,5.97175806,-3.1435
 98677,0.3589859637\C,-6.666138775,-0.9631861582,-0.081375393\C,-7.0855
 632813,-1.9000799342,-0.9927483414\C,-8.408839098,-2.3988052425,-0.771
 1828963\C,-9.0264417823,-1.8669041299,0.3178817326\S,-7.9743074817,-0.
 677671584,1.1687607422\H,-6.4692150693,-2.2050125563,-1.8279198497\H,-
 8.8803318205,-3.1269486926,-1.4149416413\H,-10.0121181848,-2.051286825
 2,0.6989807816\\Version=ES64L-G09RevD.01\State=1-A\HF=-2946.3057341\RM
 SD=7.506e-09\PG=C01 [X(C22H12N2S5)]\\@


 BE LIKE A POSTAGE STAMP.  STICK TO ONE THING UNTIL
 YOU GET THERE -- JOSH BILLINGS
 Job cpu time:       1 days 23 hours 52 minutes 43.1 seconds.
 File lengths (MBytes):  RWF=   9941 Int=      0 D2E=      0 Chk=   1689 Scr=      1
 Normal termination of Gaussian 09 at Thu Nov 10 14:39:53 2016.
