 Entering Gaussian System, Link 0=g09
 Initial command:
 /cluster/software/gaussian/gaussian-09-D.01/g09/l1.exe "/local/scratch/epluhar/Gau-1476.inp" -scrdir="/local/scratch/epluhar/"
 Entering Link 1 = /cluster/software/gaussian/gaussian-09-D.01/g09/l1.exe PID=      1477.
  
 Copyright (c) 1988,1990,1992,1993,1995,1998,2003,2009,2013,
            Gaussian, Inc.  All Rights Reserved.
  
 This is part of the Gaussian(R) 09 program.  It is based on
 the Gaussian(R) 03 system (copyright 2003, Gaussian, Inc.),
 the Gaussian(R) 98 system (copyright 1998, Gaussian, Inc.),
 the Gaussian(R) 94 system (copyright 1995, Gaussian, Inc.),
 the Gaussian 92(TM) system (copyright 1992, Gaussian, Inc.),
 the Gaussian 90(TM) system (copyright 1990, Gaussian, Inc.),
 the Gaussian 88(TM) system (copyright 1988, Gaussian, Inc.),
 the Gaussian 86(TM) system (copyright 1986, Carnegie Mellon
 University), and the Gaussian 82(TM) system (copyright 1983,
 Carnegie Mellon University). Gaussian is a federally registered
 trademark of Gaussian, Inc.
  
 This software contains proprietary and confidential information,
 including trade secrets, belonging to Gaussian, Inc.
  
 This software is provided under written license and may be
 used, copied, transmitted, or stored only in accord with that
 written license.
  
 The following legend is applicable only to US Government
 contracts under FAR:
  
                    RESTRICTED RIGHTS LEGEND
  
 Use, reproduction and disclosure by the US Government is
 subject to restrictions as set forth in subparagraphs (a)
 and (c) of the Commercial Computer Software - Restricted
 Rights clause in FAR 52.227-19.
  
 Gaussian, Inc.
 340 Quinnipiac St., Bldg. 40, Wallingford CT 06492
  
  
 ---------------------------------------------------------------
 Warning -- This program may not be used in any manner that
 competes with the business of Gaussian, Inc. or will provide
 assistance to any competitor of Gaussian, Inc.  The licensee
 of this program is prohibited from giving any competitor of
 Gaussian, Inc. access to this program.  By using this program,
 the user acknowledges that Gaussian, Inc. is engaged in the
 business of creating and licensing software in the field of
 computational chemistry and represents and warrants to the
 licensee that it is not a competitor of Gaussian, Inc. and that
 it will not use this program in any manner prohibited above.
 ---------------------------------------------------------------
  

 Cite this work as:
 Gaussian 09, Revision D.01,
 M. J. Frisch, G. W. Trucks, H. B. Schlegel, G. E. Scuseria, 
 M. A. Robb, J. R. Cheeseman, G. Scalmani, V. Barone, B. Mennucci, 
 G. A. Petersson, H. Nakatsuji, M. Caricato, X. Li, H. P. Hratchian, 
 A. F. Izmaylov, J. Bloino, G. Zheng, J. L. Sonnenberg, M. Hada, 
 M. Ehara, K. Toyota, R. Fukuda, J. Hasegawa, M. Ishida, T. Nakajima, 
 Y. Honda, O. Kitao, H. Nakai, T. Vreven, J. A. Montgomery, Jr., 
 J. E. Peralta, F. Ogliaro, M. Bearpark, J. J. Heyd, E. Brothers, 
 K. N. Kudin, V. N. Staroverov, T. Keith, R. Kobayashi, J. Normand, 
 K. Raghavachari, A. Rendell, J. C. Burant, S. S. Iyengar, J. Tomasi, 
 M. Cossi, N. Rega, J. M. Millam, M. Klene, J. E. Knox, J. B. Cross, 
 V. Bakken, C. Adamo, J. Jaramillo, R. Gomperts, R. E. Stratmann, 
 O. Yazyev, A. J. Austin, R. Cammi, C. Pomelli, J. W. Ochterski, 
 R. L. Martin, K. Morokuma, V. G. Zakrzewski, G. A. Voth, 
 P. Salvador, J. J. Dannenberg, S. Dapprich, A. D. Daniels, 
 O. Farkas, J. B. Foresman, J. V. Ortiz, J. Cioslowski, 
 and D. J. Fox, Gaussian, Inc., Wallingford CT, 2013.
 
 ******************************************
 Gaussian 09:  ES64L-G09RevD.01 24-Apr-2013
                 6-Dec-2016 
 ******************************************
 %nprocshared=24
 Will use up to   24 processors via shared memory.
 %mem=100GB
 %oldchk=BT1
 %chk=BTtd-wb97xd
 Copying data from "BT1.chk" to current chk file "BTtd-wb97xd.chk".
 ----------------------------------------------------------------------
 # wb97xd/6-311++g** td=(singlet,nstates=70) geom=check density=current
 ----------------------------------------------------------------------
 1/29=2,30=1,38=1/1;
 2/12=2,40=1/2;
 3/5=4,6=6,7=1111,11=9,14=-4,16=1,25=1,30=1,71=1,74=-58/1,2,8,3;
 4//1;
 5/5=2,38=5/2;
 8/6=1,10=2,108=70/1;
 9/15=1,41=70,42=1,48=1,70=2/14;
 10/5=4,13=10/2;
 6/7=2,8=2,9=2,10=2,22=-1/1;
 99/5=1,9=1/99;
 ---
 BT1
 ---
 Structure from the checkpoint file:  "BTtd-wb97xd.chk"
 Charge =  0 Multiplicity = 1
 No Z-Matrix found in file; cartesian coordinates used.
  C                                                 0.692510693658     -0.696174968455     -0.367588081414
  C                                                -0.723080734996     -0.684522693419     -0.317988141383
  C                                                -1.481529337957      0.466799820406     -0.171431524476
  C                                                -0.724672969878      1.703310907056     -0.112288588672
  C                                                 0.746607519097      1.693163141872     -0.180160235835
  C                                                 1.478594946920      0.442544776190     -0.281417295001
  H                                                 1.175556120891     -1.658914349492     -0.462151819773
  H                                                -1.228111285113     -1.639220440626     -0.369506285540
  C                                                 2.925020760764      0.397493280355     -0.258216698358
  C                                                 3.853723232046      1.411396096517     -0.327221231751
  C                                                 5.208183012311      0.998406151590     -0.226729823627
  C                                                 5.398608069570     -0.354340282854     -0.065678192203
  S                                                 3.788457827857     -1.210889055717     -0.053070773252
  H                                                 3.552296897723      2.439452322097     -0.436166627060
  H                                                 6.032708925267      1.695515691893     -0.260517638931
  N                                                 1.324803396810      2.891502407987     -0.133367074298
  N                                                -1.281847592199      2.908939525000     -0.007569821737
  S                                                 0.031030434980      4.108113220318      0.004369397428
  C                                                -5.419983275287     -0.250783628484      0.010103073115
  C                                                -5.160491753886      1.021552826125      0.455129756949
  C                                                -3.793242318533      1.408464521029      0.413988258832
  C                                                -2.926418822811      0.445958952872     -0.054022752492
  S                                                -3.866960278378     -1.063732240391     -0.497156210627
  H                                                -5.947568272603      1.681502129057      0.792165153688
  H                                                -3.442678371528      2.382177994100      0.711969129640
  C                                                 9.051771380872     -1.813780456570      0.422565268251
  C                                                 8.161562946275     -2.841541958516      0.493725894132
  C                                                 6.796113079606     -2.445457440826      0.323399138328
  C                                                 6.610250001519     -1.100155410332      0.114770569471
  S                                                 8.229528849336     -0.238560262558      0.123827646985
  H                                                10.122440716807     -1.828986751410      0.517744627831
  H                                                 8.461321061339     -3.864083636866      0.669136659381
  H                                                 5.971758060021     -3.143598677041      0.358985963713
  C                                                -6.666138775039     -0.963186158226     -0.081375393048
  C                                                -7.085563281325     -1.900079934215     -0.992748341399
  C                                                -8.408839098013     -2.398805242488     -0.771182896338
  C                                                -9.026441782338     -1.866904129866      0.317881732619
  S                                                -7.974307481665     -0.677671583968      1.168760742246
  H                                                -6.469215069284     -2.205012556307     -1.827919849677
  H                                                -8.880331820540     -3.126948692632     -1.414941641290
  H                                               -10.012118184779     -2.051286825211      0.698980781581
 Recover connectivity data from disk.
                          Input orientation:                          
 ---------------------------------------------------------------------
 Center     Atomic      Atomic             Coordinates (Angstroms)
 Number     Number       Type             X           Y           Z
 ---------------------------------------------------------------------
      1          6           0        0.692511   -0.696175   -0.367588
      2          6           0       -0.723081   -0.684523   -0.317988
      3          6           0       -1.481529    0.466800   -0.171432
      4          6           0       -0.724673    1.703311   -0.112289
      5          6           0        0.746608    1.693163   -0.180160
      6          6           0        1.478595    0.442545   -0.281417
      7          1           0        1.175556   -1.658914   -0.462152
      8          1           0       -1.228111   -1.639220   -0.369506
      9          6           0        2.925021    0.397493   -0.258217
     10          6           0        3.853723    1.411396   -0.327221
     11          6           0        5.208183    0.998406   -0.226730
     12          6           0        5.398608   -0.354340   -0.065678
     13         16           0        3.788458   -1.210889   -0.053071
     14          1           0        3.552297    2.439452   -0.436167
     15          1           0        6.032709    1.695516   -0.260518
     16          7           0        1.324803    2.891502   -0.133367
     17          7           0       -1.281848    2.908940   -0.007570
     18         16           0        0.031030    4.108113    0.004369
     19          6           0       -5.419983   -0.250784    0.010103
     20          6           0       -5.160492    1.021553    0.455130
     21          6           0       -3.793242    1.408465    0.413988
     22          6           0       -2.926419    0.445959   -0.054023
     23         16           0       -3.866960   -1.063732   -0.497156
     24          1           0       -5.947568    1.681502    0.792165
     25          1           0       -3.442678    2.382178    0.711969
     26          6           0        9.051771   -1.813780    0.422565
     27          6           0        8.161563   -2.841542    0.493726
     28          6           0        6.796113   -2.445457    0.323399
     29          6           0        6.610250   -1.100155    0.114771
     30         16           0        8.229529   -0.238560    0.123828
     31          1           0       10.122441   -1.828987    0.517745
     32          1           0        8.461321   -3.864084    0.669137
     33          1           0        5.971758   -3.143599    0.358986
     34          6           0       -6.666139   -0.963186   -0.081375
     35          6           0       -7.085563   -1.900080   -0.992748
     36          6           0       -8.408839   -2.398805   -0.771183
     37          6           0       -9.026442   -1.866904    0.317882
     38         16           0       -7.974307   -0.677672    1.168761
     39          1           0       -6.469215   -2.205013   -1.827920
     40          1           0       -8.880332   -3.126949   -1.414942
     41          1           0      -10.012118   -2.051287    0.698981
 ---------------------------------------------------------------------
                    Distance matrix (angstroms):
                    1          2          3          4          5
     1  C    0.000000
     2  C    1.416508   0.000000
     3  C    2.473345   1.386458   0.000000
     4  C    2.798414   2.396678   1.450961   0.000000
     5  C    2.397289   2.798637   2.543352   1.472880   0.000000
     6  C    1.386375   2.473660   2.962266   2.544116   1.452620
     7  H    1.081269   2.138935   3.415155   3.877865   3.391156
     8  H    2.139656   1.081276   2.130440   3.390004   3.878163
     9  C    2.488408   3.805650   4.407950   3.879010   2.535811
    10  C    3.799572   5.033895   5.420466   4.592725   3.123330
    11  C    4.825219   6.166074   6.711029   5.975681   4.515585
    12  C    4.728145   6.135777   6.929772   6.459928   5.083944
    13  S    3.154162   4.549860   5.531854   5.372562   4.207437
    14  H    4.244436   5.296418   5.413026   4.351927   2.914512
    15  H    5.852296   7.163001   7.614556   6.759012   5.286713
    16  N    3.650491   4.125030   3.708926   2.369092   1.331359
    17  N    4.126082   3.649870   2.455763   1.332272   2.371187
    18  S    4.863856   4.862300   3.946886   2.523444   2.525487
    19  C    6.140326   4.728284   4.007406   5.087180   6.468537
    20  C    6.155087   4.816536   3.772942   4.523632   5.979003
    21  C    5.016209   3.787120   2.563877   3.127302   4.587407
    22  C    3.807814   2.490455   1.449802   2.536141   3.881050
    23  S    4.576097   3.171731   2.852877   4.204595   5.383862
    24  H    7.147659   5.841728   4.727528   5.300674   6.764432
    25  H    5.267019   4.226308   2.880135   2.920242   4.338289
    26  C    8.470574   9.867694  10.793716  10.403599   9.035357
    27  C    7.818645   9.178698  10.216496   9.999406   8.717754
    28  C    6.386816   7.749229   8.788940   8.600251   7.346991
    29  C    5.951093   7.357837   8.247069   7.855703   6.501686
    30  S    7.566871   8.974592   9.741117   9.165388   7.734215
    31  H    9.538902  10.937714  11.848954  11.425145  10.039864
    32  H    8.453689   9.769200  10.877655  10.769819   9.545737
    33  H    5.864149   7.164232   8.298663   8.279905   7.140528
    34  C    7.369052   5.954291   5.378954   6.512463   7.874945
    35  C    7.895483   6.512608   6.138557   7.363461   8.655322
    36  C    9.268031   7.887651   7.520573   8.735440  10.045681
    37  C    9.813181   8.411193   7.912731   9.047146  10.413194
    38  S    8.801957   7.402078   6.727711   7.737400   9.137549
    39  H    7.463208   6.132686   5.895723   7.156685   8.365344
    40  H    9.932015   8.585424   8.318872   9.567815  10.836795
    41  H   10.842646   9.443966   8.936964  10.050463  11.425584
                    6          7          8          9         10
     6  C    0.000000
     7  H    2.130875   0.000000
     8  H    3.415811   2.405533   0.000000
     9  C    1.447313   2.707587   4.626996   0.000000
    10  C    2.565542   4.076468   5.927317   1.376680   0.000000
    11  C    3.771180   4.835169   6.957251   2.361126   1.419585
    12  C    4.006004   4.437710   6.756970   2.592481   2.360699
    13  S    2.849816   2.682411   5.044756   1.836982   2.637385
    14  H    2.883024   4.737740   6.284291   2.143534   1.076860
    15  H    4.723381   5.906335   7.990735   3.367877   2.198443
    16  N    2.458244   4.564720   5.205822   2.965867   2.936619
    17  N    3.711891   5.206800   4.562855   4.905907   5.359002
    18  S    3.951393   5.897982   5.895512   4.713049   4.689906
    19  C    6.939457   6.760695   4.432116   8.374446   9.427527
    20  C    6.704866   6.940592   4.819062   8.140874   9.056496
    21  C    5.404522   5.904692   4.059821   6.827077   7.682804
    22  C    4.410880   4.628527   2.707721   5.855202   6.853979
    23  S    5.557911   5.077641   2.703887   6.951495   8.109506
    24  H    7.604965   7.966843   5.886421   9.026340   9.868703
    25  H    5.382186   6.247966   4.716518   6.740017   7.433694
    26  C    7.933448   7.927261  10.311830   6.549066   6.163088
    27  C    7.486530   7.149588   9.505616   6.203075   6.108921
    28  C    6.081312   5.729433   8.094338   4.837975   4.894516
    29  C    5.373153   5.493719   7.871787   3.995371   3.755221
    30  S    6.797296   7.219370   9.573515   5.356149   4.698242
    31  H    8.972992   9.001992  11.386758   7.573783   7.107100
    32  H    8.258878   7.695775   9.995694   7.047811   7.074841
    33  H    5.784380   5.087446   7.391344   4.711993   5.070003
    34  C    8.267574   7.881701   5.487457   9.688811  10.787334
    35  C    8.907227   8.281654   5.896289  10.297095  11.448877
    36  C   10.299247   9.617878   7.231954  11.684982  12.848547
    37  C   10.772581  10.233888   7.831877  12.177719  13.306467
    38  S    9.628877   9.345733   6.985843  11.044800  12.103903
    39  H    8.518739   7.784990   5.469576   9.873635  11.040542
    40  H   11.015150  10.207047   7.865288  12.374411  13.562296
    41  H   11.799020  11.254610   8.858343  13.201603  14.328462
                   11         12         13         14         15
    11  C    0.000000
    12  C    1.375544   0.000000
    13  S    2.631874   1.823847   0.000000
    14  H    2.205093   3.369184   3.677979   0.000000
    15  H    1.080253   2.154520   3.677891   2.595523   0.000000
    16  N    4.321246   5.209219   4.785985   2.292981   4.859108
    17  N    6.768949   7.435110   6.533227   4.875763   7.418835
    18  S    6.043723   6.980637   6.512553   3.921456   6.473866
    19  C   10.703947  10.819352   9.258573   9.377544  11.620046
    20  C   10.391096  10.661093   9.237195   8.872290  11.236286
    21  C    9.033511   9.371642   8.035007   7.466100   9.853257
    22  C    8.155168   8.363414   6.916265   6.789242   9.048204
    23  S    9.310412   9.302697   7.669700   8.204962  10.279732
    24  H   11.222992  11.559250  10.191690   9.608888  12.026445
    25  H    8.810981   9.287713   8.110780   7.088806   9.549880
    26  C    4.806574   3.964082   5.319039   7.005114   4.679370
    27  C    4.897623   3.759392   4.699156   7.070992   5.068116
    28  C    3.832018   2.545029   3.272901   5.912836   4.251047
    29  C    2.546836   1.434182   2.828947   4.709929   2.879266
    30  S    3.283521   2.839618   4.549706   5.418657   2.952014
    31  H    5.718245   4.982927   6.389618   7.892801   5.454697
    32  H    5.918555   4.715767   5.421870   8.065654   6.137716
    33  H    4.252330   2.879028   2.944819   6.136491   4.878988
    34  C   12.036133  12.080110  10.457569  10.775911  12.975420
    35  C   12.654019  12.613616  10.936284  11.502408  13.621804
    36  C   14.044955  13.975807  12.276029  12.906965  15.019406
    37  C   14.530353  14.509205  12.837041  13.316830  15.485587
    38  S   13.361687  13.433661  11.838067  12.048023  14.278353
    39  H   12.214226  12.139840  10.457448  11.132777  13.189730
    40  H   14.728091  14.608080  12.885038  13.656979  15.715840
    41  H   15.550406  15.522719  13.846579  14.333480  16.504413
                   16         17         18         19         20
    16  N    0.000000
    17  N    2.609743   0.000000
    18  S    1.781281   1.778148   0.000000
    19  C    7.442224   5.206566   6.979510   0.000000
    20  C    6.775108   4.338225   6.056562   1.372671   0.000000
    21  C    5.356621   2.955713   4.699037   2.358498   1.421536
    22  C    4.905086   2.961933   4.707578   2.589870   2.362547
    23  S    6.536867   4.764937   6.495679   1.824850   2.632202
    24  H    7.430215   4.890310   6.500208   2.150278   1.081025
    25  H    4.868561   2.337606   3.942867   3.366725   2.206388
    26  C    9.063928  11.369819  10.798957  14.561757  14.492363
    27  C    8.944402  11.067852  10.707135  13.834895  13.870910
    28  C    7.656827   9.697039   9.424299  12.415626  12.449816
    29  C    6.628035   8.852853   8.391924  12.060634  11.965277
    30  S    7.585425  10.019496   9.280260  13.649991  13.453263
    31  H   10.005268  12.360489  11.719611  15.630591  15.546624
    32  H    9.859606  11.885332  11.621860  14.359000  14.473045
    33  H    7.632761   9.454225   9.381115  11.758481  11.886325
    34  C    8.872231   6.632450   8.401042   1.438329   2.548333
    35  C    9.717616   7.601339   9.366885   2.549519   3.786580
    36  C   11.096754   8.919040  10.685170   3.762667   4.873854
    37  C   11.401506   9.104578  10.855272   3.963977   4.827794
    38  S   10.045298   7.683525   9.399201   2.837128   3.363657
    39  H    9.465342   7.508326   9.244784   2.880664   4.163628
    40  H   11.916752   9.805590  11.566025   4.719861   5.877452
    41  H   12.395554  10.065818  11.801929   4.980368   5.748051
                   21         22         23         24         25
    21  C    0.000000
    22  C    1.377256   0.000000
    23  S    2.635787   1.833072   0.000000
    24  H    2.204243   3.371935   3.677987   0.000000
    25  H    1.076943   2.145277   3.676452   2.602278   0.000000
    26  C   13.243010  12.198795  12.973129  15.405642  13.183364
    27  C   12.688037  11.578041  12.199501  14.819399  12.727659
    28  C   11.269222  10.150387  10.783488  13.403468  11.326513
    29  C   10.705856   9.662661  10.495128  12.880034  10.655734
    30  S   12.138530  11.178344  12.140493  14.322130  11.977253
    31  H   14.287690  13.258018  14.047027  16.451262  14.205073
    32  H   13.343133  12.197543  12.696012  15.439713  13.443319
    33  H   10.774021   9.603804  10.092532  12.866219  10.922015
    34  C    3.758144   3.996491   2.831675   2.876420   4.712914
    35  C    4.874910   4.866579   3.362216   4.160370   5.874896
    36  C    6.099481   6.218033   4.741959   5.015059   7.051262
    37  C    6.174435   6.534365   5.284848   4.721821   7.027689
    38  S    4.733176   5.314031   4.449115   3.132921   5.486985
    39  H    5.024361   4.767155   3.137703   4.716138   6.054195
    40  H    7.056446   7.075793   5.498462   6.049266   8.027596
    41  H    7.122185   7.550522   6.337900   5.519326   7.925485
                   26         27         28         29         30
    26  C    0.000000
    27  C    1.361554   0.000000
    28  C    2.344535   1.431903   0.000000
    29  C    2.562230   2.362754   1.374012   0.000000
    30  S    1.801845   2.630011   2.639111   1.834255   0.000000
    31  H    1.074999   2.207009   3.388549   3.609580   2.503546
    32  H    2.147830   1.079915   2.214713   3.372400   3.673623
    33  H    3.355435   2.214642   1.080846   2.154756   3.686743
    34  C   15.748974  14.957262  13.549657  13.278544  14.914694
    35  C   16.199510  15.348316  13.954591  13.763785  15.445369
    36  C   17.511145  16.624507  15.244371  15.101140  16.801875
    37  C   18.078594  17.216514  15.833130  15.656797  17.333715
    38  S   17.080249  16.294303  14.899833  14.628695  16.243430
    39  H   15.688173  14.827504  13.440793  13.269030  14.957584
    40  H   18.073770  17.150821  15.787248  15.697326  17.420044
    41  H   19.067373  18.192012  16.817047  16.659804  18.340514
                   31         32         33         34         35
    31  H    0.000000
    32  H    2.631322   0.000000
    33  H    4.356785   2.610214   0.000000
    34  C   16.821562  15.421366  12.832169   0.000000
    35  C   17.274317  15.758324  13.185870   1.372694   0.000000
    36  C   18.584788  16.994819  14.444154   2.360898   1.431390
    37  C   19.149963  17.604941  15.052496   2.558738   2.342192
    38  S   18.145017  16.749111  14.185531   1.831847   2.637474
    39  H   16.760865  15.228549  12.666543   2.152052   1.081841
    40  H   19.144852  17.481981  14.957663   3.370893   2.214644
    41  H   20.136602  18.562195  16.024763   3.603956   3.383716
                   36         37         38         39         40
    36  C    0.000000
    37  C    1.360299   0.000000
    38  S    2.629544   1.801459   0.000000
    39  H    2.217293   3.355323   3.684857   0.000000
    40  H    1.080242   2.147496   3.673603   2.614192   0.000000
    41  H    2.202874   1.072749   2.502036   4.354425   2.628052
                   41
    41  H    0.000000
 Stoichiometry    C22H12N2S5
 Framework group  C1[X(C22H12N2S5)]
 Deg. of freedom   117
 Full point group                 C1      NOp   1
 Largest Abelian subgroup         C1      NOp   1
 Largest concise Abelian subgroup C1      NOp   1
                         Standard orientation:                         
 ---------------------------------------------------------------------
 Center     Atomic      Atomic             Coordinates (Angstroms)
 Number     Number       Type             X           Y           Z
 ---------------------------------------------------------------------
      1          6           0       -0.692511   -0.696175    0.367588
      2          6           0        0.723081   -0.684523    0.317988
      3          6           0        1.481529    0.466800    0.171432
      4          6           0        0.724673    1.703311    0.112289
      5          6           0       -0.746608    1.693163    0.180160
      6          6           0       -1.478595    0.442545    0.281417
      7          1           0       -1.175556   -1.658914    0.462152
      8          1           0        1.228111   -1.639220    0.369506
      9          6           0       -2.925021    0.397493    0.258217
     10          6           0       -3.853723    1.411396    0.327221
     11          6           0       -5.208183    0.998406    0.226730
     12          6           0       -5.398608   -0.354340    0.065678
     13         16           0       -3.788458   -1.210889    0.053071
     14          1           0       -3.552297    2.439452    0.436167
     15          1           0       -6.032709    1.695516    0.260518
     16          7           0       -1.324803    2.891502    0.133367
     17          7           0        1.281848    2.908940    0.007570
     18         16           0       -0.031030    4.108113   -0.004369
     19          6           0        5.419983   -0.250784   -0.010103
     20          6           0        5.160492    1.021553   -0.455130
     21          6           0        3.793242    1.408465   -0.413988
     22          6           0        2.926419    0.445959    0.054023
     23         16           0        3.866960   -1.063732    0.497156
     24          1           0        5.947568    1.681502   -0.792165
     25          1           0        3.442678    2.382178   -0.711969
     26          6           0       -9.051771   -1.813780   -0.422565
     27          6           0       -8.161563   -2.841542   -0.493726
     28          6           0       -6.796113   -2.445457   -0.323399
     29          6           0       -6.610250   -1.100155   -0.114771
     30         16           0       -8.229529   -0.238560   -0.123828
     31          1           0      -10.122441   -1.828987   -0.517745
     32          1           0       -8.461321   -3.864084   -0.669137
     33          1           0       -5.971758   -3.143599   -0.358986
     34          6           0        6.666139   -0.963186    0.081375
     35          6           0        7.085563   -1.900080    0.992748
     36          6           0        8.408839   -2.398805    0.771183
     37          6           0        9.026442   -1.866904   -0.317882
     38         16           0        7.974307   -0.677672   -1.168761
     39          1           0        6.469215   -2.205013    1.827920
     40          1           0        8.880332   -3.126949    1.414942
     41          1           0       10.012118   -2.051287   -0.698981
 ---------------------------------------------------------------------
 Rotational constants (GHZ):      0.3165131      0.0371033      0.0336507
 Standard basis: 6-311++G(d,p) (5D, 7F)
 There are   791 symmetry adapted cartesian basis functions of A   symmetry.
 There are   762 symmetry adapted basis functions of A   symmetry.
   762 basis functions,  1222 primitive gaussians,   791 cartesian basis functions
   119 alpha electrons      119 beta electrons
       nuclear repulsion energy      3017.3354478488 Hartrees.
 NAtoms=   41 NActive=   41 NUniq=   41 SFac= 1.00D+00 NAtFMM=   60 NAOKFM=F Big=F
 Integral buffers will be    131072 words long.
 Raffenetti 1 integral format.
 Two-electron integral symmetry is turned on.
 Nuclear repulsion after empirical dispersion term =     3017.3092610311 Hartrees.
 One-electron integrals computed using PRISM.
 NBasis=   762 RedAO= T EigKep=  1.44D-06  NBF=   762
 NBsUse=   752 1.00D-06 EigRej=  6.69D-07 NBFU=   752
 ExpMin= 3.60D-02 ExpMax= 9.34D+04 ExpMxC= 3.17D+03 IAcc=3 IRadAn=         5 AccDes= 0.00D+00
 Harris functional with IExCor= 4639 and IRadAn=       5 diagonalized for initial guess.
 HarFok:  IExCor= 4639 AccDes= 0.00D+00 IRadAn=         5 IDoV= 1 UseB2=F ITyADJ=14
 ICtDFT=  3500011 ScaDFX=  1.000000  1.000000  1.000000  1.000000
 FoFCou: FMM=F IPFlag=           0 FMFlag=      100000 FMFlg1=           0
         NFxFlg=           0 DoJE=T BraDBF=F KetDBF=T FulRan=T
         wScrn=  0.000000 ICntrl=     500 IOpCl=  0 I1Cent=   200000004 NGrid=           0
         NMat0=    1 NMatS0=      1 NMatT0=    0 NMatD0=    1 NMtDS0=    0 NMtDT0=    0
 Petite list used in FoFCou.
 Requested convergence on RMS density matrix=1.00D-08 within 128 cycles.
 Requested convergence on MAX density matrix=1.00D-06.
 Requested convergence on             energy=1.00D-06.
 No special actions if energy rises.
 SCF Done:  E(RwB97XD) =  -2945.84812757     A.U. after   19 cycles
            NFock= 19  Conv=0.91D-08     -V/T= 2.0027
 DoSCS=F DFT=T ScalE2(SS,OS)=  1.000000  1.000000
 ExpMin= 3.60D-02 ExpMax= 9.34D+04 ExpMxC= 3.17D+03 IAcc=3 IRadAn=         5 AccDes= 0.00D+00
 HarFok:  IExCor=  205 AccDes= 0.00D+00 IRadAn=         5 IDoV=-2 UseB2=F ITyADJ=14
 ICtDFT= 12500011 ScaDFX=  1.000000  1.000000  1.000000  1.000000
 Range of M.O.s used for correlation:    50   752
 NBasis=   762 NAE=   119 NBE=   119 NFC=    49 NFV=     0
 NROrb=    703 NOA=    70 NOB=    70 NVA=   633 NVB=   633

 **** Warning!!: The largest alpha MO coefficient is  0.13921953D+03

 Would need an additional        257722100000 words for in-memory AO integral storage.
 Orbital symmetries:
       Occupied  (A) (A) (A) (A) (A) (A) (A) (A) (A) (A) (A) (A)
                 (A) (A) (A) (A) (A) (A) (A) (A) (A) (A) (A) (A)
                 (A) (A) (A) (A) (A) (A) (A) (A) (A) (A) (A) (A)
                 (A) (A) (A) (A) (A) (A) (A) (A) (A) (A) (A) (A)
                 (A) (A) (A) (A) (A) (A) (A) (A) (A) (A) (A) (A)
                 (A) (A) (A) (A) (A) (A) (A) (A) (A) (A) (A) (A)
                 (A) (A) (A) (A) (A) (A) (A) (A) (A) (A) (A) (A)
                 (A) (A) (A) (A) (A) (A) (A) (A) (A) (A) (A) (A)
                 (A) (A) (A) (A) (A) (A) (A) (A) (A) (A) (A) (A)
                 (A) (A) (A) (A) (A) (A) (A) (A) (A) (A) (A)
       Virtual   (A) (A) (A) (A) (A) (A) (A) (A) (A) (A) (A) (A)
                 (A) (A) (A) (A) (A) (A) (A) (A) (A) (A) (A) (A)
                 (A) (A) (A) (A) (A) (A) (A) (A) (A) (A) (A) (A)
                 (A) (A) (A) (A) (A) (A) (A) (A) (A) (A) (A) (A)
                 (A) (A) (A) (A) (A) (A) (A) (A) (A) (A) (A) (A)
                 (A) (A) (A) (A) (A) (A) (A) (A) (A) (A) (A) (A)
                 (A) (A) (A) (A) (A) (A) (A) (A) (A) (A) (A) (A)
                 (A) (A) (A) (A) (A) (A) (A) (A) (A) (A) (A) (A)
                 (A) (A) (A) (A) (A) (A) (A) (A) (A) (A) (A) (A)
                 (A) (A) (A) (A) (A) (A) (A) (A) (A) (A) (A) (A)
                 (A) (A) (A) (A) (A) (A) (A) (A) (A) (A) (A) (A)
                 (A) (A) (A) (A) (A) (A) (A) (A) (A) (A) (A) (A)
                 (A) (A) (A) (A) (A) (A) (A) (A) (A) (A) (A) (A)
                 (A) (A) (A) (A) (A) (A) (A) (A) (A) (A) (A) (A)
                 (A) (A) (A) (A) (A) (A) (A) (A) (A) (A) (A) (A)
                 (A) (A) (A) (A) (A) (A) (A) (A) (A) (A) (A) (A)
                 (A) (A) (A) (A) (A) (A) (A) (A) (A) (A) (A) (A)
                 (A) (A) (A) (A) (A) (A) (A) (A) (A) (A) (A) (A)
                 (A) (A) (A) (A) (A) (A) (A) (A) (A) (A) (A) (A)
                 (A) (A) (A) (A) (A) (A) (A) (A) (A) (A) (A) (A)
                 (A) (A) (A) (A) (A) (A) (A) (A) (A) (A) (A) (A)
                 (A) (A) (A) (A) (A) (A) (A) (A) (A) (A) (A) (A)
                 (A) (A) (A) (A) (A) (A) (A) (A) (A) (A) (A) (A)
                 (A) (A) (A) (A) (A) (A) (A) (A) (A) (A) (A) (A)
                 (A) (A) (A) (A) (A) (A) (A) (A) (A) (A) (A) (A)
                 (A) (A) (A) (A) (A) (A) (A) (A) (A) (A) (A) (A)
                 (A) (A) (A) (A) (A) (A) (A) (A) (A) (A) (A) (A)
                 (A) (A) (A) (A) (A) (A) (A) (A) (A) (A) (A) (A)
                 (A) (A) (A) (A) (A) (A) (A) (A) (A) (A) (A) (A)
                 (A) (A) (A) (A) (A) (A) (A) (A) (A) (A) (A) (A)
                 (A) (A) (A) (A) (A) (A) (A) (A) (A) (A) (A) (A)
                 (A) (A) (A) (A) (A) (A) (A) (A) (A) (A) (A) (A)
                 (A) (A) (A) (A) (A) (A) (A) (A) (A) (A) (A) (A)
                 (A) (A) (A) (A) (A) (A) (A) (A) (A) (A) (A) (A)
                 (A) (A) (A) (A) (A) (A) (A) (A) (A) (A) (A) (A)
                 (A) (A) (A) (A) (A) (A) (A) (A) (A) (A) (A) (A)
                 (A) (A) (A) (A) (A) (A) (A) (A) (A) (A) (A) (A)
                 (A) (A) (A) (A) (A) (A) (A) (A) (A) (A) (A) (A)
                 (A) (A) (A) (A) (A) (A) (A) (A) (A) (A) (A) (A)
                 (A) (A) (A) (A) (A) (A) (A) (A) (A) (A) (A) (A)
                 (A) (A) (A) (A) (A) (A) (A) (A) (A) (A) (A) (A)
                 (A) (A) (A) (A) (A) (A) (A) (A) (A) (A) (A) (A)
                 (A) (A) (A) (A) (A) (A) (A) (A) (A) (A) (A) (A)
                 (A) (A) (A) (A) (A) (A) (A) (A) (A) (A) (A) (A)
                 (A) (A) (A) (A) (A) (A) (A) (A) (A) (A) (A) (A)
                 (A) (A) (A) (A) (A) (A) (A) (A) (A) (A) (A) (A)
                 (A) (A) (A) (A) (A) (A) (A) (A) (A) (A) (A) (A)
                 (A) (A) (A) (A) (A) (A) (A) (A) (A) (A) (A) (A)
                 (A) (A) (A) (A) (A) (A) (A) (A) (A) (A) (A) (A)
                 (A) (A) (A) (A) (A) (A) (A) (A) (A) (A) (A) (A)
                 (A) (A) (A) (A) (A) (A) (A) (A) (A) (A) (A) (A)
                 (A) (A) (A) (A) (A) (A) (A) (A) (A) (A) (A) (A)
                 (A) (A) (A) (A) (A) (A) (A) (A) (A)
   280 initial guesses have been made.
 Convergence on wavefunction:    0.000001000000000
 Iteration     1 Dimension   280 NMult     0 NNew    280
 CISAX will form   280 AO SS matrices at one time.
 New state      5 was old state     31
 New state      6 was old state      5
 New state      7 was old state      8
 New state      8 was old state      9
 New state      9 was old state     12
 New state     10 was old state     11
 New state     11 was old state     25
 New state     12 was old state     48
 New state     13 was old state     28
 New state     14 was old state     10
 New state     15 was old state      6
 New state     16 was old state      7
 New state     17 was old state     47
 New state     18 was old state     23
 New state     19 was old state    109
 New state     20 was old state     15
 New state     21 was old state     16
 New state     22 was old state     14
 New state     23 was old state     30
 New state     24 was old state     22
 New state     25 was old state     17
 New state     26 was old state     13
 New state     27 was old state     40
 New state     28 was old state    164
 New state     29 was old state    170
 New state     30 was old state     20
 New state     31 was old state     18
 New state     32 was old state     39
 New state     33 was old state     45
 New state     34 was old state    228
 New state     35 was old state     38
 New state     36 was old state     24
 New state     37 was old state     43
 New state     38 was old state     42
 New state     39 was old state     21
 New state     40 was old state     51
 New state     41 was old state     65
 New state     42 was old state     46
 New state     43 was old state     36
 New state     44 was old state     26
 New state     45 was old state     29
 New state     46 was old state     64
 New state     47 was old state     67
 New state     48 was old state     34
 New state     49 was old state     50
 New state     50 was old state    124
 New state     51 was old state     61
 New state     52 was old state     58
 New state     53 was old state     35
 New state     54 was old state     60
 New state     55 was old state     81
 New state     56 was old state     33
 New state     57 was old state    239
 New state     58 was old state     55
 New state     59 was old state     73
 New state     60 was old state     88
 New state     61 was old state    103
 New state     62 was old state     54
 New state     63 was old state     37
 New state     64 was old state     41
 New state     65 was old state     69
 New state     66 was old state     70
 New state     67 was old state     57
 New state     68 was old state    111
 New state     69 was old state     62
 New state     70 was old state    177
 Iteration     2 Dimension   420 NMult   280 NNew    140
 New state      5 was old state      6
 New state      6 was old state      5
 New state      7 was old state      9
 New state      8 was old state      7
 New state      9 was old state      8
 New state     10 was old state     11
 New state     11 was old state     10
 New state     14 was old state     15
 New state     15 was old state     18
 New state     16 was old state     14
 New state     17 was old state     16
 New state     18 was old state     17
 New state     21 was old state     24
 New state     22 was old state     23
 New state     23 was old state     22
 New state     24 was old state     21
 New state     26 was old state     45
 New state     27 was old state     26
 New state     29 was old state     27
 New state     30 was old state     31
 New state     31 was old state     29
 New state     32 was old state     37
 New state     33 was old state     34
 New state     34 was old state     30
 New state     35 was old state     33
 New state     36 was old state     32
 New state     37 was old state     35
 New state     38 was old state     40
 New state     39 was old state     36
 New state     40 was old state     43
 New state     42 was old state     38
 New state     43 was old state     39
 New state     44 was old state     42
 New state     45 was old state     47
 New state     46 was old state     51
 New state     47 was old state     44
 New state     48 was old state     46
 New state     50 was old state     56
 New state     51 was old state     50
 New state     53 was old state     57
 New state     54 was old state     48
 New state     55 was old state     54
 New state     56 was old state     53
 New state     57 was old state     55
 New state     58 was old state     60
 New state     60 was old state     64
 New state     61 was old state     70
 New state     62 was old state     61
 New state     63 was old state     58
 New state     64 was old state     62
 New state     66 was old state     63
 New state     67 was old state     69
 New state     68 was old state     66
 New state     69 was old state     67
 New state     70 was old state     68
 Iteration     3 Dimension   560 NMult   420 NNew    140
 New state     24 was old state     25
 New state     25 was old state     24
 New state     39 was old state     40
 New state     40 was old state     39
 New state     44 was old state     45
 New state     45 was old state     44
 New state     59 was old state     60
 New state     60 was old state     61
 New state     61 was old state     59
 New state     63 was old state     65
 New state     64 was old state     63
 New state     65 was old state     64
 Iteration     4 Dimension   700 NMult   560 NNew    140
 Iteration     5 Dimension   840 NMult   700 NNew    140
 Iteration     6 Dimension   980 NMult   840 NNew    140
 Iteration     7 Dimension  1120 NMult   980 NNew    140
 Davidson failed to converge within maximum sub-space dimensions.
  Restart with updated initial guess:
 Iteration     1 Dimension   280 NMult  1120 NNew    280
 Iteration     2 Dimension   420 NMult  1400 NNew    140
 Iteration     3 Dimension   484 NMult  1540 NNew     64
 Iteration     4 Dimension   536 NMult  1604 NNew     52
 Iteration     5 Dimension   584 NMult  1656 NNew     48
 Iteration     6 Dimension   630 NMult  1704 NNew     46
 Iteration     7 Dimension   676 NMult  1750 NNew     46
 Iteration     8 Dimension   716 NMult  1796 NNew     40
 Iteration     9 Dimension   742 NMult  1836 NNew     26
 Iteration    10 Dimension   764 NMult  1862 NNew     22
 Iteration    11 Dimension   778 NMult  1884 NNew     14
 Iteration    12 Dimension   788 NMult  1898 NNew     10
 Iteration    13 Dimension   798 NMult  1908 NNew     10
 Iteration    14 Dimension   806 NMult  1918 NNew      8
 Iteration    15 Dimension   812 NMult  1926 NNew      6
 Iteration    16 Dimension   820 NMult  1932 NNew      8
 Iteration    17 Dimension   828 NMult  1940 NNew      8
 Iteration    18 Dimension   834 NMult  1948 NNew      6
 Iteration    19 Dimension   838 NMult  1954 NNew      4
 Iteration    20 Dimension   842 NMult  1958 NNew      4
 Iteration    21 Dimension   844 NMult  1962 NNew      2
 Iteration    22 Dimension   846 NMult  1964 NNew      2
 Iteration    23 Dimension   848 NMult  1966 NNew      2
 Iteration    24 Dimension   850 NMult  1968 NNew      2
 Iteration    25 Dimension   852 NMult  1970 NNew      2
 Iteration    26 Dimension   854 NMult  1972 NNew      2
 Iteration    27 Dimension   856 NMult  1974 NNew      2
 Iteration    28 Dimension   858 NMult  1976 NNew      2
 Iteration    29 Dimension   860 NMult  1978 NNew      2
 Iteration    30 Dimension   862 NMult  1980 NNew      2
 Iteration    31 Dimension   864 NMult  1982 NNew      2
 Iteration    32 Dimension   866 NMult  1984 NNew      2
 Iteration    33 Dimension   868 NMult  1986 NNew      2
 Iteration    34 Dimension   870 NMult  1988 NNew      2
 Iteration    35 Dimension   872 NMult  1990 NNew      2
 ***********************************************************************
 Excited states from <AA,BB:AA,BB> singles matrix:
 ***********************************************************************
 
 Ground to excited state transition densities written to RWF  633
 Ground to excited state transition electric dipole moments (Au):
       state          X           Y           Z        Dip. S.      Osc.
         1        -3.6391     -0.1209     -0.0150     13.2577      0.7502
         2         0.9561      1.0438      0.1740      2.0340      0.1709
         3        -2.9276      0.1734     -0.0546      8.6038      0.7539
         4        -0.5045      0.9618      0.0862      1.1871      0.1164
         5        -0.0010     -0.2430      0.0767      0.0650      0.0066
         6         0.1664      0.2514     -0.0001      0.0909      0.0093
         7        -0.1098     -0.3998      0.0555      0.1750      0.0182
         8         0.0484     -0.7708      0.0873      0.6042      0.0644
         9         0.3465      0.0420     -0.1014      0.1321      0.0144
        10         0.0324     -0.0688     -0.0499      0.0083      0.0010
        11         0.0630     -0.0061     -0.0795      0.0103      0.0012
        12         0.0490     -0.0861      0.0056      0.0099      0.0012
        13        -0.0060      0.3735      0.0190      0.1399      0.0166
        14         0.1615     -0.2355      0.0578      0.0849      0.0102
        15         0.0081     -0.3352     -0.0455      0.1145      0.0138
        16        -0.0183      0.5947      0.2437      0.4134      0.0507
        17        -0.0284     -0.6025      0.3857      0.5125      0.0634
        18         0.0740     -0.1003     -0.0130      0.0157      0.0020
        19         0.0041      0.0405      0.0008      0.0017      0.0002
        20         0.2348     -0.3723     -0.0162      0.1941      0.0249
        21         0.4603     -0.0085     -0.0589      0.2155      0.0281
        22        -0.1926      0.5067     -0.0144      0.2940      0.0387
        23         0.0388      0.3253     -0.0279      0.1081      0.0143
        24         0.3526     -0.0328     -0.1598      0.1509      0.0202
        25         0.0139      0.0095     -0.0155      0.0005      0.0001
        26         0.1441      0.5886     -0.0741      0.3727      0.0503
        27         0.1247     -0.0275      0.0553      0.0194      0.0027
        28        -0.1331     -0.4829      0.0221      0.2514      0.0349
        29        -0.0147     -0.2783      0.0985      0.0874      0.0122
        30         0.0402      0.0231     -0.0161      0.0024      0.0003
        31         0.0416      0.2177      0.0034      0.0491      0.0069
        32         0.2292     -0.1381      0.1834      0.1052      0.0150
        33         0.0490      0.0061     -0.0532      0.0053      0.0008
        34        -0.2491     -0.0161      0.0051      0.0623      0.0090
        35        -0.0902      0.2805     -0.2469      0.1478      0.0213
        36         0.2853      0.2618     -0.1250      0.1656      0.0241
        37         0.3357      0.3169      0.0268      0.2139      0.0312
        38         0.4761     -0.0096     -0.1602      0.2525      0.0370
        39         0.2990     -0.4533     -0.0712      0.2999      0.0443
        40         0.0307      0.1490     -0.1741      0.0535      0.0080
        41         0.0649     -0.1182      0.0315      0.0192      0.0029
        42         0.0675     -0.1303     -0.0847      0.0287      0.0043
        43        -0.1081     -0.1511      0.0689      0.0393      0.0059
        44         0.0501      0.1340      0.0781      0.0266      0.0040
        45         0.0241     -0.0051     -0.1477      0.0224      0.0034
        46        -0.3319      0.1094      0.0836      0.1291      0.0198
        47         0.2117      0.0535      0.0902      0.0558      0.0086
        48         0.0314     -0.4334      0.0567      0.1921      0.0297
        49         0.2827     -0.1672     -0.0564      0.1110      0.0172
        50        -0.3193     -0.0455      0.1599      0.1296      0.0202
        51        -0.0533      0.0978      0.0516      0.0151      0.0024
        52        -0.2595      0.0028      0.0533      0.0702      0.0111
        53         0.0494      0.2596     -0.0070      0.0699      0.0111
        54        -0.0625      0.1159     -0.0141      0.0175      0.0028
        55        -0.0352      0.2335      0.0893      0.0637      0.0102
        56         0.0670      0.0528      0.0512      0.0099      0.0016
        57         0.3909     -0.2147      0.1649      0.2261      0.0364
        58         0.3041     -0.1541      0.0493      0.1187      0.0192
        59         0.1720      0.2743     -0.0755      0.1105      0.0180
        60        -0.0172     -0.3271      0.0919      0.1157      0.0189
        61         0.3073      0.0564      0.0060      0.0976      0.0160
        62         0.1207     -0.0613      0.1653      0.0456      0.0075
        63        -0.2785      0.4103     -0.1063      0.2572      0.0425
        64         0.2785      0.1650     -0.1479      0.1266      0.0210
        65         0.0391     -0.2811      0.0309      0.0815      0.0135
        66         0.0109     -0.2296      0.0223      0.0533      0.0089
        67        -0.0675      0.2941     -0.0605      0.0947      0.0158
        68        -0.2587     -0.2136     -0.1352      0.1308      0.0219
        69        -0.2886      0.0370     -0.0069      0.0847      0.0142
        70         0.3292      0.2453     -0.0028      0.1685      0.0284
 Ground to excited state transition velocity dipole moments (Au):
       state          X           Y           Z        Dip. S.      Osc.
         1         0.3109      0.0108      0.0019      0.0968      0.7599
         2        -0.1178     -0.1327     -0.0214      0.0319      0.1689
         3         0.3756     -0.0217      0.0087      0.1417      0.7185
         4         0.0713     -0.1385     -0.0123      0.0244      0.1106
         5        -0.0026      0.0312     -0.0109      0.0011      0.0048
         6        -0.0273     -0.0313      0.0003      0.0017      0.0075
         7         0.0171      0.0529     -0.0079      0.0032      0.0134
         8        -0.0081      0.1084     -0.0122      0.0120      0.0498
         9        -0.0543     -0.0061      0.0170      0.0033      0.0134
        10        -0.0039      0.0138      0.0108      0.0003      0.0012
        11        -0.0107      0.0019      0.0292      0.0010      0.0037
        12        -0.0071      0.0158     -0.0078      0.0004      0.0014
        13         0.0003     -0.0645      0.0001      0.0042      0.0155
        14        -0.0264      0.0414     -0.0022      0.0024      0.0089
        15        -0.0008      0.0519      0.0057      0.0027      0.0100
        16         0.0040     -0.1052     -0.0421      0.0129      0.0466
        17         0.0048      0.1059     -0.0665      0.0157      0.0563
        18        -0.0131      0.0170      0.0056      0.0005      0.0017
        19        -0.0009     -0.0076     -0.0007      0.0001      0.0002
        20        -0.0480      0.0663      0.0035      0.0067      0.0233
        21        -0.0802      0.0019      0.0103      0.0065      0.0223
        22         0.0352     -0.0863      0.0043      0.0087      0.0294
        23        -0.0097     -0.0637      0.0051      0.0042      0.0140
        24        -0.0684      0.0077      0.0302      0.0056      0.0188
        25        -0.0020     -0.0025      0.0027      0.0000      0.0001
        26        -0.0290     -0.1149      0.0114      0.0142      0.0467
        27        -0.0275      0.0033     -0.0103      0.0009      0.0028
        28         0.0248      0.0968     -0.0049      0.0100      0.0320
        29         0.0038      0.0549     -0.0170      0.0033      0.0106
        30        -0.0077     -0.0030      0.0009      0.0001      0.0002
        31        -0.0070     -0.0443     -0.0004      0.0020      0.0064
        32        -0.0488      0.0231     -0.0369      0.0043      0.0134
        33        -0.0104     -0.0016      0.0132      0.0003      0.0009
        34         0.0527      0.0029      0.0005      0.0028      0.0086
        35         0.0188     -0.0545      0.0477      0.0056      0.0173
        36        -0.0604     -0.0500      0.0260      0.0068      0.0208
        37        -0.0722     -0.0611     -0.0041      0.0090      0.0273
        38        -0.1052     -0.0058      0.0339      0.0122      0.0371
        39        -0.0665      0.1067      0.0157      0.0161      0.0483
        40        -0.0077     -0.0357      0.0393      0.0029      0.0086
        41        -0.0140      0.0255     -0.0089      0.0009      0.0028
        42        -0.0175      0.0289      0.0162      0.0014      0.0041
        43         0.0228      0.0338     -0.0150      0.0019      0.0055
        44        -0.0153     -0.0303     -0.0160      0.0014      0.0041
        45        -0.0063      0.0007      0.0301      0.0009      0.0028
        46         0.0709     -0.0255     -0.0255      0.0063      0.0184
        47        -0.0453     -0.0131     -0.0228      0.0027      0.0079
        48        -0.0069      0.1036     -0.0148      0.0110      0.0316
        49        -0.0581      0.0405      0.0094      0.0051      0.0146
        50         0.0678      0.0111     -0.0365      0.0061      0.0173
        51         0.0114     -0.0274     -0.0125      0.0010      0.0029
        52         0.0580      0.0043     -0.0122      0.0035      0.0099
        53        -0.0108     -0.0643      0.0011      0.0043      0.0119
        54         0.0162     -0.0287      0.0036      0.0011      0.0031
        55         0.0075     -0.0577     -0.0217      0.0039      0.0108
        56        -0.0167     -0.0148     -0.0094      0.0006      0.0016
        57        -0.0874      0.0516     -0.0421      0.0121      0.0334
        58        -0.0679      0.0400     -0.0085      0.0063      0.0173
        59        -0.0342     -0.0685      0.0221      0.0063      0.0173
        60         0.0066      0.0805     -0.0221      0.0070      0.0191
        61        -0.0717     -0.0127     -0.0002      0.0053      0.0144
        62        -0.0225      0.0179     -0.0423      0.0026      0.0071
        63         0.0662     -0.1016      0.0245      0.0153      0.0412
        64        -0.0658     -0.0417      0.0370      0.0074      0.0200
        65        -0.0086      0.0721     -0.0059      0.0053      0.0142
        66        -0.0066      0.0555      0.0003      0.0031      0.0084
        67         0.0154     -0.0695      0.0218      0.0055      0.0147
        68         0.0622      0.0499      0.0380      0.0078      0.0207
        69         0.0716     -0.0082      0.0045      0.0052      0.0138
        70        -0.0776     -0.0632      0.0014      0.0100      0.0265
 Ground to excited state transition magnetic dipole moments (Au):
       state          X           Y           Z
         1         0.0142      0.2018     -0.4727
         2         0.0461     -0.2091      0.5421
         3         0.0489      0.2244     -1.6611
         4         0.1308     -0.2683     -0.4153
         5        -0.0047     -0.3865      0.1395
         6         0.0130      0.5966      0.2635
         7        -0.0191      1.0463     -0.2576
         8        -0.0006     -0.2603      0.0950
         9        -0.0642     -0.1802     -0.8900
        10         0.0486      0.2099     -0.0007
        11         0.2033      0.0268      0.1592
        12         0.0690     -0.0900      0.0467
        13         0.1011      0.2952      0.0405
        14        -0.0857     -0.0817     -0.3331
        15         0.1700      0.5285     -1.7124
        16         0.2779      0.6975      0.9521
        17         0.1252      1.0503      0.7933
        18        -0.0084      0.3136     -0.0210
        19        -0.0031     -0.5821      0.0146
        20        -0.1956     -0.1729     -0.1632
        21        -0.1718     -0.2712     -0.3304
        22        -0.1292     -0.3583      0.3187
        23         0.0159      0.1386     -0.3457
        24        -0.0792     -0.3852     -0.1164
        25        -0.0115      0.1519      0.0145
        26         0.2908      0.3678     -0.5832
        27        -0.0666     -0.4642      0.4031
        28         0.0491     -0.2039      0.2117
        29        -0.1413     -0.3320     -0.6123
        30         0.1570      0.1920     -0.5719
        31         0.1931     -0.6006     -0.1914
        32         0.0933      0.5336      0.6005
        33         0.1400     -0.2947     -0.2145
        34         0.0370      0.3075      0.5664
        35        -0.1455     -0.8918     -0.6010
        36        -0.1731      0.2503     -0.6357
        37         0.0113     -0.5888      0.2735
        38        -0.1777     -0.3727     -2.0784
        39        -0.1612     -0.4166     -1.2458
        40        -0.1106      0.0331     -0.1450
        41        -0.1745     -0.1904     -0.1892
        42        -0.1067     -0.0621     -0.0956
        43        -0.0028      0.4200      0.4093
        44        -0.1535     -0.0949     -0.4923
        45        -0.2521     -0.0286     -0.1032
        46        -0.5658      0.4823      1.4387
        47         0.0578     -0.2206     -0.8274
        48        -0.0489     -0.2142      0.0144
        49        -0.3068     -0.1940     -0.6438
        50         0.3279      0.1756      0.7614
        51         0.1734     -0.2923      0.0265
        52         0.1248      0.1450     -0.1716
        53         0.0028      0.0120     -0.7273
        54        -0.0665     -0.3447      0.8249
        55         0.0461      0.7085      0.2581
        56         0.1561      0.1701      0.8085
        57        -0.4873      0.1838      0.2473
        58         0.3464      0.7150      0.4599
        59        -0.0661     -0.3708      1.6042
        60         0.3173      0.5071      0.2460
        61         0.0658     -0.1715      0.2504
        62         0.2604      0.6911      0.4410
        63         0.2244     -0.8232     -0.4147
        64         0.2709     -0.4142     -0.1018
        65        -0.0149      0.4184     -0.5431
        66         0.2880      0.5980     -0.2845
        67        -0.1340      0.1421      0.7951
        68        -0.2830      0.2709     -0.1259
        69         0.0428      0.4051      0.3295
        70        -0.6163     -0.0223      0.0831
 Ground to excited state transition velocity quadrupole moments (Au):
       state          XX          YY          ZZ          XY          XZ          YZ
         1        -0.3171     -0.0206      0.0201     -0.5373     -0.0631     -0.0547
         2         5.6279     -0.2208      0.0263      0.6650      0.1948      0.0463
         3         0.9921     -0.1923      0.0445     -1.6616     -0.1850     -0.0500
         4         5.1100     -0.0779      0.0436     -0.2496      0.1426      0.0198
         5         1.3196      0.7632      0.0405     -0.0745      0.0759     -0.0011
         6        -0.8750     -0.5629     -0.0136     -0.0479     -0.1929     -0.0266
         7         1.2301      0.6908      0.0220     -0.0420     -0.0412      0.0179
         8         0.3450      0.5724     -0.0266      0.0356     -0.0170      0.0155
         9        -0.4319     -0.0263     -0.0014     -0.4476      0.0474      0.0447
        10        -0.2073      0.2491      0.0012     -1.1766     -0.2674      0.0779
        11        -0.0342      0.0417      0.0074     -0.0212     -0.0303      0.1684
        12        -0.2971      0.0329     -0.0071      0.1356      0.0232     -0.0088
        13         0.7789     -0.1556     -0.0010     -0.4944     -0.2016      0.0677
        14        -0.1318     -0.0936     -0.0013      0.3214      0.0855     -0.0512
        15         1.2829     -0.5253      0.0086     -1.5691     -0.3036     -0.0308
        16         2.0916     -0.0810     -0.0097      1.0361     -0.2979      0.1137
        17        -0.9803     -0.2466      0.0481      0.7716     -1.0387      0.1422
        18         0.0243      0.1044     -0.0155      0.0743     -0.1081     -0.0285
        19         0.0330     -0.0298      0.0125     -0.0025     -0.1121     -0.0049
        20        -1.5104      0.4875     -0.0206      0.2763      0.2113     -0.0353
        21        -0.8408      0.0123     -0.0062     -0.1445      0.0262      0.0334
        22        -0.9304     -0.3200      0.0278      0.5104      0.1584     -0.1079
        23         0.3940     -0.8287     -0.0192     -0.0570     -0.1076     -0.0402
        24        -0.8109     -0.0357     -0.0020     -0.9178      0.0148      0.0098
        25        -0.2159      0.1698      0.0048      0.0558     -0.0860      0.0140
        26         0.5196     -0.1771      0.0304     -0.3327      0.1374      0.0964
        27        -0.8696     -0.0283      0.0290      0.2140      0.0725      0.0697
        28         0.2640      0.4755     -0.0355     -0.0658     -0.1186      0.0370
        29         0.3787      0.1261      0.0589      0.0377      0.0137      0.0119
        30        -0.1734      0.1530      0.0221     -0.3287      0.2359      0.0885
        31        -0.1333     -0.2568      0.0160      0.1156     -0.0851     -0.0237
        32        -0.6246     -0.1191      0.1040      0.2863     -0.7320      0.1893
        33         0.0740     -0.0041     -0.0363      0.0101     -0.2260     -0.0203
        34         0.0163      0.0089     -0.0045     -0.0946     -0.3057      0.0284
        35         0.5670      0.2304     -0.0466     -0.8212      0.8216     -0.0878
        36         0.0132      0.2083     -0.0260      0.1908     -0.2461     -0.0984
        37         0.5373      0.1053      0.0151      0.9783      0.4790      0.0456
        38        -0.0193     -0.4224      0.0579     -0.5866      0.2058     -0.1741
        39         0.6155     -0.0120     -0.0614     -0.2166      0.2925     -0.0287
        40         0.2652     -0.0199     -0.0570     -0.0409     -0.1829     -0.1624
        41         0.1140      0.0746     -0.0268      0.0054     -0.0406     -0.0234
        42        -0.2877     -0.2032     -0.0117     -0.2306      0.0936     -0.0794
        43        -0.8210      0.2001     -0.0654      0.1498     -0.5372     -0.0022
        44        -0.0815      0.1484      0.0750     -0.1046      0.0722     -0.0073
        45         0.4198      0.0012     -0.0546      0.1592     -0.0017     -0.1084
        46        -0.0542      0.0044      0.0144      0.7974     -0.3309     -0.1141
        47        -0.0165     -0.1063      0.0359     -0.5342      0.1981      0.0116
        48        -0.7911      0.8650     -0.0100      0.1126      0.1494     -0.0321
        49        -0.2669      0.1699      0.0593     -0.5287      0.2104     -0.0523
        50        -0.2841      0.3091      0.0349      0.4363     -0.1114      0.2115
        51         0.3590     -0.6968      0.0876     -0.0245      0.4106      0.1548
        52         0.0113      0.5504     -0.0260     -0.3646     -0.1207      0.0890
        53         0.7445     -0.5121     -0.0749     -0.3678     -0.1280     -0.0422
        54         0.2677     -0.3997      0.0744      0.4359      0.5104      0.0512
        55         0.9015     -0.5078     -0.0132      0.0710     -0.7445      0.0281
        56        -0.5471     -0.0312     -0.0476      0.5703     -0.1218      0.0342
        57         0.4293     -0.0868     -0.0358      0.5395     -0.2628     -0.1092
        58         0.8464      0.0411      0.0047      0.4380     -0.5736      0.0926
        59        -1.5459      0.1213      0.0536      0.9499      0.3540     -0.1950
        60         0.8368     -0.4113     -0.0127     -0.0365     -0.5260      0.1487
        61        -0.1778      0.0895      0.0768      0.1542      0.0574     -0.0487
        62         2.2747     -0.1290     -0.0667      0.2179     -0.5448      0.1623
        63        -0.3031      0.1278     -0.1048     -0.2575      0.3773     -0.0383
        64        -0.3877      0.1914     -0.0179     -0.0180      0.2199      0.2215
        65         1.5244     -0.3688      0.0402     -0.4920     -0.1664     -0.0880
        66         1.5810     -0.2235      0.0273     -0.3040     -0.4769      0.0123
        67         1.2706      0.1073     -0.0805      0.4891     -0.2891     -0.2695
        68        -1.8341      0.0847      0.0347      0.0332     -0.2496     -0.3027
        69         0.8069     -0.0967     -0.1032      0.1963     -0.3240     -0.0300
        70         0.0568     -0.0236      0.0042     -0.2705      0.1344     -0.2173
 <0|del|b> * <b|rxdel|0> + <0|del|b> * <b|delr+rdel|0>
 Rotatory Strengths (R) in cgs (10**-40 erg-esu-cm/Gauss)
       state          XX          YY          ZZ    R(velocity)    E-M Angle
         1         3.8258    -51.9282     95.3388     15.7455       87.97
         2        77.9773    -23.1763      5.3960     20.0657       84.09
         3      -101.3014     -1.1492     97.6188     -1.6106       90.08
         4       156.4094     30.6872     60.8539     82.6502       49.80
         5       -34.9141     -5.3761    -22.3330    -20.8744      174.85
         6       -56.7109      1.0566    -31.5612    -29.0718      134.34
         7       135.4303      3.8129    118.7781     86.0071       19.47
         8       -61.7773     -1.8650    -66.1408    -43.2610      165.69
         9       -46.2793    -13.9986     14.5266    -15.2504      101.72
        10       -12.5085     24.8838     -1.3828      3.6641       45.80
        11         8.3071      2.5863     -0.7640      3.3765       71.83
        12        -6.3699      0.5227     -3.1929     -3.0134      167.68
        13       -63.5516      0.1472    -11.9494    -25.1179      159.52
        14       -13.5570      9.9003      2.1015     -0.5184       91.30
        15        47.9212     -1.8030     22.4701     22.8628       79.23
        16      -362.3226      9.8336    -79.6150   -144.0347      144.78
        17       223.3687     -0.3311      2.1825     75.0734       69.08
        18        13.9139     -0.0856      6.0213      6.6165       40.24
        19         6.5869     -0.0072      9.7471      5.4423        9.35
        20       -46.1706     17.5503     18.8401     -3.2601       96.05
        21        -9.8955     16.5869     28.9178     11.8697       74.67
        22        86.3633    -16.4524     29.5859     33.1656       53.21
        23       -31.6409     -2.2085     -4.4819    -12.7771      116.49
        24       -60.4845     51.0369      5.6976     -1.2500       91.98
        25        -0.7339     -0.2034     -0.2060     -0.3811      120.42
        26       -64.5973    -24.6421   -111.3217    -66.8537      130.09
        27       -13.8468     -3.4703      4.2047     -4.3708      102.16
        28       -15.1983      1.3252    -52.4341    -22.1024      130.98
        29       -15.6530     17.8285    -30.5620     -9.4622      101.82
        30        -1.1468     -3.5800     -3.0522     -2.5930      116.27
        31        38.4724     -1.8237     48.5425     28.3971       31.13
        32        -5.6810    -42.0666      0.1621    -15.8619      105.75
        33        -4.2767     -6.9590     -1.3435     -4.1931      125.27
        34         3.2862      6.1645      0.7435      3.3981       84.75
        35        41.7675      9.9896      4.4841     18.7471       77.77
        36       -58.9366     -8.3053      6.9720    -20.0900      108.64
        37        97.2965     -2.0274     14.8594     36.7095       56.38
        38      -139.8423    -21.8500      2.1783    -53.1713      102.21
        39      -157.1939     -5.5797     -7.0762    -56.6166      108.52
        40       -23.7894     -3.1550      7.8394     -6.3683      127.33
        41        -3.4337      7.1225     -5.9573     -0.7562       94.23
        42       -15.2984      8.5125      2.1733     -1.5375      104.60
        43        37.2788     -6.2636     -6.1933      8.2740       71.79
        44        22.6351     13.4078      4.5349     13.5259       48.31
        45         2.5784     -8.6991      1.3644     -1.5854      100.53
        46      -119.6881    -99.3655    -55.2547    -91.4361      133.75
        47        56.0205      5.4341     -2.7680     19.5622       64.83
        48       -60.2211      3.0591    -10.0441    -22.4020      162.87
        49       -41.6453     30.0643     23.4812      3.9668       85.75
        50       -61.3741     37.3797     13.0231     -3.6571       93.15
        51        28.8313      4.6379     -4.5383      9.6436       28.40
        52        11.4516     14.9781      3.2524      9.8940       49.32
        53       -15.2329      0.0267     10.3585     -1.6159       91.97
        54        43.0723      1.6986     -9.8762     11.6315       66.67
        55      -134.6730     -5.1853      3.2747    -45.5279      169.57
        56       -25.3754     -7.9627     -4.0348    -12.4576      128.72
        57       -14.8207     94.4654     42.4688     40.7045       48.90
        58        64.1217    -43.7867    -16.8886      1.1488       89.07
        59       153.3486     33.8223     -4.7030     60.8226       61.26
        60       113.1571     -4.6034     -0.5954     35.9861       46.24
        61         4.0790     -1.7915     -9.7254     -2.4793       96.56
        62        -8.2046    -27.1539      0.6015    -11.5857      105.98
        63       150.5244     12.0631     89.4428     84.0101       41.19
        64        31.3216    -50.4826      6.9137     -4.0824       95.67
        65        68.5270      1.6773     24.9295     31.7113       47.91
        66        84.3416     -2.7849      6.9645     29.5071       39.35
        67        -2.6690      0.6728     17.3634      5.1224       84.88
        68        31.6584    -59.8757      3.2285     -8.3296      104.11
        69        -5.0397      2.1254      6.3807      1.1555       88.13
        70        13.5061     91.3012     33.4562     46.0878       37.59
 1/2[<0|r|b>*<b|rxdel|0> + (<0|rxdel|b>*<b|r|0>)*]
 Rotatory Strengths (R) in cgs (10**-40 erg-esu-cm/Gauss)
       state          XX          YY          ZZ     R(length)
         1        36.4257     17.2468     -5.0007     16.2240
         2       -31.1630    154.3645    -66.7128     18.8295
         3       101.1712    -27.5165    -64.1030      3.1839
         4        46.6713    182.5038     25.3131     84.8294
         5        -0.0032    -66.4245     -7.5694    -24.6657
         6        -1.5247   -106.0521      0.0172    -35.8532
         7        -1.4828    295.8401     10.1159    101.4911
         8         0.0207   -141.8864     -5.8648    -49.2435
         9        15.7343      5.3496    -63.8159    -14.2440
        10        -1.1137     10.2151     -0.0247      3.0256
        11        -9.0520      0.1156      8.9439      0.0025
        12        -2.3909     -5.4807     -0.1844     -2.6853
        13         0.4304    -77.9737     -0.5429    -26.0287
        14         9.7899    -13.6091     13.6027      3.2612
        15        -0.9746    125.2798    -55.1467     23.0528
        16         3.6003   -293.3598   -164.0522   -151.2706
        17         2.5179    447.4654   -216.3854     77.8660
        18         0.4413     22.2490     -0.1932      7.4990
        19         0.0090     16.6705     -0.0086      5.5570
        20        32.4874    -45.5159     -1.8665     -4.9650
        21        55.9271     -1.6299    -13.7722     13.5084
        22       -17.5953    128.3564      3.2536     38.0049
        23        -0.4367    -31.8741     -6.8197    -13.0435
        24        19.7490     -8.9412    -13.1487     -0.7803
        25         0.1137     -1.0173      0.1590     -0.2482
        26       -29.6286   -153.1127    -30.5590    -71.1001
        27         5.8791     -9.0209    -15.7674     -6.3030
        28         4.6271    -69.6110     -3.3010    -22.7616
        29        -1.4722    -65.3322     42.6706     -8.0446
        30        -4.4621     -3.1337     -6.5150     -4.7036
        31        -5.6850     92.4595      0.4583     29.0776
        32       -15.1205     52.0943    -77.8673    -13.6311
        33        -4.8506      1.2816     -8.0725     -3.8805
        34         6.5139      3.5027     -2.0350      2.6605
        35        -9.2809    176.8892   -104.9360     20.8908
        36        34.9272    -46.3424    -56.1720    -22.5291
        37        -2.6904    131.9702     -5.1750     41.3682
        38        59.8192     -2.5211   -235.5233    -59.4084
        39        34.0758   -133.5562    -62.7205    -54.0670
        40         2.4038     -3.4906    -17.8591     -6.3153
        41         8.0128    -15.9136      4.2105     -1.2301
        42         5.0882     -5.7212     -5.7300     -2.1210
        43        -0.2144     44.8815    -19.9532      8.2380
        44         5.4359      8.9945     27.2017     13.8774
        45         4.3036     -0.1037    -10.7703     -2.1902
        46      -132.7711    -37.3041    -85.0700    -85.0484
        47        -8.6569      8.3485     52.7820     17.4912
        48         1.0842    -65.6462     -0.5778    -21.7133
        49        61.3402    -22.9386    -25.6643      4.2458
        50        74.0457      5.6454    -86.0818     -2.1302
        51         6.5352     20.2236     -0.9666      8.5974
        52        22.9071     -0.2898      6.4671      9.6948
        53        -0.0990     -2.2056     -3.5826     -1.9624
        54        -2.9381     28.2371      8.2012     11.1667
        55         1.1464   -116.9998    -16.2949    -44.0494
        56        -7.3981     -6.3539    -29.2781    -14.3434
        57       134.7013     27.9042    -28.8436     44.5873
        58       -74.4970     77.9298    -16.0233     -4.1968
        59         8.0390     71.9423     85.5944     55.1919
        60         3.8571    117.3015    -15.9959     35.0542
        61       -14.2896      6.8406     -1.0576     -2.8355
        62       -22.2180     29.9481    -51.5371    -14.6023
        63        44.1912    238.8509    -31.1845     83.9525
        64       -53.3344     48.3207    -10.6500     -5.2212
        65         0.4129     83.1779     11.8638     31.8182
        66        -2.2231     97.0915      4.4818     33.1167
        67        -6.3959    -29.5571     34.0057     -0.6491
        68       -51.7599     40.9269    -12.0346     -7.6225
        69         8.7262    -10.6110      1.6098     -0.0917
        70       143.4719      3.8761      0.1619     49.1699
  1/2[<0|del|b>*<b|r|0> + (<0|r|b>*<b|del|0>)*] (Au)
       state          X           Y           Z        Dip. S.   Osc.(frdel)
         1        -1.1312     -0.0013      0.0000      1.1326      0.7551
         2        -0.1126     -0.1385     -0.0037      0.2548      0.1699
         3        -1.0997     -0.0038     -0.0005      1.1040      0.7360
         4        -0.0359     -0.1332     -0.0011      0.1702      0.1135
         5         0.0000     -0.0076     -0.0008      0.0084      0.0056
         6        -0.0045     -0.0079      0.0000      0.0124      0.0083
         7        -0.0019     -0.0212     -0.0004      0.0235      0.0156
         8        -0.0004     -0.0835     -0.0011      0.0850      0.0567
         9        -0.0188     -0.0003     -0.0017      0.0208      0.0139
        10        -0.0001     -0.0010     -0.0005      0.0016      0.0011
        11        -0.0007      0.0000     -0.0023      0.0030      0.0020
        12        -0.0003     -0.0014      0.0000      0.0018      0.0012
        13         0.0000     -0.0241      0.0000      0.0241      0.0161
        14        -0.0043     -0.0097     -0.0001      0.0141      0.0094
        15         0.0000     -0.0174     -0.0003      0.0177      0.0118
        16        -0.0001     -0.0626     -0.0102      0.0729      0.0486
        17        -0.0001     -0.0638     -0.0256      0.0896      0.0597
        18        -0.0010     -0.0017     -0.0001      0.0027      0.0018
        19         0.0000     -0.0003      0.0000      0.0003      0.0002
        20        -0.0113     -0.0247     -0.0001      0.0360      0.0240
        21        -0.0369      0.0000     -0.0006      0.0375      0.0250
        22        -0.0068     -0.0437     -0.0001      0.0506      0.0337
        23        -0.0004     -0.0207     -0.0001      0.0212      0.0141
        24        -0.0241     -0.0003     -0.0048      0.0292      0.0195
        25         0.0000      0.0000      0.0000      0.0001      0.0001
        26        -0.0042     -0.0676     -0.0008      0.0726      0.0484
        27        -0.0034     -0.0001     -0.0006      0.0041      0.0027
        28        -0.0033     -0.0467     -0.0001      0.0501      0.0334
        29        -0.0001     -0.0153     -0.0017      0.0170      0.0113
        30        -0.0003     -0.0001      0.0000      0.0004      0.0003
        31        -0.0003     -0.0096      0.0000      0.0099      0.0066
        32        -0.0112     -0.0032     -0.0068      0.0211      0.0141
        33        -0.0005      0.0000     -0.0007      0.0012      0.0008
        34        -0.0131      0.0000      0.0000      0.0132      0.0088
        35        -0.0017     -0.0153     -0.0118      0.0288      0.0192
        36        -0.0172     -0.0131     -0.0033      0.0336      0.0224
        37        -0.0242     -0.0194     -0.0001      0.0437      0.0291
        38        -0.0501      0.0001     -0.0054      0.0555      0.0370
        39        -0.0199     -0.0484     -0.0011      0.0694      0.0462
        40        -0.0002     -0.0053     -0.0068      0.0124      0.0083
        41        -0.0009     -0.0030     -0.0003      0.0042      0.0028
        42        -0.0012     -0.0038     -0.0014      0.0063      0.0042
        43        -0.0025     -0.0051     -0.0010      0.0086      0.0057
        44        -0.0008     -0.0041     -0.0012      0.0061      0.0041
        45        -0.0002      0.0000     -0.0044      0.0046      0.0031
        46        -0.0235     -0.0028     -0.0021      0.0284      0.0190
        47        -0.0096     -0.0007     -0.0021      0.0124      0.0082
        48        -0.0002     -0.0449     -0.0008      0.0460      0.0307
        49        -0.0164     -0.0068     -0.0005      0.0237      0.0158
        50        -0.0217     -0.0005     -0.0058      0.0280      0.0187
        51        -0.0006     -0.0027     -0.0006      0.0039      0.0026
        52        -0.0151      0.0000     -0.0007      0.0157      0.0105
        53        -0.0005     -0.0167      0.0000      0.0172      0.0115
        54        -0.0010     -0.0033     -0.0001      0.0044      0.0029
        55        -0.0003     -0.0135     -0.0019      0.0157      0.0105
        56        -0.0011     -0.0008     -0.0005      0.0024      0.0016
        57        -0.0342     -0.0111     -0.0069      0.0522      0.0348
        58        -0.0207     -0.0062     -0.0004      0.0272      0.0182
        59        -0.0059     -0.0188     -0.0017      0.0263      0.0176
        60        -0.0001     -0.0263     -0.0020      0.0285      0.0190
        61        -0.0220     -0.0007      0.0000      0.0228      0.0152
        62        -0.0027     -0.0011     -0.0070      0.0108      0.0072
        63        -0.0184     -0.0417     -0.0026      0.0627      0.0418
        64        -0.0183     -0.0069     -0.0055      0.0307      0.0205
        65        -0.0003     -0.0203     -0.0002      0.0208      0.0139
        66        -0.0001     -0.0128      0.0000      0.0128      0.0085
        67        -0.0010     -0.0204     -0.0013      0.0228      0.0152
        68        -0.0161     -0.0107     -0.0051      0.0319      0.0213
        69        -0.0207     -0.0003      0.0000      0.0210      0.0140
        70        -0.0255     -0.0155      0.0000      0.0411      0.0274

 Excitation energies and oscillator strengths:
 
 Excited State   1:      Singlet-A      2.3097 eV  536.79 nm  f=0.7502  <S**2>=0.000
     117 ->120        -0.14025
     119 ->120         0.67614
 This state for optimization and/or second-order correction.
 Total Energy, E(TD-HF/TD-KS) =  -2945.76324584    
 Copying the excited state density for this state as the 1-particle RhoCI density.
 
 Excited State   2:      Singlet-A      3.4287 eV  361.60 nm  f=0.1709  <S**2>=0.000
     111 ->120         0.14426
     118 ->120         0.57643
     118 ->121         0.10801
     119 ->121        -0.26803
     119 ->122         0.15847
 
 Excited State   3:      Singlet-A      3.5767 eV  346.64 nm  f=0.7539  <S**2>=0.000
     117 ->120         0.13560
     118 ->120         0.23882
     118 ->122         0.24470
     119 ->121         0.54826
     119 ->122         0.14943
 
 Excited State   4:      Singlet-A      4.0029 eV  309.73 nm  f=0.1164  <S**2>=0.000
     112 ->120        -0.15227
     118 ->120        -0.21631
     118 ->121         0.27977
     118 ->122         0.15583
     119 ->122         0.50178
 
 Excited State   5:      Singlet-A      4.1659 eV  297.62 nm  f=0.0066  <S**2>=0.000
     109 ->120        -0.12625
     112 ->120         0.31674
     113 ->120        -0.28021
     116 ->120         0.34546
     117 ->120         0.27944
 
 Excited State   6:      Singlet-A      4.1778 eV  296.77 nm  f=0.0093  <S**2>=0.000
     109 ->120         0.21529
     110 ->120         0.12899
     111 ->120         0.11581
     112 ->120        -0.23018
     113 ->120        -0.10181
     114 ->120        -0.27113
[...]
    18  S   -0.017280  -0.002484  -0.000009  -0.035158   0.013183  16.024318
    19  C   -0.006019   0.000030  -0.000003  -0.003857  -0.023511  -0.004470
    20  C    0.002855  -0.000732   0.000015   0.009164  -0.025201   0.033924
    21  C   -0.009389  -0.005196   0.000183   0.038970   0.023066   0.006089
    22  C   -0.102568   0.004318  -0.000501  -0.088604  -0.167901  -0.122624
    23  S   -0.035895   0.001064  -0.000008  -0.006290   0.010256  -0.013313
    24  H   -0.000028   0.000013   0.000000   0.000055   0.002273   0.000402
    25  H    0.000359  -0.000468   0.000032   0.003381  -0.027481  -0.010353
    26  C    0.026688   0.006191  -0.002897   0.000215   0.000001   0.000002
    27  C   -0.216626  -0.007495  -0.006884  -0.000143  -0.000002  -0.000052
    28  C   -1.224231   0.019840   0.102293   0.002457  -0.000010  -0.000623
    29  C    1.600164   0.009270  -0.047216   0.004330  -0.000153  -0.000572
    30  S    0.183152  -0.004925  -0.038187  -0.000801  -0.000020   0.000219
    31  H   -0.000347   0.000211  -0.000374   0.000006   0.000000   0.000000
    32  H    0.003617  -0.000088   0.000008  -0.000003   0.000000   0.000000
    33  H   -0.025564   0.000581   0.000490   0.000260  -0.000004  -0.000030
    34  C   -0.000141  -0.000003   0.000000   0.000036  -0.001491  -0.000284
    35  C   -0.000376   0.000006   0.000000   0.000029   0.001205  -0.000252
    36  C    0.000023  -0.000001   0.000000  -0.000002  -0.000037   0.000140
    37  C   -0.000008   0.000000   0.000000   0.000001   0.000029  -0.000037
    38  S    0.000048  -0.000002   0.000000  -0.000012   0.000097   0.000144
    39  H   -0.000086   0.000000   0.000000  -0.000008  -0.000121  -0.000097
    40  H    0.000001   0.000000   0.000000   0.000000   0.000005   0.000002
    41  H    0.000000   0.000000   0.000000   0.000000   0.000000   0.000000
              19         20         21         22         23         24
     1  C   -0.396735   0.374427  -0.175203  -2.773512  -1.004834   0.004374
     2  C   -0.886447   0.308603  -1.353308  -1.883058  -0.269453   0.004522
     3  C    0.538982  -1.041554  -0.495744   5.167184   1.788142  -0.010439
     4  C   -0.847912   0.696518   0.613976  -2.416310  -1.129863   0.023556
     5  C   -0.024473   0.170020   0.019415  -1.012060  -0.055357   0.000091
     6  C   -0.127031  -0.186399  -1.104181  -0.926087  -0.312587  -0.001051
     7  H    0.021915  -0.007894   0.024733   0.115457   0.067868  -0.000135
     8  H   -0.150705   0.104568  -0.029295  -0.306432  -0.228516   0.001871
     9  C   -0.013306   0.009111  -0.114099  -0.554415  -0.042673  -0.000631
    10  C    0.006528  -0.004688  -0.051547   0.026250   0.022476   0.000035
    11  C    0.000704  -0.000214  -0.003814   0.013289   0.004084   0.000002
    12  C   -0.000253   0.000537   0.002429  -0.017361  -0.003291  -0.000010
    13  S   -0.006019   0.002855  -0.009389  -0.102568  -0.035895  -0.000028
    14  H    0.000030  -0.000732  -0.005196   0.004318   0.001064   0.000013
    15  H   -0.000003   0.000015   0.000183  -0.000501  -0.000008   0.000000
    16  N   -0.003857   0.009164   0.038970  -0.088604  -0.006290   0.000055
    17  N   -0.023511  -0.025201   0.023066  -0.167901   0.010256   0.002273
    18  S   -0.004470   0.033924   0.006089  -0.122624  -0.013313   0.000402
    19  C   13.157945  -1.038431  -4.317495   0.177699   2.148279  -0.220950
    20  C   -1.038431  12.580814   1.218429  -4.173241  -2.822909   0.414461
    21  C   -4.317495   1.218429  13.828971  -1.253226  -2.379977   0.100406
    22  C    0.177699  -4.173241  -1.253226  15.306535   1.283403  -0.038603
    23  S    2.148279  -2.822909  -2.379977   1.283403  19.932342  -0.029152
    24  H   -0.220950   0.414461   0.100406  -0.038603  -0.029152   0.506977
    25  H    0.000884   0.026887   0.458564  -0.077628  -0.001710  -0.013911
    26  C    0.000000   0.000000  -0.000002   0.000001  -0.000001   0.000000
    27  C   -0.000001   0.000000  -0.000008  -0.000121  -0.000019   0.000000
    28  C   -0.000008   0.000001  -0.000037  -0.001334  -0.000181   0.000000
    29  C    0.000015  -0.000033  -0.000729   0.000279  -0.000172   0.000001
    30  S    0.000000  -0.000001  -0.000020   0.000092   0.000002   0.000000
    31  H    0.000000   0.000000   0.000000   0.000000   0.000000   0.000000
    32  H    0.000000   0.000000   0.000000   0.000002   0.000001   0.000000
    33  H   -0.000004   0.000001  -0.000017  -0.000201  -0.000048   0.000000
    34  C    1.051792  -0.812838  -0.513870   0.383434   0.623237  -0.033645
    35  C   -4.496735   0.106295   1.748220  -1.265178  -0.607567   0.112470
    36  C    1.673488  -0.100249  -0.539123   0.219785   0.045945  -0.042031
    37  C   -1.028948  -0.160964   0.226235  -0.114440  -0.007609   0.022828
    38  S    1.446764   0.073007  -0.446879   0.306104   0.141790  -0.034148
    39  H   -0.091702   0.021693   0.071180  -0.063906  -0.028777   0.000636
    40  H    0.032477   0.000744  -0.005450   0.006887   0.004811  -0.000628
    41  H   -0.040311  -0.002864   0.006228  -0.002192  -0.002216   0.000891
              25         26         27         28         29         30
     1  C   -0.005061  -0.003400  -0.030265  -0.230585  -0.169041   0.004258
     2  C   -0.030415  -0.000331  -0.012570  -0.065263  -0.046941   0.002313
     3  C   -0.000662  -0.000311  -0.000433  -0.013105  -0.024792  -0.000656
     4  C    0.005720  -0.000026  -0.000777  -0.004100  -0.002277   0.001097
     5  C   -0.007953  -0.001455  -0.010070  -0.134695  -0.035552   0.017408
     6  C   -0.040031  -0.022242   0.026173  -0.109772  -0.205375   0.003767
     7  H    0.000754  -0.000858  -0.009312  -0.039910  -0.025497  -0.000570
     8  H   -0.003791   0.000037   0.000318   0.002899   0.002660   0.000080
     9  C   -0.001260  -0.111224   0.104728  -1.743601   0.473529   0.314658
    10  C   -0.004914   0.033346  -0.128523   1.690890  -0.750043  -0.741696
    11  C   -0.000664  -0.369665   0.241749   0.519114  -1.043219  -0.356322
    12  C   -0.000065  -0.413775   0.652100  -2.871463  -0.042029   1.817654
    13  S    0.000359   0.026688  -0.216626  -1.224231   1.600164   0.183152
    14  H   -0.000468   0.006191  -0.007495   0.019840   0.009270  -0.004925
    15  H    0.000032  -0.002897  -0.006884   0.102293  -0.047216  -0.038187
    16  N    0.003381   0.000215  -0.000143   0.002457   0.004330  -0.000801
    17  N   -0.027481   0.000001  -0.000002  -0.000010  -0.000153  -0.000020
    18  S   -0.010353   0.000002  -0.000052  -0.000623  -0.000572   0.000219
    19  C    0.000884   0.000000  -0.000001  -0.000008   0.000015   0.000000
    20  C    0.026887   0.000000   0.000000   0.000001  -0.000033  -0.000001
    21  C    0.458564  -0.000002  -0.000008  -0.000037  -0.000729  -0.000020
    22  C   -0.077628   0.000001  -0.000121  -0.001334   0.000279   0.000092
    23  S   -0.001710  -0.000001  -0.000019  -0.000181  -0.000172   0.000002
    24  H   -0.013911   0.000000   0.000000   0.000000   0.000001   0.000000
    25  H    0.454764   0.000000  -0.000001   0.000005  -0.000040  -0.000003
    26  C    0.000000   7.086224  -1.910443   4.521691  -2.433876  -1.018933
    27  C   -0.000001  -1.910443  10.846966  -8.280589   3.793466   1.788604
    28  C    0.000005   4.521691  -8.280589  28.613199 -12.259770  -5.560582
    29  C   -0.000040  -2.433876   3.793466 -12.259770  16.188380   2.069127
    30  S   -0.000003  -1.018933   1.788604  -5.560582   2.069127  18.351784
    31  H    0.000000   0.382578  -0.027004   0.103676  -0.052118  -0.087672
    32  H    0.000000  -0.106537   0.462823  -0.253642   0.159145   0.065102
    33  H    0.000001   0.060513  -0.193215   0.744849  -0.193982  -0.076797
    34  C   -0.006971   0.000000   0.000000   0.000000  -0.000002   0.000000
    35  C   -0.000061   0.000000   0.000000   0.000000   0.000000   0.000000
    36  C    0.000416   0.000000   0.000000   0.000000   0.000000   0.000000
    37  C    0.000764   0.000000   0.000000   0.000000   0.000000   0.000000
    38  S   -0.001123   0.000000   0.000000   0.000000   0.000000   0.000000
    39  H    0.000378   0.000000   0.000000   0.000000   0.000000   0.000000
    40  H   -0.000052   0.000000   0.000000   0.000000   0.000000   0.000000
    41  H    0.000069   0.000000   0.000000   0.000000   0.000000   0.000000
              31         32         33         34         35         36
     1  C   -0.000160   0.000157  -0.026205  -0.039145  -0.019073   0.007603
     2  C   -0.000022   0.000112  -0.010285  -0.026371  -0.177393   0.026061
     3  C   -0.000008   0.000022  -0.002126  -0.153061  -0.054102   0.000819
     4  C   -0.000005   0.000006  -0.000498   0.008484  -0.054141   0.007552
     5  C   -0.000032   0.000117  -0.010530  -0.014175  -0.008881   0.001432
     6  C   -0.000600   0.000559   0.004416  -0.007102  -0.011115  -0.000436
     7  H   -0.000025   0.000206  -0.007234   0.000819   0.003935  -0.000260
     8  H    0.000001  -0.000013   0.000808  -0.004176  -0.050388   0.009534
     9  C   -0.001093   0.004640  -0.052018  -0.000966  -0.000810   0.000112
    10  C    0.002741  -0.001914   0.057929  -0.000392   0.000174  -0.000009
    11  C   -0.008522   0.002750   0.028056  -0.000027   0.000012   0.000000
    12  C   -0.015951   0.009748  -0.031498   0.000008  -0.000010   0.000001
    13  S   -0.000347   0.003617  -0.025564  -0.000141  -0.000376   0.000023
    14  H    0.000211  -0.000088   0.000581  -0.000003   0.000006  -0.000001
    15  H   -0.000374   0.000008   0.000490   0.000000   0.000000   0.000000
    16  N    0.000006  -0.000003   0.000260   0.000036   0.000029  -0.000002
    17  N    0.000000   0.000000  -0.000004  -0.001491   0.001205  -0.000037
    18  S    0.000000   0.000000  -0.000030  -0.000284  -0.000252   0.000140
    19  C    0.000000   0.000000  -0.000004   1.051792  -4.496735   1.673488
    20  C    0.000000   0.000000   0.000001  -0.812838   0.106295  -0.100249
    21  C    0.000000   0.000000  -0.000017  -0.513870   1.748220  -0.539123
    22  C    0.000000   0.000002  -0.000201   0.383434  -1.265178   0.219785
    23  S    0.000000   0.000001  -0.000048   0.623237  -0.607567   0.045945
    24  H    0.000000   0.000000   0.000000  -0.033645   0.112470  -0.042031
    25  H    0.000000   0.000000   0.000001  -0.006971  -0.000061   0.000416
    26  C    0.382578  -0.106537   0.060513   0.000000   0.000000   0.000000
    27  C   -0.027004   0.462823  -0.193215   0.000000   0.000000   0.000000
    28  C    0.103676  -0.253642   0.744849   0.000000   0.000000   0.000000
    29  C   -0.052118   0.159145  -0.193982  -0.000002   0.000000   0.000000
    30  S   -0.087672   0.065102  -0.076797   0.000000   0.000000   0.000000
    31  H    0.391809  -0.005824   0.003330   0.000000   0.000000   0.000000
    32  H   -0.005824   0.457059  -0.008554   0.000000   0.000000   0.000000
    33  H    0.003330  -0.008554   0.484070   0.000000   0.000000   0.000000
    34  C    0.000000   0.000000   0.000000  14.908577 -12.813598   5.816158
    35  C    0.000000   0.000000   0.000000 -12.813598  31.752279 -11.825063
    36  C    0.000000   0.000000   0.000000   5.816158 -11.825063  12.720386
    37  C    0.000000   0.000000   0.000000  -3.339105   6.561079  -3.380850
    38  S    0.000000   0.000000   0.000000   2.016417  -5.589396   2.287484
    39  H    0.000000   0.000000   0.000000  -0.427070   1.137295  -0.409516
    40  H    0.000000   0.000000   0.000000   0.240782  -0.441439   0.626485
    41  H    0.000000   0.000000   0.000000  -0.100000   0.223812  -0.138646
              37         38         39         40         41
     1  C   -0.002168   0.003548  -0.006020   0.000297  -0.000027
     2  C   -0.010520   0.027993  -0.017163   0.000817  -0.000163
     3  C   -0.015363   0.009908   0.000131   0.000744  -0.000422
     4  C   -0.002305   0.006955  -0.005897   0.000206   0.000005
     5  C   -0.000612   0.002024  -0.001267   0.000027  -0.000010
     6  C   -0.000222   0.001564  -0.000754   0.000039  -0.000005
     7  H    0.000155  -0.000346   0.000749  -0.000024   0.000002
     8  H   -0.004430   0.005110  -0.008692   0.000559  -0.000068
     9  C   -0.000036   0.000219  -0.000192   0.000004  -0.000001
    10  C    0.000001  -0.000025   0.000015   0.000000   0.000000
    11  C    0.000000  -0.000001   0.000001   0.000000   0.000000
    12  C    0.000000   0.000002  -0.000004   0.000000   0.000000
    13  S   -0.000008   0.000048  -0.000086   0.000001   0.000000
    14  H    0.000000  -0.000002   0.000000   0.000000   0.000000
    15  H    0.000000   0.000000   0.000000   0.000000   0.000000
    16  N    0.000001  -0.000012  -0.000008   0.000000   0.000000
    17  N    0.000029   0.000097  -0.000121   0.000005   0.000000
    18  S   -0.000037   0.000144  -0.000097   0.000002   0.000000
    19  C   -1.028948   1.446764  -0.091702   0.032477  -0.040311
    20  C   -0.160964   0.073007   0.021693   0.000744  -0.002864
    21  C    0.226235  -0.446879   0.071180  -0.005450   0.006228
    22  C   -0.114440   0.306104  -0.063906   0.006887  -0.002192
    23  S   -0.007609   0.141790  -0.028777   0.004811  -0.002216
    24  H    0.022828  -0.034148   0.000636  -0.000628   0.000891
    25  H    0.000764  -0.001123   0.000378  -0.000052   0.000069
    26  C    0.000000   0.000000   0.000000   0.000000   0.000000
    27  C    0.000000   0.000000   0.000000   0.000000   0.000000
    28  C    0.000000   0.000000   0.000000   0.000000   0.000000
    29  C    0.000000   0.000000   0.000000   0.000000   0.000000
    30  S    0.000000   0.000000   0.000000   0.000000   0.000000
    31  H    0.000000   0.000000   0.000000   0.000000   0.000000
    32  H    0.000000   0.000000   0.000000   0.000000   0.000000
    33  H    0.000000   0.000000   0.000000   0.000000   0.000000
    34  C   -3.339105   2.016417  -0.427070   0.240782  -0.100000
    35  C    6.561079  -5.589396   1.137295  -0.441439   0.223812
    36  C   -3.380850   2.287484  -0.409516   0.626485  -0.138646
    37  C    7.967655  -1.490171   0.175669  -0.196741   0.458792
    38  S   -1.490171  17.926300  -0.092173   0.083232  -0.114494
    39  H    0.175669  -0.092173   0.523355  -0.022287   0.006253
    40  H   -0.196741   0.083232  -0.022287   0.472858  -0.011164
    41  H    0.458792  -0.114494   0.006253  -0.011164   0.399143
 Mulliken charges:
               1
     1  C   -0.805537
     2  C   -0.761860
     3  C    0.618707
     4  C   -0.218401
     5  C   -0.178933
     6  C    0.503908
     7  H    0.177735
     8  H    0.133255
     9  C   -0.059239
    10  C    0.419580
    11  C    0.474869
    12  C   -0.711304
    13  S   -1.414571
    14  H    0.314427
    15  H    0.225264
    16  N   -0.078930
    17  N   -0.131498
    18  S    0.333159
    19  C   -0.538196
    20  C    0.226139
    21  C    0.411515
    22  C    0.350787
    23  S   -1.091282
    24  H    0.229499
    25  H    0.281641
    26  C    0.278492
    27  C   -1.082377
    28  C    2.472590
    29  C   -0.966935
    30  S   -0.732130
    31  H    0.315403
    32  H    0.210503
    33  H    0.253508
    34  C   -0.755311
    35  C    1.768770
    36  C   -1.007204
    37  C    0.341321
    38  S   -0.569938
    39  H    0.238379
    40  H    0.206808
    41  H    0.317388
 Sum of Mulliken charges =   0.00000
 Mulliken charges with hydrogens summed into heavy atoms:
               1
     1  C   -0.627802
     2  C   -0.628604
     3  C    0.618707
     4  C   -0.218401
     5  C   -0.178933
     6  C    0.503908
     9  C   -0.059239
    10  C    0.734007
    11  C    0.700133
    12  C   -0.711304
    13  S   -1.414571
    16  N   -0.078930
    17  N   -0.131498
    18  S    0.333159
    19  C   -0.538196
    20  C    0.455638
    21  C    0.693156
    22  C    0.350787
    23  S   -1.091282
    26  C    0.593896
    27  C   -0.871874
    28  C    2.726098
    29  C   -0.966935
    30  S   -0.732130
    34  C   -0.755311
    35  C    2.007149
    36  C   -0.800396
    37  C    0.658709
    38  S   -0.569938
 Electronic spatial extent (au):  <R**2>=          28477.7086
 Charge=              0.0000 electrons
 Dipole moment (field-independent basis, Debye):
    X=             -0.7005    Y=             -4.9482    Z=              0.0249  Tot=              4.9976
 Quadrupole moment (field-independent basis, Debye-Ang):
   XX=           -128.2675   YY=           -196.8190   ZZ=           -209.5649
   XY=              1.2860   XZ=              3.6127   YZ=             -3.6391
 Traceless Quadrupole moment (field-independent basis, Debye-Ang):
   XX=             49.9496   YY=            -18.6019   ZZ=            -31.3477
   XY=              1.2860   XZ=              3.6127   YZ=             -3.6391
 Octapole moment (field-independent basis, Debye-Ang**2):
  XXX=            -49.5928  YYY=            -48.3923  ZZZ=              1.4154  XYY=            -32.2497
  XXY=           -194.7843  XXZ=            -34.8348  XZZ=             33.7477  YZZ=             -1.8011
  YYZ=              0.8138  XYZ=            -49.8219
 Hexadecapole moment (field-independent basis, Debye-Ang**3):
 XXXX=         -27512.4031 YYYY=          -3975.7594 ZZZZ=           -525.4352 XXXY=           -150.7462
 XXXZ=            180.8190 YYYX=            159.4543 YYYZ=            -25.9802 ZZZX=             -4.6143
 ZZZY=            -19.7717 XXYY=          -5800.5805 XXZZ=          -6209.5566 YYZZ=           -787.5233
 XXYZ=            -60.7205 YYXZ=            110.9793 ZZXY=            -68.9260
 N-N= 3.017309261031D+03 E-N=-1.298556124700D+04  KE= 2.937971728931D+03
 1\1\GINC-LEWIS4-R630-HPC4-NODE229\SP\RwB97XD TD-FC\6-311++G(d,p)\C22H1
 2N2S5\EPLUHAR\07-Dec-2016\0\\# wb97xd/6-311++g** td=(singlet,nstates=7
 0) geom=check density=current\\BT1\\0,1\C,0.6925106937,-0.6961749685,-
 0.3675880814\C,-0.723080735,-0.6845226934,-0.3179881414\C,-1.481529338
 ,0.4667998204,-0.1714315245\C,-0.7246729699,1.7033109071,-0.1122885887
 \C,0.7466075191,1.6931631419,-0.1801602358\C,1.4785949469,0.4425447762
 ,-0.281417295\H,1.1755561209,-1.6589143495,-0.4621518198\H,-1.22811128
 51,-1.6392204406,-0.3695062855\C,2.9250207608,0.3974932804,-0.25821669
 84\C,3.853723232,1.4113960965,-0.3272212318\C,5.2081830123,0.998406151
 6,-0.2267298236\C,5.3986080696,-0.3543402829,-0.0656781922\S,3.7884578
 279,-1.2108890557,-0.0530707733\H,3.5522968977,2.4394523221,-0.4361666
 271\H,6.0327089253,1.6955156919,-0.2605176389\N,1.3248033968,2.8915024
 08,-0.1333670743\N,-1.2818475922,2.908939525,-0.0075698217\S,0.0310304
 35,4.1081132203,0.0043693974\C,-5.4199832753,-0.2507836285,0.010103073
 1\C,-5.1604917539,1.0215528261,0.4551297569\C,-3.7932423185,1.40846452
 1,0.4139882588\C,-2.9264188228,0.4459589529,-0.0540227525\S,-3.8669602
 784,-1.0637322404,-0.4971562106\H,-5.9475682726,1.6815021291,0.7921651
 537\H,-3.4426783715,2.3821779941,0.7119691296\C,9.0517713809,-1.813780
 4566,0.4225652683\C,8.1615629463,-2.8415419585,0.4937258941\C,6.796113
 0796,-2.4454574408,0.3233991383\C,6.6102500015,-1.1001554103,0.1147705
 695\S,8.2295288493,-0.2385602626,0.123827647\H,10.1224407168,-1.828986
 7514,0.5177446278\H,8.4613210613,-3.8640836369,0.6691366594\H,5.971758
 06,-3.143598677,0.3589859637\C,-6.666138775,-0.9631861582,-0.081375393
 \C,-7.0855632813,-1.9000799342,-0.9927483414\C,-8.408839098,-2.3988052
 425,-0.7711828963\C,-9.0264417823,-1.8669041299,0.3178817326\S,-7.9743
 074817,-0.677671584,1.1687607422\H,-6.4692150693,-2.2050125563,-1.8279
 198497\H,-8.8803318205,-3.1269486926,-1.4149416413\H,-10.0121181848,-2
 .0512868252,0.6989807816\\Version=ES64L-G09RevD.01\State=1-A\HF=-2945.
 8481276\RMSD=9.145e-09\Dipole=0.2756076,-1.9467612,-0.0097874\Quadrupo
 le=37.136319,-13.8300429,-23.3062761,-0.9560791,2.6859617,2.7056047\PG
 =C01 [X(C22H12N2S5)]\\@


 QUANTUM MECHANICS IS BOHRING -- M.S. GORDON
 Job cpu time:       3 days 22 hours 33 minutes 27.6 seconds.
 File lengths (MBytes):  RWF=   7813 Int=      0 D2E=      0 Chk=   1204 Scr=      1
 Normal termination of Gaussian 09 at Wed Dec  7 03:49:58 2016.
