 Entering Gaussian System, Link 0=g09
 Initial command:
 /share/sw/gaussian/D.01/g09/l1.exe "/local/scratch/epluhar/Gau-4347.inp" -scrdir="/local/scratch/epluhar/"
 Entering Link 1 = /share/sw/gaussian/D.01/g09/l1.exe PID=      4348.
  
 Copyright (c) 1988,1990,1992,1993,1995,1998,2003,2009,2013,
            Gaussian, Inc.  All Rights Reserved.
  
 This is part of the Gaussian(R) 09 program.  It is based on
 the Gaussian(R) 03 system (copyright 2003, Gaussian, Inc.),
 the Gaussian(R) 98 system (copyright 1998, Gaussian, Inc.),
 the Gaussian(R) 94 system (copyright 1995, Gaussian, Inc.),
 the Gaussian 92(TM) system (copyright 1992, Gaussian, Inc.),
 the Gaussian 90(TM) system (copyright 1990, Gaussian, Inc.),
 the Gaussian 88(TM) system (copyright 1988, Gaussian, Inc.),
 the Gaussian 86(TM) system (copyright 1986, Carnegie Mellon
 University), and the Gaussian 82(TM) system (copyright 1983,
 Carnegie Mellon University). Gaussian is a federally registered
 trademark of Gaussian, Inc.
  
 This software contains proprietary and confidential information,
 including trade secrets, belonging to Gaussian, Inc.
  
 This software is provided under written license and may be
 used, copied, transmitted, or stored only in accord with that
 written license.
  
 The following legend is applicable only to US Government
 contracts under FAR:
  
                    RESTRICTED RIGHTS LEGEND
  
 Use, reproduction and disclosure by the US Government is
 subject to restrictions as set forth in subparagraphs (a)
 and (c) of the Commercial Computer Software - Restricted
 Rights clause in FAR 52.227-19.
  
 Gaussian, Inc.
 340 Quinnipiac St., Bldg. 40, Wallingford CT 06492
  
  
 ---------------------------------------------------------------
 Warning -- This program may not be used in any manner that
 competes with the business of Gaussian, Inc. or will provide
 assistance to any competitor of Gaussian, Inc.  The licensee
 of this program is prohibited from giving any competitor of
 Gaussian, Inc. access to this program.  By using this program,
 the user acknowledges that Gaussian, Inc. is engaged in the
 business of creating and licensing software in the field of
 computational chemistry and represents and warrants to the
 licensee that it is not a competitor of Gaussian, Inc. and that
 it will not use this program in any manner prohibited above.
 ---------------------------------------------------------------
  

 Cite this work as:
 Gaussian 09, Revision D.01,
 M. J. Frisch, G. W. Trucks, H. B. Schlegel, G. E. Scuseria, 
 M. A. Robb, J. R. Cheeseman, G. Scalmani, V. Barone, B. Mennucci, 
 G. A. Petersson, H. Nakatsuji, M. Caricato, X. Li, H. P. Hratchian, 
 A. F. Izmaylov, J. Bloino, G. Zheng, J. L. Sonnenberg, M. Hada, 
 M. Ehara, K. Toyota, R. Fukuda, J. Hasegawa, M. Ishida, T. Nakajima, 
 Y. Honda, O. Kitao, H. Nakai, T. Vreven, J. A. Montgomery, Jr., 
 J. E. Peralta, F. Ogliaro, M. Bearpark, J. J. Heyd, E. Brothers, 
 K. N. Kudin, V. N. Staroverov, T. Keith, R. Kobayashi, J. Normand, 
 K. Raghavachari, A. Rendell, J. C. Burant, S. S. Iyengar, J. Tomasi, 
 M. Cossi, N. Rega, J. M. Millam, M. Klene, J. E. Knox, J. B. Cross, 
 V. Bakken, C. Adamo, J. Jaramillo, R. Gomperts, R. E. Stratmann, 
 O. Yazyev, A. J. Austin, R. Cammi, C. Pomelli, J. W. Ochterski, 
 R. L. Martin, K. Morokuma, V. G. Zakrzewski, G. A. Voth, 
 P. Salvador, J. J. Dannenberg, S. Dapprich, A. D. Daniels, 
 O. Farkas, J. B. Foresman, J. V. Ortiz, J. Cioslowski, 
 and D. J. Fox, Gaussian, Inc., Wallingford CT, 2013.
 
 ******************************************
 Gaussian 09:  ES64L-G09RevD.01 24-Apr-2013
                 4-Aug-2016 
 ******************************************
 %oldchk=b3lyp-Benzene
 %chk=b3benz-xs1
 Copying data from "b3lyp-Benzene.chk" to current chk file "b3benz-xs1.chk".
 ----------------------------------------------------------------------
 # td=(singlets,nstates=35,root=1) b3lyp/6-311+g(3df,2pd) density=curre
 nt geom=AllCheck guess=read
 ----------------------------------------------------------------------
 1/29=7,30=1,38=1/1;
 2/12=2,40=1/2;
 3/5=4,6=6,7=416,11=9,14=-4,16=1,25=1,30=1,71=1,74=-5,116=-2/1,2,8,3;
 4/5=1/1;
 5/5=2,38=6/2;
 8/6=1,10=2,107=1,108=35/1;
 9/8=1,15=1,41=35,42=1,48=1,70=2/14;
 10/5=4,13=10/2;
 6/7=2,8=2,9=2,10=2,22=-1/1;
 99/5=1,9=1/99;
 Structure from the checkpoint file:  "b3benz-xs1.chk"
 -------
 Benzene
 -------
 Charge =  0 Multiplicity = 1
 Redundant internal coordinates found in file.
 C,0,-0.044042112,0.4634507862,0.0000596586
 C,0,1.3469384049,0.4635837352,0.0005114546
 C,0,2.0424731039,1.6681017833,-0.0000397582
 C,0,1.3471950889,2.87285688,-0.0010370419
 C,0,-0.0436818668,2.8727240972,-0.001487617
 C,0,-0.7392680182,1.6681164276,-0.0009386089
 H,0,-0.5848698622,-0.4734078141,0.0004795664
 H,0,1.8877837693,-0.4732925009,0.0012667126
 H,0,3.1242467354,1.6680051255,0.0002850159
 H,0,1.8881472247,3.8096434663,-0.001473051
 H,0,-0.5846467018,3.8095309182,-0.0022579328
 H,0,-1.8210420059,1.6683543755,-0.0012793983
 Recover connectivity data from disk.
                          Input orientation:                          
 ---------------------------------------------------------------------
 Center     Atomic      Atomic             Coordinates (Angstroms)
 Number     Number       Type             X           Y           Z
 ---------------------------------------------------------------------
      1          6           0       -0.044042    0.463451    0.000060
      2          6           0        1.346938    0.463584    0.000511
      3          6           0        2.042473    1.668102   -0.000040
      4          6           0        1.347195    2.872857   -0.001037
      5          6           0       -0.043682    2.872724   -0.001488
      6          6           0       -0.739268    1.668116   -0.000939
      7          1           0       -0.584870   -0.473408    0.000480
      8          1           0        1.887784   -0.473293    0.001267
      9          1           0        3.124247    1.668005    0.000285
     10          1           0        1.888147    3.809643   -0.001473
     11          1           0       -0.584647    3.809531   -0.002258
     12          1           0       -1.821042    1.668354   -0.001279
 ---------------------------------------------------------------------
                    Distance matrix (angstroms):
                    1          2          3          4          5
     1  C    0.000000
     2  C    1.390981   0.000000
     3  C    2.409301   1.390911   0.000000
     4  C    2.782226   2.409274   1.390988   0.000000
     5  C    2.409274   2.781688   2.408975   1.390877   0.000000
     6  C    1.390884   2.408975   2.781741   2.409300   1.391014
     7  H    1.081757   2.147053   3.389542   3.863983   3.389615
     8  H    2.146961   1.081782   2.146975   3.389536   3.863469
     9  H    3.389544   2.146964   1.081774   2.146994   3.389266
    10  H    3.863983   3.389547   2.147096   1.081757   2.147040
    11  H    3.389471   3.863469   3.389319   2.146945   1.081781
    12  H    2.146980   3.389333   3.863515   3.389477   2.146978
                    6          7          8          9         10
     6  C    0.000000
     7  H    2.147083   0.000000
     8  H    3.389253   2.472654   0.000000
     9  H    3.863515   4.282896   2.472650   0.000000
    10  H    3.389609   4.945740   4.282937   2.472764   0.000000
    11  H    2.146990   4.282940   4.945250   4.282760   2.472794
    12  H    1.081774   2.472907   4.282762   4.945289   4.282897
                   11         12
    11  H    0.000000
    12  H    2.472511   0.000000
 Stoichiometry    C6H6
 Framework group  C1[X(C6H6)]
 Deg. of freedom    30
 Full point group                 C1      NOp   1
 Largest Abelian subgroup         C1      NOp   1
 Largest concise Abelian subgroup C1      NOp   1
                         Standard orientation:                         
 ---------------------------------------------------------------------
 Center     Atomic      Atomic             Coordinates (Angstroms)
 Number     Number       Type             X           Y           Z
 ---------------------------------------------------------------------
      1          6           0       -1.390907   -0.023916    0.000000
      2          6           0       -0.674609   -1.216285    0.000005
      3          6           0        0.716096   -1.192362    0.000003
      4          6           0        1.390906    0.023976    0.000002
      5          6           0        0.674662    1.216256   -0.000002
      6          6           0       -0.716147    1.192332   -0.000002
      7          1           0       -2.472502   -0.042651   -0.000007
      8          1           0       -1.199291   -2.162308   -0.000014
      9          1           0        1.272993   -2.119778   -0.000020
     10          1           0        2.472503    0.042567   -0.000007
     11          1           0        1.199222    2.162346    0.000003
     12          1           0       -1.272923    2.119820    0.000005
 ---------------------------------------------------------------------
 Rotational constants (GHZ):      5.7348978      5.7332111      2.8670271
 Standard basis: 6-311+G(3df,2pd) (5D, 7F)
 There are   360 symmetry adapted cartesian basis functions of A   symmetry.
 There are   318 symmetry adapted basis functions of A   symmetry.
   318 basis functions,   450 primitive gaussians,   360 cartesian basis functions
    21 alpha electrons       21 beta electrons
       nuclear repulsion energy       204.0389661516 Hartrees.
 NAtoms=   12 NActive=   12 NUniq=   12 SFac= 1.00D+00 NAtFMM=   60 NAOKFM=F Big=F
 Integral buffers will be    131072 words long.
 Regular integral format.
 Two-electron integral symmetry is turned on.
 One-electron integrals computed using PRISM.
 NBasis=   318 RedAO= T EigKep=  1.85D-06  NBF=   318
 NBsUse=   318 1.00D-06 EigRej= -1.00D+00 NBFU=   318
 Initial guess from the checkpoint file:  "b3benz-xs1.chk"
 B after Tr=     0.000000    0.000000    0.000000
         Rot=    1.000000    0.000000    0.000000    0.000000 Ang=   0.00 deg.
 Requested convergence on RMS density matrix=1.00D-08 within 128 cycles.
 Requested convergence on MAX density matrix=1.00D-06.
 Requested convergence on             energy=1.00D-06.
 No special actions if energy rises.
 SCF Done:  E(RB3LYP) =  -232.329121686     A.U. after    1 cycles
            NFock=  1  Conv=0.28D-08     -V/T= 2.0049
 DoSCS=F DFT=T ScalE2(SS,OS)=  1.000000  1.000000
 ExpMin= 4.38D-02 ExpMax= 4.56D+03 ExpMxC= 6.82D+02 IAcc=3 IRadAn=         5 AccDes= 0.00D+00
 HarFok:  IExCor=  205 AccDes= 0.00D+00 IRadAn=         5 IDoV=-2 UseB2=F ITyADJ=14
 ICtDFT= 12500011 ScaDFX=  1.000000  1.000000  1.000000  1.000000
 Range of M.O.s used for correlation:     7   318
 NBasis=   318 NAE=    21 NBE=    21 NFC=     6 NFV=     0
 NROrb=    312 NOA=    15 NOB=    15 NVA=   297 NVB=   297

 **** Warning!!: The largest alpha MO coefficient is  0.21889707D+03

 Would need an additional          3972800000 words for in-memory AO integral storage.
 Orbital symmetries:
       Occupied  (A) (A) (A) (A) (A) (A) (A) (A) (A) (A) (A) (A)
                 (A) (A) (A) (A) (A) (A) (A) (A) (A)
       Virtual   (A) (A) (A) (A) (A) (A) (A) (A) (A) (A) (A) (A)
                 (A) (A) (A) (A) (A) (A) (A) (A) (A) (A) (A) (A)
                 (A) (A) (A) (A) (A) (A) (A) (A) (A) (A) (A) (A)
                 (A) (A) (A) (A) (A) (A) (A) (A) (A) (A) (A) (A)
                 (A) (A) (A) (A) (A) (A) (A) (A) (A) (A) (A) (A)
                 (A) (A) (A) (A) (A) (A) (A) (A) (A) (A) (A) (A)
                 (A) (A) (A) (A) (A) (A) (A) (A) (A) (A) (A) (A)
                 (A) (A) (A) (A) (A) (A) (A) (A) (A) (A) (A) (A)
                 (A) (A) (A) (A) (A) (A) (A) (A) (A) (A) (A) (A)
                 (A) (A) (A) (A) (A) (A) (A) (A) (A) (A) (A) (A)
                 (A) (A) (A) (A) (A) (A) (A) (A) (A) (A) (A) (A)
                 (A) (A) (A) (A) (A) (A) (A) (A) (A) (A) (A) (A)
                 (A) (A) (A) (A) (A) (A) (A) (A) (A) (A) (A) (A)
                 (A) (A) (A) (A) (A) (A) (A) (A) (A) (A) (A) (A)
                 (A) (A) (A) (A) (A) (A) (A) (A) (A) (A) (A) (A)
                 (A) (A) (A) (A) (A) (A) (A) (A) (A) (A) (A) (A)
                 (A) (A) (A) (A) (A) (A) (A) (A) (A) (A) (A) (A)
                 (A) (A) (A) (A) (A) (A) (A) (A) (A) (A) (A) (A)
                 (A) (A) (A) (A) (A) (A) (A) (A) (A) (A) (A) (A)
                 (A) (A) (A) (A) (A) (A) (A) (A) (A) (A) (A) (A)
                 (A) (A) (A) (A) (A) (A) (A) (A) (A) (A) (A) (A)
                 (A) (A) (A) (A) (A) (A) (A) (A) (A) (A) (A) (A)
                 (A) (A) (A) (A) (A) (A) (A) (A) (A) (A) (A) (A)
                 (A) (A) (A) (A) (A) (A) (A) (A) (A) (A) (A) (A)
                 (A) (A) (A) (A) (A) (A) (A) (A) (A)
   140 initial guesses have been made.
 Convergence on wavefunction:    0.000001000000000
 Iteration     1 Dimension   140 NMult     0 NNew    140
 CISAX will form    70 AO SS matrices at one time.
 New state      2 was old state      5
 New state      3 was old state      6
 New state      4 was old state      2
 New state      5 was old state      7
 New state      6 was old state     10
 New state      7 was old state      8
 New state      8 was old state      9
 New state      9 was old state     12
 New state     10 was old state     11
 New state     11 was old state     13
 New state     12 was old state     14
 New state     13 was old state     15
 New state     14 was old state     16
 New state     15 was old state     19
 New state     16 was old state     20
 New state     17 was old state     22
 New state     18 was old state     21
 New state     19 was old state     17
 New state     20 was old state     18
 New state     21 was old state      3
 New state     22 was old state      4
 New state     28 was old state     29
 New state     29 was old state     30
 New state     30 was old state     33
 New state     31 was old state     34
 New state     32 was old state     28
 New state     33 was old state     31
 New state     34 was old state     32
 Iteration     2 Dimension   210 NMult   140 NNew     70
 New state      2 was old state      4
 New state      3 was old state      2
 New state      4 was old state      3
 New state      9 was old state     13
 New state     10 was old state     14
 New state     11 was old state      9
 New state     12 was old state     10
 New state     13 was old state     11
 New state     14 was old state     12
 New state     16 was old state     18
 New state     18 was old state     16
 New state     19 was old state     21
 New state     20 was old state     22
 New state     21 was old state     19
 New state     22 was old state     20
 New state     30 was old state     32
 New state     31 was old state     30
 New state     32 was old state     31
 Iteration     3 Dimension   280 NMult   210 NNew     70
 New state      8 was old state      9
 New state      9 was old state     10
 New state     10 was old state      8
 Iteration     4 Dimension   350 NMult   280 NNew     70
 Iteration     5 Dimension   420 NMult   350 NNew     70
 Iteration     6 Dimension   490 NMult   420 NNew     70
 Iteration     7 Dimension   558 NMult   490 NNew     68
 Davidson failed to converge within maximum sub-space dimensions.
  Restart with updated initial guess:
 Iteration     1 Dimension   124 NMult   558 NNew    124
 Iteration     2 Dimension   194 NMult   682 NNew     70
