 Entering Gaussian System, Link 0=g09
 Initial command:
 /cluster/software/gaussian/gaussian-09-D.01/g09/l1.exe "/local/scratch/maxb2/Gau-514.inp" -scrdir="/local/scratch/maxb2/"
 Entering Link 1 = /cluster/software/gaussian/gaussian-09-D.01/g09/l1.exe PID=       515.
  
 Copyright (c) 1988,1990,1992,1993,1995,1998,2003,2009,2013,
            Gaussian, Inc.  All Rights Reserved.
  
 This is part of the Gaussian(R) 09 program.  It is based on
 the Gaussian(R) 03 system (copyright 2003, Gaussian, Inc.),
 the Gaussian(R) 98 system (copyright 1998, Gaussian, Inc.),
 the Gaussian(R) 94 system (copyright 1995, Gaussian, Inc.),
 the Gaussian 92(TM) system (copyright 1992, Gaussian, Inc.),
 the Gaussian 90(TM) system (copyright 1990, Gaussian, Inc.),
 the Gaussian 88(TM) system (copyright 1988, Gaussian, Inc.),
 the Gaussian 86(TM) system (copyright 1986, Carnegie Mellon
 University), and the Gaussian 82(TM) system (copyright 1983,
 Carnegie Mellon University). Gaussian is a federally registered
 trademark of Gaussian, Inc.
  
 This software contains proprietary and confidential information,
 including trade secrets, belonging to Gaussian, Inc.
  
 This software is provided under written license and may be
 used, copied, transmitted, or stored only in accord with that
 written license.
  
 The following legend is applicable only to US Government
 contracts under FAR:
  
                    RESTRICTED RIGHTS LEGEND
  
 Use, reproduction and disclosure by the US Government is
 subject to restrictions as set forth in subparagraphs (a)
 and (c) of the Commercial Computer Software - Restricted
 Rights clause in FAR 52.227-19.
  
 Gaussian, Inc.
 340 Quinnipiac St., Bldg. 40, Wallingford CT 06492
  
  
 ---------------------------------------------------------------
 Warning -- This program may not be used in any manner that
 competes with the business of Gaussian, Inc. or will provide
 assistance to any competitor of Gaussian, Inc.  The licensee
 of this program is prohibited from giving any competitor of
 Gaussian, Inc. access to this program.  By using this program,
 the user acknowledges that Gaussian, Inc. is engaged in the
 business of creating and licensing software in the field of
 computational chemistry and represents and warrants to the
 licensee that it is not a competitor of Gaussian, Inc. and that
 it will not use this program in any manner prohibited above.
 ---------------------------------------------------------------
  

 Cite this work as:
 Gaussian 09, Revision D.01,
 M. J. Frisch, G. W. Trucks, H. B. Schlegel, G. E. Scuseria, 
 M. A. Robb, J. R. Cheeseman, G. Scalmani, V. Barone, B. Mennucci, 
 G. A. Petersson, H. Nakatsuji, M. Caricato, X. Li, H. P. Hratchian, 
 A. F. Izmaylov, J. Bloino, G. Zheng, J. L. Sonnenberg, M. Hada, 
 M. Ehara, K. Toyota, R. Fukuda, J. Hasegawa, M. Ishida, T. Nakajima, 
 Y. Honda, O. Kitao, H. Nakai, T. Vreven, J. A. Montgomery, Jr., 
 J. E. Peralta, F. Ogliaro, M. Bearpark, J. J. Heyd, E. Brothers, 
 K. N. Kudin, V. N. Staroverov, T. Keith, R. Kobayashi, J. Normand, 
 K. Raghavachari, A. Rendell, J. C. Burant, S. S. Iyengar, J. Tomasi, 
 M. Cossi, N. Rega, J. M. Millam, M. Klene, J. E. Knox, J. B. Cross, 
 V. Bakken, C. Adamo, J. Jaramillo, R. Gomperts, R. E. Stratmann, 
 O. Yazyev, A. J. Austin, R. Cammi, C. Pomelli, J. W. Ochterski, 
 R. L. Martin, K. Morokuma, V. G. Zakrzewski, G. A. Voth, 
 P. Salvador, J. J. Dannenberg, S. Dapprich, A. D. Daniels, 
 O. Farkas, J. B. Foresman, J. V. Ortiz, J. Cioslowski, 
 and D. J. Fox, Gaussian, Inc., Wallingford CT, 2013.
 
 ******************************************
 Gaussian 09:  ES64L-G09RevD.01 24-Apr-2013
                26-Sep-2016 
 ******************************************
 %rwf=/home/maxb2/scratch/HNC12/
 %int=/home/maxb2/scratch/HNC12/
 %d2e=/home/maxb2/scratch/HNC12/
 %nosave
 %mem=6GB
 %nprocshared=2
 Will use up to    2 processors via shared memory.
 %chk=HNC6311Gss
 -------------------------------------------
 # opt=(modredundant,tight) RHF/6-311g** gfp
 -------------------------------------------
 1/7=10,18=120,19=15,38=1/1,3;
 2/9=110,12=2,17=6,18=5,40=1/2;
 3/5=4,6=6,7=101,11=1,16=1,24=100,25=1,30=1,71=1,116=1/1,2,3;
 4//1;
 5/5=2,38=5/2;
 6/7=2,8=2,9=2,10=2,28=1/1;
 7//1,2,3,16;
 1/7=10,18=20,19=15/3(2);
 2/9=110/2;
 99//99;
 2/9=110/2;
 3/5=4,6=6,7=101,11=1,16=1,25=1,30=1,71=1,116=1/1,2,3;
 4/5=5,16=3,69=1/1;
 5/5=2,38=5/2;
 7//1,2,3,16;
 1/7=10,18=20,19=15/3(-5);
 2/9=110/2;
 6/7=2,8=2,9=2,10=2,19=2,28=1/1;
 99/9=1/99;
 -------
 HNC-HCN
 -------
 Symbolic Z-matrix:
 Charge =  0 Multiplicity = 1
 N
 C                    1    B1
 H                    2    B2       1    A1
       Variables:
  B1                    1.                       
  B2                    2.3                      
  A1                   10.                       
 
 Add virtual bond connecting atoms H3         and N1         Dist= 2.51D+00.
 The following ModRedundant input section has been read:
 A       1       2       3 S  30 5.3000                                        
 

 GradGradGradGradGradGradGradGradGradGradGradGradGradGradGradGradGradGrad
 Berny optimization.
 Initialization pass.
                           ----------------------------
                           !    Initial Parameters    !
                           ! (Angstroms and Degrees)  !
 --------------------------                            --------------------------
 ! Name  Definition              Value          Derivative Info.                !
 --------------------------------------------------------------------------------
 ! R1    R(1,2)                  1.0            estimate D2E/DX2                !
 ! R2    R(1,3)                  1.3266         estimate D2E/DX2                !
 ! A1    A(2,1,3)              162.4786         estimate D2E/DX2                !
 ! A2    A(1,2,3)                10.0           Scan                            !
 --------------------------------------------------------------------------------
 Trust Radius=3.00D-01 FncErr=1.00D-07 GrdErr=1.00D-07
 Number of optimizations in scan=  31
 Number of steps in this run=     20 maximum allowed number of steps=    100.
 GradGradGradGradGradGradGradGradGradGradGradGradGradGradGradGradGradGrad

                          Input orientation:                          
 ---------------------------------------------------------------------
 Center     Atomic      Atomic             Coordinates (Angstroms)
 Number     Number       Type             X           Y           Z
 ---------------------------------------------------------------------
      1          7           0        0.000000    0.000000    0.000000
      2          6           0        0.000000    0.000000    1.000000
      3          1           0        0.399391    0.000000   -1.265058
 ---------------------------------------------------------------------
                    Distance matrix (angstroms):
                    1          2          3
     1  N    0.000000
     2  C    1.000000   0.000000
     3  H    1.326606   2.300000   0.000000
 Stoichiometry    CHN
 Framework group  CS[SG(CHN)]
 Deg. of freedom     3
 Full point group                 CS      NOp   2
 Largest Abelian subgroup         CS      NOp   2
 Largest concise Abelian subgroup C1      NOp   1
                         Standard orientation:                         
 ---------------------------------------------------------------------
 Center     Atomic      Atomic             Coordinates (Angstroms)
 Number     Number       Type             X           Y           Z
 ---------------------------------------------------------------------
      1          7           0        0.028528    0.338210    0.000000
      2          6           0        0.028528   -0.661790    0.000000
      3          1           0       -0.370863    1.603268    0.000000
 ---------------------------------------------------------------------
 Rotational constants (GHZ):   4751.4500828     53.7478820     53.1466925
 Standard basis: 6-311G(d,p) (5D, 7F)
 AO basis set (Overlap normalization):
 Atom N1       Shell     1 S   6     bf    1 -     1          0.053909946308          0.639124568051          0.000000000000
      0.6293480000D+04  0.1969788147D-02
      0.9490440000D+03  0.1496128592D-01
      0.2187760000D+03  0.7350053084D-01
      0.6369160000D+02  0.2489367658D+00
      0.1882820000D+02  0.6024594331D+00
      0.2720230000D+01  0.2562017589D+00
 Atom N1       Shell     2 SP   3    bf    2 -     5          0.053909946308          0.639124568051          0.000000000000
      0.3063310000D+02  0.1119060795D+00  0.3831191864D-01
      0.7026140000D+01  0.9216666549D+00  0.2374031155D+00
      0.2112050000D+01 -0.2569191826D-02  0.8175923978D+00
 Atom N1       Shell     3 SP   1    bf    6 -     9          0.053909946308          0.639124568051          0.000000000000
      0.6840090000D+00  0.1000000000D+01  0.1000000000D+01
 Atom N1       Shell     4 SP   1    bf   10 -    13          0.053909946308          0.639124568051          0.000000000000
      0.2008780000D+00  0.1000000000D+01  0.1000000000D+01
 Atom N1       Shell     5 D   1     bf   14 -    18          0.053909946308          0.639124568051          0.000000000000
      0.9130000000D+00  0.1000000000D+01
 Atom C2       Shell     6 S   6     bf   19 -    19          0.053909946308         -1.250601564835          0.000000000000
      0.4563240000D+04  0.1966650249D-02
      0.6820240000D+03  0.1523060193D-01
      0.1549730000D+03  0.7612690966D-01
      0.4445530000D+02  0.2608010331D+00
      0.1302900000D+02  0.6164620782D+00
      0.1827730000D+01  0.2210060280D+00
 Atom C2       Shell     7 SP   3    bf   20 -    23          0.053909946308         -1.250601564835          0.000000000000
      0.2096420000D+02  0.1146600807D+00  0.4024869267D-01
      0.4803310000D+01  0.9199996477D+00  0.2375939567D+00
      0.1459330000D+01 -0.3030682134D-02  0.8158538515D+00
 Atom C2       Shell     8 SP   1    bf   24 -    27          0.053909946308         -1.250601564835          0.000000000000
      0.4834560000D+00  0.1000000000D+01  0.1000000000D+01
 Atom C2       Shell     9 SP   1    bf   28 -    31          0.053909946308         -1.250601564835          0.000000000000
      0.1455850000D+00  0.1000000000D+01  0.1000000000D+01
 Atom C2       Shell    10 D   1     bf   32 -    36          0.053909946308         -1.250601564835          0.000000000000
      0.6260000000D+00  0.1000000000D+01
 Atom H3       Shell    11 S   3     bf   37 -    37         -0.700829302002          3.029737412657          0.000000000000
      0.3386500000D+02  0.2549381454D-01
      0.5094790000D+01  0.1903731086D+00
      0.1158790000D+01  0.8521614860D+00
 Atom H3       Shell    12 S   1     bf   38 -    38         -0.700829302002          3.029737412657          0.000000000000
      0.3258400000D+00  0.1000000000D+01
 Atom H3       Shell    13 S   1     bf   39 -    39         -0.700829302002          3.029737412657          0.000000000000
      0.1027410000D+00  0.1000000000D+01
 Atom H3       Shell    14 P   1     bf   40 -    42         -0.700829302002          3.029737412657          0.000000000000
      0.7500000000D+00  0.1000000000D+01
 There are    33 symmetry adapted cartesian basis functions of A'  symmetry.
 There are    11 symmetry adapted cartesian basis functions of A"  symmetry.
 There are    31 symmetry adapted basis functions of A'  symmetry.
 There are    11 symmetry adapted basis functions of A"  symmetry.
    42 basis functions,    72 primitive gaussians,    44 cartesian basis functions
     7 alpha electrons        7 beta electrons
       nuclear repulsion energy        26.3981731013 Hartrees.
 NAtoms=    3 NActive=    3 NUniq=    3 SFac= 1.00D+00 NAtFMM=   60 NAOKFM=F Big=F
 Integral buffers will be    131072 words long.
 Raffenetti 1 integral format.
 Two-electron integral symmetry is turned on.
 One-electron integrals computed using PRISM.
 NBasis=    42 RedAO= T EigKep=  5.40D-03  NBF=    31    11
 NBsUse=    42 1.00D-06 EigRej= -1.00D+00 NBFU=    31    11
 ExpMin= 1.03D-01 ExpMax= 6.29D+03 ExpMxC= 9.49D+02 IAcc=1 IRadAn=         1 AccDes= 0.00D+00
 Harris functional with IExCor=  205 and IRadAn=       1 diagonalized for initial guess.
 HarFok:  IExCor=  205 AccDes= 0.00D+00 IRadAn=         1 IDoV= 1 UseB2=F ITyADJ=14
 ICtDFT=  3500011 ScaDFX=  1.000000  1.000000  1.000000  1.000000
 FoFCou: FMM=F IPFlag=           0 FMFlag=      100000 FMFlg1=           0
         NFxFlg=           0 DoJE=T BraDBF=F KetDBF=T FulRan=T
         wScrn=  0.000000 ICntrl=     500 IOpCl=  0 I1Cent=   200000004 NGrid=           0
         NMat0=    1 NMatS0=      1 NMatT0=    0 NMatD0=    1 NMtDS0=    0 NMtDT0=    0
 Petite list used in FoFCou.
 Initial guess orbital symmetries:
       Occupied  (A') (A') (A') (A') (A") (A') (A')
       Virtual   (A') (A") (A') (A') (A') (A") (A') (A') (A') (A")
                 (A') (A') (A') (A") (A') (A") (A') (A') (A") (A')
                 (A") (A') (A') (A') (A") (A') (A') (A") (A') (A')
                 (A") (A') (A') (A') (A')
 The electronic state of the initial guess is 1-A'.
 Keep R1 ints in memory in symmetry-blocked form, NReq=1267915.
 Requested convergence on RMS density matrix=1.00D-08 within 128 cycles.
 Requested convergence on MAX density matrix=1.00D-06.
 Requested convergence on             energy=1.00D-06.
 No special actions if energy rises.
 SCF Done:  E(RHF) =  -92.7404664952     A.U. after   12 cycles
            NFock= 12  Conv=0.26D-08     -V/T= 1.9915

 **********************************************************************

            Population analysis using the SCF density.

 **********************************************************************

 Orbital symmetries:
       Occupied  (A') (A') (A') (A') (A') (A") (A')
       Virtual   (A') (A') (A") (A') (A') (A') (A") (A') (A') (A")
                 (A') (A') (A') (A") (A') (A") (A') (A') (A") (A')
                 (A") (A') (A') (A') (A") (A') (A') (A") (A') (A')
                 (A") (A') (A') (A') (A')
 The electronic state is 1-A'.
 Alpha  occ. eigenvalues --  -15.58359 -11.20593  -1.32402  -0.75619  -0.56729
 Alpha  occ. eigenvalues --   -0.56628  -0.44043
 Alpha virt. eigenvalues --    0.06154   0.25105   0.26576   0.34446   0.45162
 Alpha virt. eigenvalues --    0.59263   0.59533   0.64132   0.87362   0.89860
 Alpha virt. eigenvalues --    0.98488   1.21080   1.47028   1.48463   1.51269
 Alpha virt. eigenvalues --    1.54993   1.55604   1.84371   1.91112   2.05486
 Alpha virt. eigenvalues --    2.44384   2.44393   2.59514   2.68575   3.04704
 Alpha virt. eigenvalues --    3.07841   3.08736   3.12848   3.17371   3.94858
 Alpha virt. eigenvalues --    4.32859   4.34101   5.15486  25.34252  37.47305
          Condensed to atoms (all electrons):
               1          2          3
     1  N    6.550045   0.575271   0.290969
     2  C    0.575271   5.380657   0.003799
     3  H    0.290969   0.003799   0.329221
 Mulliken charges:
               1
     1  N   -0.416285
     2  C    0.040273
     3  H    0.376012
 Sum of Mulliken charges =   0.00000
 Mulliken charges with hydrogens summed into heavy atoms:
               1
     1  N   -0.040273
     2  C    0.040273
 Electronic spatial extent (au):  <R**2>=             45.7024
 Charge=              0.0000 electrons
 Dipole moment (field-independent basis, Debye):
    X=             -0.8824    Y=              4.2918    Z=              0.0000  Tot=              4.3815
 Quadrupole moment (field-independent basis, Debye-Ang):
   XX=            -11.4019   YY=             -8.7823   ZZ=            -11.7614
   XY=             -1.3880   XZ=              0.0000   YZ=              0.0000
 Traceless Quadrupole moment (field-independent basis, Debye-Ang):
   XX=             -0.7534   YY=              1.8662   ZZ=             -1.1129
   XY=             -1.3880   XZ=              0.0000   YZ=              0.0000
 Octapole moment (field-independent basis, Debye-Ang**2):
  XXX=             -0.6134  YYY=             18.1512  ZZZ=              0.0000  XYY=             -2.7667
  XXY=              1.9376  XXZ=              0.0000  XZZ=             -0.1571  YZZ=              1.3566
  YYZ=              0.0000  XYZ=              0.0000
 Hexadecapole moment (field-independent basis, Debye-Ang**3):
 XXXX=            -11.5085 YYYY=            -29.8600 ZZZZ=            -11.1526 XXXY=              0.7880
 XXXZ=              0.0000 YYYX=             -3.1738 YYYZ=              0.0000 ZZZX=              0.0000
 ZZZY=              0.0000 XXYY=             -8.0849 XXZZ=             -3.7869 YYZZ=             -9.0663
 XXYZ=              0.0000 YYXZ=              0.0000 ZZXY=              0.3473
 N-N= 2.639817310127D+01 E-N=-2.709236429377D+02  KE= 9.353383965016D+01
 Symmetry A'   KE= 9.045071251050D+01
 Symmetry A"   KE= 3.083127139657D+00
 Calling FoFJK, ICntrl=      2127 FMM=F ISym2X=1 I1Cent= 0 IOpClX= 0 NMat=1 NMatS=1 NMatT=0.
 ***** Axes restored to original set *****
 -------------------------------------------------------------------
 Center     Atomic                   Forces (Hartrees/Bohr)
 Number     Number              X              Y              Z
 -------------------------------------------------------------------
      1        7           0.056568866    0.000000000   -0.760248926
      2        6          -0.007492973    0.000000000    0.623563583
      3        1          -0.049075893    0.000000000    0.136685343
 -------------------------------------------------------------------
 Cartesian Forces:  Max     0.760248926 RMS     0.331856307

 GradGradGradGradGradGradGradGradGradGradGradGradGradGradGradGradGradGrad
 Berny optimization.
 FormGI is forming the generalized inverse of G from B-inverse, IUseBI=4.
 Internal  Forces:  Max     0.622440268 RMS     0.319781359
 Search for a local minimum.
 Step number   1 out of a maximum of   20 on scan point     1 out of    31
 All quantities printed in internal units (Hartrees-Bohrs-Radians)
 Mixed Optimization -- RFO/linear search
 Second derivative matrix not updated -- first step.
 The second derivative matrix:
                          R1        R2        A1        A2
           R1           3.32740
           R2           0.00000   0.17328
           A1           0.00000   0.00000   0.16000
           A2           0.00000   0.00000   0.00000   0.16000
 ITU=  0
     Eigenvalues ---    0.17325   3.312051000.000001000.00000
 RFO step:  Lambda=-1.70951960D-01 EMin= 1.73245494D-01
 Linear search not attempted -- first point.
 Maximum step size (   0.300) exceeded in Quadratic search.
    -- Step size scaled by   0.659
 Iteration  1 RMS(Cart)=  0.07296655 RMS(Int)=  0.03777798
 Iteration  2 RMS(Cart)=  0.03077635 RMS(Int)=  0.00066295
 Iteration  3 RMS(Cart)=  0.00002369 RMS(Int)=  0.00066224
 Iteration  4 RMS(Cart)=  0.00000000 RMS(Int)=  0.00066224
 Iteration  1 RMS(Cart)=  0.00021382 RMS(Int)=  0.00051694
 Iteration  2 RMS(Cart)=  0.00016692 RMS(Int)=  0.00055946
 Iteration  3 RMS(Cart)=  0.00013030 RMS(Int)=  0.00064213
 Iteration  4 RMS(Cart)=  0.00010172 RMS(Int)=  0.00072707
 Iteration  5 RMS(Cart)=  0.00007940 RMS(Int)=  0.00080189
 Iteration  6 RMS(Cart)=  0.00006198 RMS(Int)=  0.00086413
 Iteration  7 RMS(Cart)=  0.00004838 RMS(Int)=  0.00091456
 Iteration  8 RMS(Cart)=  0.00003776 RMS(Int)=  0.00095487
 Iteration  9 RMS(Cart)=  0.00002947 RMS(Int)=  0.00098684
 Iteration 10 RMS(Cart)=  0.00002301 RMS(Int)=  0.00101207
 Iteration 11 RMS(Cart)=  0.00001796 RMS(Int)=  0.00103192
 Iteration 12 RMS(Cart)=  0.00001402 RMS(Int)=  0.00104750
 Iteration 13 RMS(Cart)=  0.00001094 RMS(Int)=  0.00105972
 Iteration 14 RMS(Cart)=  0.00000854 RMS(Int)=  0.00106928
 Iteration 15 RMS(Cart)=  0.00000667 RMS(Int)=  0.00107677
 Iteration 16 RMS(Cart)=  0.00000520 RMS(Int)=  0.00108262
 Iteration 17 RMS(Cart)=  0.00000406 RMS(Int)=  0.00108720
 Iteration 18 RMS(Cart)=  0.00000317 RMS(Int)=  0.00109077
 Iteration 19 RMS(Cart)=  0.00000247 RMS(Int)=  0.00109356
 Iteration 20 RMS(Cart)=  0.00000193 RMS(Int)=  0.00109574
 Iteration 21 RMS(Cart)=  0.00000151 RMS(Int)=  0.00109745
 Iteration 22 RMS(Cart)=  0.00000118 RMS(Int)=  0.00109878
 Iteration 23 RMS(Cart)=  0.00000092 RMS(Int)=  0.00109982
 ClnCor:  largest displacement from symmetrization is 2.78D-17 for atom     1.
 Variable       Old X    -DE/DX   Delta X   Delta X   Delta X     New X
                                 (Linear)    (Quad)   (Total)
    R1        1.88973   0.62244   0.00000   0.11713   0.11691   2.00664
    R2        2.50692  -0.14427   0.00000  -0.27525  -0.27506   2.23187
    A1        2.83579  -0.00192   0.00000  -0.02268  -0.02549   2.81030
    A2        0.17453  -0.02812   0.00000   0.00000   0.00000   0.17453
         Item               Value     Threshold  Converged?
 Maximum Force            0.619031     0.000015     NO 
 RMS     Force            0.367809     0.000010     NO 
 Maximum Displacement     0.145280     0.000060     NO 
 RMS     Displacement     0.099868     0.000040     NO 
 Predicted change in Energy=-8.315623D-02
 GradGradGradGradGradGradGradGradGradGradGradGradGradGradGradGradGradGrad

                          Input orientation:                          
 ---------------------------------------------------------------------
 Center     Atomic      Atomic             Coordinates (Angstroms)
 Number     Number       Type             X           Y           Z
 ---------------------------------------------------------------------
      1          7           0        0.005176    0.000000   -0.069366
      2          6           0        0.010696    0.000000    0.992488
      3          1           0        0.383519    0.000000   -1.188179
 ---------------------------------------------------------------------
                    Distance matrix (angstroms):
                    1          2          3
     1  N    0.000000
     2  C    1.061868   0.000000
     3  H    1.181053   2.212307   0.000000
 Stoichiometry    CHN
 Framework group  CS[SG(CHN)]
 Deg. of freedom     3
 Full point group                 CS      NOp   2
 Largest Abelian subgroup         CS      NOp   2
 Largest concise Abelian subgroup C1      NOp   1
                         Standard orientation:                         
 ---------------------------------------------------------------------
 Center     Atomic      Atomic             Coordinates (Angstroms)
 Number     Number       Type             X           Y           Z
 ---------------------------------------------------------------------
      1          7           0        0.027440    0.375313    0.000000
      2          6           0        0.027440   -0.686556    0.000000
      3          1           0       -0.356715    1.492143    0.000000
 ---------------------------------------------------------------------
 Rotational constants (GHZ):   4761.1197261     51.4186941     50.8693204
 Standard basis: 6-311G(d,p) (5D, 7F)
 There are    33 symmetry adapted cartesian basis functions of A'  symmetry.
 There are    11 symmetry adapted cartesian basis functions of A"  symmetry.
 There are    31 symmetry adapted basis functions of A'  symmetry.
 There are    11 symmetry adapted basis functions of A"  symmetry.
    42 basis functions,    72 primitive gaussians,    44 cartesian basis functions
     7 alpha electrons        7 beta electrons
       nuclear repulsion energy        25.5020757083 Hartrees.
 NAtoms=    3 NActive=    3 NUniq=    3 SFac= 1.00D+00 NAtFMM=   60 NAOKFM=F Big=F
 Integral buffers will be    131072 words long.
 Raffenetti 1 integral format.
 Two-electron integral symmetry is turned on.
 One-electron integrals computed using PRISM.
 NBasis=    42 RedAO= T EigKep=  6.48D-03  NBF=    31    11
 NBsUse=    42 1.00D-06 EigRej= -1.00D+00 NBFU=    31    11
 Initial guess from the checkpoint file:  "HNC6311Gss.chk"
 B after Tr=     0.000000    0.000000    0.000000
         Rot=    0.999999    0.000000    0.000000   -0.001622 Ang=  -0.19 deg.
 Initial guess orbital symmetries:
       Occupied  (A') (A') (A') (A') (A') (A") (A')
       Virtual   (A') (A') (A') (A') (A') (A') (A') (A') (A') (A')
                 (A') (A') (A') (A') (A') (A') (A') (A') (A') (A')
                 (A') (A') (A') (A') (A') (A") (A") (A") (A") (A")
                 (A") (A") (A") (A") (A")
 ExpMin= 1.03D-01 ExpMax= 6.29D+03 ExpMxC= 9.49D+02 IAcc=1 IRadAn=         1 AccDes= 0.00D+00
 Harris functional with IExCor=  205 and IRadAn=       1 diagonalized for initial guess.
 HarFok:  IExCor=  205 AccDes= 0.00D+00 IRadAn=         1 IDoV= 1 UseB2=F ITyADJ=14
 ICtDFT=  3500011 ScaDFX=  1.000000  1.000000  1.000000  1.000000
 FoFCou: FMM=F IPFlag=           0 FMFlag=      100000 FMFlg1=           0
         NFxFlg=           0 DoJE=T BraDBF=F KetDBF=T FulRan=T
         wScrn=  0.000000 ICntrl=     500 IOpCl=  0 I1Cent=   200000004 NGrid=           0
         NMat0=    1 NMatS0=      1 NMatT0=    0 NMatD0=    1 NMtDS0=    0 NMtDT0=    0
 Petite list used in FoFCou.
 Keep R1 ints in memory in symmetry-blocked form, NReq=1267957.
 Requested convergence on RMS density matrix=1.00D-08 within 128 cycles.
 Requested convergence on MAX density matrix=1.00D-06.
 Requested convergence on             energy=1.00D-06.
 No special actions if energy rises.
 SCF Done:  E(RHF) =  -92.8305241516     A.U. after   12 cycles
            NFock= 12  Conv=0.62D-08     -V/T= 1.9964
 Calling FoFJK, ICntrl=      2127 FMM=F ISym2X=1 I1Cent= 0 IOpClX= 0 NMat=1 NMatS=1 NMatT=0.
 ***** Axes restored to original set *****
 -------------------------------------------------------------------
 Center     Atomic                   Forces (Hartrees/Bohr)
 Number     Number              X              Y              Z
 -------------------------------------------------------------------
      1        7           0.049223330    0.000000000   -0.415944119
      2        6          -0.004967855    0.000000000    0.303444923
      3        1          -0.044255475    0.000000000    0.112499196
 -------------------------------------------------------------------
 Cartesian Forces:  Max     0.415944119 RMS     0.177059489

 GradGradGradGradGradGradGradGradGradGradGradGradGradGradGradGradGradGrad
 Berny optimization.
 Using GEDIIS/GDIIS optimizer.
 FormGI is forming the generalized inverse of G from B-inverse, IUseBI=4.
 Internal  Forces:  Max     0.302635716 RMS     0.163066063
 Search for a local minimum.
 Step number   2 out of a maximum of   20 on scan point     1 out of    31
 All quantities printed in internal units (Hartrees-Bohrs-Radians)
 Mixed Optimization -- RFO/linear search
 Update second derivatives using D2CorX and points    1    2
 DE= -9.01D-02 DEPred=-8.32D-02 R= 1.08D+00
 TightC=F SS=  1.41D+00  RLast= 3.00D-01 DXNew= 5.0454D-01 8.9987D-01
 Trust test= 1.08D+00 RLast= 3.00D-01 DXMaxT set to 5.05D-01
 The second derivative matrix:
                          R1        R2        A1        A2
           R1           3.06380
           R2           0.14056   0.14786
           A1          -0.01031  -0.00048   0.16032
           A2          -0.06770   0.00513   0.00109   0.16198
 ITU=  1  0
 Use linear search instead of GDIIS.
 Linear search step of   0.532 exceeds DXMaxT=   0.505 but not scaled.
 Quartic linear search produced a step of  1.77446.
 Iteration  1 RMS(Cart)=  0.08467077 RMS(Int)=  0.14453597
 Iteration  2 RMS(Cart)=  0.08000014 RMS(Int)=  0.04461575
 Iteration  3 RMS(Cart)=  0.03610122 RMS(Int)=  0.00406886
 Iteration  4 RMS(Cart)=  0.00008946 RMS(Int)=  0.00406713
 Iteration  5 RMS(Cart)=  0.00000009 RMS(Int)=  0.00406713
 Iteration  1 RMS(Cart)=  0.00112530 RMS(Int)=  0.00340244
 Iteration  2 RMS(Cart)=  0.00094059 RMS(Int)=  0.00362880
 Iteration  3 RMS(Cart)=  0.00078605 RMS(Int)=  0.00411579
 Iteration  4 RMS(Cart)=  0.00065680 RMS(Int)=  0.00466845
 Iteration  5 RMS(Cart)=  0.00054872 RMS(Int)=  0.00519985
 Iteration  6 RMS(Cart)=  0.00045838 RMS(Int)=  0.00567870
 Iteration  7 RMS(Cart)=  0.00038288 RMS(Int)=  0.00609727
 Iteration  8 RMS(Cart)=  0.00031979 RMS(Int)=  0.00645729
 Iteration  9 RMS(Cart)=  0.00026708 RMS(Int)=  0.00676405
 Iteration 10 RMS(Cart)=  0.00022304 RMS(Int)=  0.00702391
 Iteration 11 RMS(Cart)=  0.00018626 RMS(Int)=  0.00724320
 Iteration 12 RMS(Cart)=  0.00015553 RMS(Int)=  0.00742777
 Iteration 13 RMS(Cart)=  0.00012987 RMS(Int)=  0.00758282
 Iteration 14 RMS(Cart)=  0.00010844 RMS(Int)=  0.00771291
 Iteration 15 RMS(Cart)=  0.00009055 RMS(Int)=  0.00782193
 Iteration 16 RMS(Cart)=  0.00007560 RMS(Int)=  0.00791322
 Iteration 17 RMS(Cart)=  0.00006313 RMS(Int)=  0.00798963
 Iteration 18 RMS(Cart)=  0.00005271 RMS(Int)=  0.00805356
 Iteration 19 RMS(Cart)=  0.00004401 RMS(Int)=  0.00810701
 Iteration 20 RMS(Cart)=  0.00003674 RMS(Int)=  0.00815170
 Iteration 21 RMS(Cart)=  0.00003068 RMS(Int)=  0.00818905
 Iteration 22 RMS(Cart)=  0.00002561 RMS(Int)=  0.00822026
 Iteration 23 RMS(Cart)=  0.00002138 RMS(Int)=  0.00824633
 Iteration 24 RMS(Cart)=  0.00001785 RMS(Int)=  0.00826812
 Iteration 25 RMS(Cart)=  0.00001491 RMS(Int)=  0.00828631
 Iteration 26 RMS(Cart)=  0.00001244 RMS(Int)=  0.00830151
 Iteration 27 RMS(Cart)=  0.00001039 RMS(Int)=  0.00831420
 Iteration 28 RMS(Cart)=  0.00000867 RMS(Int)=  0.00832480
 Iteration 29 RMS(Cart)=  0.00000724 RMS(Int)=  0.00833366
 Iteration 30 RMS(Cart)=  0.00000605 RMS(Int)=  0.00834105
 Iteration 31 RMS(Cart)=  0.00000505 RMS(Int)=  0.00834722
 Iteration 32 RMS(Cart)=  0.00000421 RMS(Int)=  0.00835237
 Iteration 33 RMS(Cart)=  0.00000352 RMS(Int)=  0.00835668
 Iteration 34 RMS(Cart)=  0.00000294 RMS(Int)=  0.00836027
 Iteration 35 RMS(Cart)=  0.00000245 RMS(Int)=  0.00836327
 Iteration 36 RMS(Cart)=  0.00000205 RMS(Int)=  0.00836578
 Iteration 37 RMS(Cart)=  0.00000171 RMS(Int)=  0.00836787
 Iteration 38 RMS(Cart)=  0.00000143 RMS(Int)=  0.00836961
 Iteration 39 RMS(Cart)=  0.00000119 RMS(Int)=  0.00837107
 Iteration 40 RMS(Cart)=  0.00000099 RMS(Int)=  0.00837229
 ClnCor:  largest displacement from symmetrization is 6.66D-16 for atom     3.
 Variable       Old X    -DE/DX   Delta X   Delta X   Delta X     New X
                                 (Linear)    (Quad)   (Total)
    R1        2.00664   0.30264   0.20746   0.00000   0.20550   2.21214
    R2        2.23187  -0.12005  -0.48808   0.00000  -0.48558   1.74629
    A1        2.81030   0.00324  -0.04522   0.00000  -0.06501   2.74529
    A2        0.17453  -0.01876  -0.00001   0.00000   0.00000   0.17453
         Item               Value     Threshold  Converged?
 Maximum Force            0.299864     0.000015     NO 
 RMS     Force            0.186867     0.000010     NO 
 Maximum Displacement     0.260244     0.000060     NO 
 RMS     Displacement     0.178195     0.000040     NO 
 Predicted change in Energy=-5.171280D-02
 GradGradGradGradGradGradGradGradGradGradGradGradGradGradGradGradGradGrad

                          Input orientation:                          
 ---------------------------------------------------------------------
 Center     Atomic      Atomic             Coordinates (Angstroms)
 Number     Number       Type             X           Y           Z
 ---------------------------------------------------------------------
      1          7           0        0.012587    0.000000   -0.192534
      2          6           0        0.030842    0.000000    0.977939
      3          1           0        0.355962    0.000000   -1.050464
 ---------------------------------------------------------------------
                    Distance matrix (angstroms):
                    1          2          3
     1  N    0.000000
     2  C    1.170615   0.000000
     3  H    0.924095   2.054293   0.000000
 Stoichiometry    CHN
 Framework group  CS[SG(CHN)]
 Deg. of freedom     3
 Full point group                 CS      NOp   2
 Largest Abelian subgroup         CS      NOp   2
 Largest concise Abelian subgroup C1      NOp   1
                         Standard orientation:                         
 ---------------------------------------------------------------------
 Center     Atomic      Atomic             Coordinates (Angstroms)
 Number     Number       Type             X           Y           Z
 ---------------------------------------------------------------------
      1          7           0        0.025480    0.440801    0.000000
      2          6           0        0.025480   -0.729814    0.000000
      3          1           0       -0.331234    1.293272    0.000000
 ---------------------------------------------------------------------
 Rotational constants (GHZ):   4973.6436047     46.9723537     46.5328854
 Standard basis: 6-311G(d,p) (5D, 7F)
 There are    33 symmetry adapted cartesian basis functions of A'  symmetry.
 There are    11 symmetry adapted cartesian basis functions of A"  symmetry.
 There are    31 symmetry adapted basis functions of A'  symmetry.
 There are    11 symmetry adapted basis functions of A"  symmetry.
    42 basis functions,    72 primitive gaussians,    44 cartesian basis functions
     7 alpha electrons        7 beta electrons
       nuclear repulsion energy        24.5402052026 Hartrees.
 NAtoms=    3 NActive=    3 NUniq=    3 SFac= 1.00D+00 NAtFMM=   60 NAOKFM=F Big=F
 Integral buffers will be    131072 words long.
 Raffenetti 1 integral format.
 Two-electron integral symmetry is turned on.
 One-electron integrals computed using PRISM.
 NBasis=    42 RedAO= T EigKep=  8.73D-03  NBF=    31    11
 NBsUse=    42 1.00D-06 EigRej= -1.00D+00 NBFU=    31    11
 Initial guess from the checkpoint file:  "HNC6311Gss.chk"
 B after Tr=     0.000000    0.000000    0.000000
         Rot=    0.999996    0.000000    0.000000   -0.002849 Ang=  -0.33 deg.
 Initial guess orbital symmetries:
       Occupied  (A') (A') (A') (A') (A') (A") (A')
       Virtual   (A') (A') (A') (A') (A') (A') (A') (A') (A') (A')
                 (A') (A') (A') (A') (A') (A') (A') (A') (A') (A')
                 (A') (A') (A') (A') (A') (A") (A") (A") (A") (A")
                 (A") (A") (A") (A") (A")
 ExpMin= 1.03D-01 ExpMax= 6.29D+03 ExpMxC= 9.49D+02 IAcc=1 IRadAn=         1 AccDes= 0.00D+00
 Harris functional with IExCor=  205 and IRadAn=       1 diagonalized for initial guess.
 HarFok:  IExCor=  205 AccDes= 0.00D+00 IRadAn=         1 IDoV= 1 UseB2=F ITyADJ=14
 ICtDFT=  3500011 ScaDFX=  1.000000  1.000000  1.000000  1.000000
 FoFCou: FMM=F IPFlag=           0 FMFlag=      100000 FMFlg1=           0
         NFxFlg=           0 DoJE=T BraDBF=F KetDBF=T FulRan=T
         wScrn=  0.000000 ICntrl=     500 IOpCl=  0 I1Cent=   200000004 NGrid=           0
         NMat0=    1 NMatS0=      1 NMatT0=    0 NMatD0=    1 NMtDS0=    0 NMtDT0=    0
 Petite list used in FoFCou.
 Keep R1 ints in memory in symmetry-blocked form, NReq=1267927.
 Requested convergence on RMS density matrix=1.00D-08 within 128 cycles.
 Requested convergence on MAX density matrix=1.00D-06.
 Requested convergence on             energy=1.00D-06.
 No special actions if energy rises.
 SCF Done:  E(RHF) =  -92.8749646461     A.U. after   13 cycles
            NFock= 13  Conv=0.62D-08     -V/T= 1.9994
 Calling FoFJK, ICntrl=      2127 FMM=F ISym2X=1 I1Cent= 0 IOpClX= 0 NMat=1 NMatS=1 NMatT=0.
 ***** Axes restored to original set *****
 -------------------------------------------------------------------
 Center     Atomic                   Forces (Hartrees/Bohr)
 Number     Number              X              Y              Z
 -------------------------------------------------------------------
      1        7          -0.018515288    0.000000000    0.121901820
      2        6          -0.005824739    0.000000000   -0.043548169
      3        1           0.024340027    0.000000000   -0.078353652
 -------------------------------------------------------------------
 Cartesian Forces:  Max     0.121901820 RMS     0.051494306

 GradGradGradGradGradGradGradGradGradGradGradGradGradGradGradGradGradGrad
 Berny optimization.
 Using GEDIIS/GDIIS optimizer.
 FormGI is forming the generalized inverse of G from B-inverse, IUseBI=4.
 Internal  Forces:  Max     0.081712569 RMS     0.046692005
 Search for a local minimum.
 Step number   3 out of a maximum of   20 on scan point     1 out of    31
 All quantities printed in internal units (Hartrees-Bohrs-Radians)
 Mixed Optimization -- RFO/linear search
 Update second derivatives using D2CorX and points    2    3
 The second derivative matrix:
                          R1        R2        A1        A2
           R1           1.46652
           R2          -0.09533   0.37435
           A1           0.02234   0.00604   0.15966
           A2          -0.04117   0.02386   0.00065   0.16238
 ITU=  0  1  0
 Use linear search instead of GDIIS.
     Eigenvalues ---    0.36503   1.453771000.000001000.00000
 RFO step:  Lambda=-2.52726946D-03 EMin= 3.65026186D-01
 Quartic linear search produced a step of -0.23269.
 Iteration  1 RMS(Cart)=  0.06825713 RMS(Int)=  0.00086201
 Iteration  2 RMS(Cart)=  0.00055982 RMS(Int)=  0.00045871
 Iteration  3 RMS(Cart)=  0.00000031 RMS(Int)=  0.00045871
 Iteration  1 RMS(Cart)=  0.00013621 RMS(Int)=  0.00037362
 Iteration  2 RMS(Cart)=  0.00011163 RMS(Int)=  0.00040030
 Iteration  3 RMS(Cart)=  0.00009148 RMS(Int)=  0.00045600
 Iteration  4 RMS(Cart)=  0.00007497 RMS(Int)=  0.00051741
 Iteration  5 RMS(Cart)=  0.00006144 RMS(Int)=  0.00057496
 Iteration  6 RMS(Cart)=  0.00005035 RMS(Int)=  0.00062565
 Iteration  7 RMS(Cart)=  0.00004127 RMS(Int)=  0.00066902
 Iteration  8 RMS(Cart)=  0.00003382 RMS(Int)=  0.00070555
 Iteration  9 RMS(Cart)=  0.00002772 RMS(Int)=  0.00073606
 Iteration 10 RMS(Cart)=  0.00002272 RMS(Int)=  0.00076140
 Iteration 11 RMS(Cart)=  0.00001862 RMS(Int)=  0.00078238
 Iteration 12 RMS(Cart)=  0.00001526 RMS(Int)=  0.00079969
 Iteration 13 RMS(Cart)=  0.00001251 RMS(Int)=  0.00081396
 Iteration 14 RMS(Cart)=  0.00001025 RMS(Int)=  0.00082571
 Iteration 15 RMS(Cart)=  0.00000840 RMS(Int)=  0.00083536
 Iteration 16 RMS(Cart)=  0.00000688 RMS(Int)=  0.00084330
 Iteration 17 RMS(Cart)=  0.00000564 RMS(Int)=  0.00084982
 Iteration 18 RMS(Cart)=  0.00000462 RMS(Int)=  0.00085517
 Iteration 19 RMS(Cart)=  0.00000379 RMS(Int)=  0.00085956
 Iteration 20 RMS(Cart)=  0.00000311 RMS(Int)=  0.00086317
 Iteration 21 RMS(Cart)=  0.00000255 RMS(Int)=  0.00086612
 Iteration 22 RMS(Cart)=  0.00000209 RMS(Int)=  0.00086855
 Iteration 23 RMS(Cart)=  0.00000171 RMS(Int)=  0.00087053
 Iteration 24 RMS(Cart)=  0.00000140 RMS(Int)=  0.00087216
 Iteration 25 RMS(Cart)=  0.00000115 RMS(Int)=  0.00087350
 Iteration 26 RMS(Cart)=  0.00000094 RMS(Int)=  0.00087460
 ClnCor:  largest displacement from symmetrization is 1.83D-15 for atom     3.
 Variable       Old X    -DE/DX   Delta X   Delta X   Delta X     New X
                                 (Linear)    (Quad)   (Total)
    R1        2.21214  -0.04357  -0.04782   0.03333  -0.01429   2.19786
    R2        1.74629   0.08171   0.11299   0.05757   0.17034   1.91662
    A1        2.74529   0.01196   0.01513   0.00405   0.02130   2.76658
    A2        0.17453   0.00133   0.00000   0.00000   0.00001   0.17454
         Item               Value     Threshold  Converged?
 Maximum Force            0.081332     0.000015     NO 
 RMS     Force            0.053882     0.000010     NO 
 Maximum Displacement     0.109183     0.000060     NO 
 RMS     Displacement     0.068515     0.000040     NO 
 Predicted change in Energy=-8.932162D-03
 GradGradGradGradGradGradGradGradGradGradGradGradGradGradGradGradGradGrad

                          Input orientation:                          
 ---------------------------------------------------------------------
 Center     Atomic      Atomic             Coordinates (Angstroms)
 Number     Number       Type             X           Y           Z
 ---------------------------------------------------------------------
      1          7           0        0.008387    0.000000   -0.159890
      2          6           0        0.023034    0.000000    1.003073
      3          1           0        0.367969    0.000000   -1.108241
 ---------------------------------------------------------------------
                    Distance matrix (angstroms):
                    1          2          3
     1  N    0.000000
     2  C    1.163055   0.000000
     3  H    1.014233   2.139305   0.000000
 Stoichiometry    CHN
 Framework group  CS[SG(CHN)]
 Deg. of freedom     3
 Full point group                 CS      NOp   2
 Largest Abelian subgroup         CS      NOp   2
 Largest concise Abelian subgroup C1      NOp   1
                         Standard orientation:                         
 ---------------------------------------------------------------------
 Center     Atomic      Atomic             Coordinates (Angstroms)
 Number     Number       Type             X           Y           Z
 ---------------------------------------------------------------------
      1          7           0        0.026535    0.431042    0.000000
      2          6           0        0.026535   -0.732013    0.000000
      3          1           0       -0.344961    1.374789    0.000000
 ---------------------------------------------------------------------
 Rotational constants (GHZ):   4703.9254364     46.3888930     45.9358852
 Standard basis: 6-311G(d,p) (5D, 7F)
 There are    33 symmetry adapted cartesian basis functions of A'  symmetry.
 There are    11 symmetry adapted cartesian basis functions of A"  symmetry.
 There are    31 symmetry adapted basis functions of A'  symmetry.
 There are    11 symmetry adapted basis functions of A"  symmetry.
    42 basis functions,    72 primitive gaussians,    44 cartesian basis functions
     7 alpha electrons        7 beta electrons
       nuclear repulsion energy        24.2459534248 Hartrees.
 NAtoms=    3 NActive=    3 NUniq=    3 SFac= 1.00D+00 NAtFMM=   60 NAOKFM=F Big=F
 Integral buffers will be    131072 words long.
 Raffenetti 1 integral format.
 Two-electron integral symmetry is turned on.
 One-electron integrals computed using PRISM.
 NBasis=    42 RedAO= T EigKep=  8.65D-03  NBF=    31    11
 NBsUse=    42 1.00D-06 EigRej= -1.00D+00 NBFU=    31    11
 Initial guess from the checkpoint file:  "HNC6311Gss.chk"
 B after Tr=     0.000000    0.000000    0.000000
         Rot=    1.000000    0.000000    0.000000    0.000774 Ang=   0.09 deg.
 Initial guess orbital symmetries:
       Occupied  (A') (A') (A') (A') (A') (A") (A')
       Virtual   (A') (A') (A') (A') (A') (A') (A') (A') (A') (A')
                 (A') (A') (A') (A') (A') (A') (A') (A') (A') (A')
                 (A') (A') (A') (A') (A') (A") (A") (A") (A") (A")
                 (A") (A") (A") (A") (A")
 ExpMin= 1.03D-01 ExpMax= 6.29D+03 ExpMxC= 9.49D+02 IAcc=1 IRadAn=         1 AccDes= 0.00D+00
 Harris functional with IExCor=  205 and IRadAn=       1 diagonalized for initial guess.
 HarFok:  IExCor=  205 AccDes= 0.00D+00 IRadAn=         1 IDoV= 1 UseB2=F ITyADJ=14
 ICtDFT=  3500011 ScaDFX=  1.000000  1.000000  1.000000  1.000000
 FoFCou: FMM=F IPFlag=           0 FMFlag=      100000 FMFlg1=           0
         NFxFlg=           0 DoJE=T BraDBF=F KetDBF=T FulRan=T
         wScrn=  0.000000 ICntrl=     500 IOpCl=  0 I1Cent=   200000004 NGrid=           0
         NMat0=    1 NMatS0=      1 NMatT0=    0 NMatD0=    1 NMtDS0=    0 NMtDT0=    0
 Petite list used in FoFCou.
 Keep R1 ints in memory in symmetry-blocked form, NReq=1267927.
 Requested convergence on RMS density matrix=1.00D-08 within 128 cycles.
 Requested convergence on MAX density matrix=1.00D-06.
 Requested convergence on             energy=1.00D-06.
 No special actions if energy rises.
 SCF Done:  E(RHF) =  -92.8794991305     A.U. after   12 cycles
            NFock= 12  Conv=0.28D-08     -V/T= 2.0011
 Calling FoFJK, ICntrl=      2127 FMM=F ISym2X=1 I1Cent= 0 IOpClX= 0 NMat=1 NMatS=1 NMatT=0.
 ***** Axes restored to original set *****
 -------------------------------------------------------------------
 Center     Atomic                   Forces (Hartrees/Bohr)
 Number     Number              X              Y              Z
 -------------------------------------------------------------------
      1        7           0.018900286    0.000000000    0.001375610
      2        6          -0.004666691    0.000000000   -0.024833389
      3        1          -0.014233594    0.000000000    0.023457779
 -------------------------------------------------------------------
 Cartesian Forces:  Max     0.024833389 RMS     0.013946130

 GradGradGradGradGradGradGradGradGradGradGradGradGradGradGradGradGradGrad
 Berny optimization.
 Using GEDIIS/GDIIS optimizer.
 FormGI is forming the generalized inverse of G from B-inverse, IUseBI=4.
 Internal  Forces:  Max     0.026790376 RMS     0.018847221
 Search for a local minimum.
 Step number   4 out of a maximum of   20 on scan point     1 out of    31
 All quantities printed in internal units (Hartrees-Bohrs-Radians)
 Mixed Optimization -- RFO/linear search
 Update second derivatives using D2CorX and points    2    3    4
 DE= -4.53D-03 DEPred=-8.93D-03 R= 5.08D-01
 TightC=F SS=  1.41D+00  RLast= 1.72D-01 DXNew= 8.4853D-01 5.1677D-01
 Trust test= 5.08D-01 RLast= 1.72D-01 DXMaxT set to 5.17D-01
 The second derivative matrix:
                          R1        R2        A1        A2
           R1           1.63568
           R2           0.02503   0.63821
           A1           0.02755   0.00703   0.15891
           A2          -0.04126   0.02695   0.00016   0.16224
 ITU=  1  0  1  0
 Use linear search instead of GDIIS.
     Eigenvalues ---    0.63334   1.619841000.000001000.00000
 RFO step:  Lambda=-5.68235871D-04 EMin= 6.33342199D-01
 Quartic linear search produced a step of -0.26581.
 Iteration  1 RMS(Cart)=  0.02356723 RMS(Int)=  0.00009670
 Iteration  2 RMS(Cart)=  0.00003163 RMS(Int)=  0.00008706
 Iteration  3 RMS(Cart)=  0.00000000 RMS(Int)=  0.00008706
 Iteration  1 RMS(Cart)=  0.00002577 RMS(Int)=  0.00007250
 Iteration  2 RMS(Cart)=  0.00002120 RMS(Int)=  0.00007762
 Iteration  3 RMS(Cart)=  0.00001743 RMS(Int)=  0.00008835
 Iteration  4 RMS(Cart)=  0.00001434 RMS(Int)=  0.00010025
 Iteration  5 RMS(Cart)=  0.00001179 RMS(Int)=  0.00011145
 Iteration  6 RMS(Cart)=  0.00000970 RMS(Int)=  0.00012136
 Iteration  7 RMS(Cart)=  0.00000798 RMS(Int)=  0.00012987
 Iteration  8 RMS(Cart)=  0.00000656 RMS(Int)=  0.00013707
 Iteration  9 RMS(Cart)=  0.00000540 RMS(Int)=  0.00014311
 Iteration 10 RMS(Cart)=  0.00000444 RMS(Int)=  0.00014814
 Iteration 11 RMS(Cart)=  0.00000365 RMS(Int)=  0.00015232
 Iteration 12 RMS(Cart)=  0.00000300 RMS(Int)=  0.00015578
 Iteration 13 RMS(Cart)=  0.00000247 RMS(Int)=  0.00015864
 Iteration 14 RMS(Cart)=  0.00000203 RMS(Int)=  0.00016101
 Iteration 15 RMS(Cart)=  0.00000167 RMS(Int)=  0.00016296
 Iteration 16 RMS(Cart)=  0.00000137 RMS(Int)=  0.00016457
 Iteration 17 RMS(Cart)=  0.00000113 RMS(Int)=  0.00016590
 Iteration 18 RMS(Cart)=  0.00000093 RMS(Int)=  0.00016699
 ClnCor:  largest displacement from symmetrization is 2.26D-15 for atom     3.
 Variable       Old X    -DE/DX   Delta X   Delta X   Delta X     New X
                                 (Linear)    (Quad)   (Total)
    R1        2.19786  -0.02506   0.00380  -0.01850  -0.01466   2.18319
    R2        1.91662  -0.02679  -0.04528  -0.00321  -0.04854   1.86809
    A1        2.76658   0.00778  -0.00566   0.00137  -0.00389   2.76269
    A2        0.17454  -0.00386   0.00000   0.00000   0.00000   0.17454
         Item               Value     Threshold  Converged?
 Maximum Force            0.025927     0.000015     NO 
 RMS     Force            0.021122     0.000010     NO 
 Maximum Displacement     0.036620     0.000060     NO 
 RMS     Displacement     0.023531     0.000040     NO 
 Predicted change in Energy=-6.879449D-04
 GradGradGradGradGradGradGradGradGradGradGradGradGradGradGradGradGradGrad

                          Input orientation:                          
 ---------------------------------------------------------------------
 Center     Atomic      Atomic             Coordinates (Angstroms)
 Number     Number       Type             X           Y           Z
 ---------------------------------------------------------------------
      1          7           0        0.010213    0.000000   -0.165696
      2          6           0        0.025421    0.000000    0.989500
      3          1           0        0.363756    0.000000   -1.088862
 ---------------------------------------------------------------------
                    Distance matrix (angstroms):
                    1          2          3
     1  N    0.000000
     2  C    1.155297   0.000000
     3  H    0.988548   2.105721   0.000000
 Stoichiometry    CHN
 Framework group  CS[SG(CHN)]
 Deg. of freedom     3
 Full point group                 CS      NOp   2
 Largest Abelian subgroup         CS      NOp   2
 Largest concise Abelian subgroup C1      NOp   1
                         Standard orientation:                         
 ---------------------------------------------------------------------
 Center     Atomic      Atomic             Coordinates (Angstroms)
 Number     Number       Type             X           Y           Z
 ---------------------------------------------------------------------
      1          7           0        0.026119    0.429525    0.000000
      2          6           0        0.026119   -0.725772    0.000000
      3          1           0       -0.339546    1.347957    0.000000
 ---------------------------------------------------------------------
 Rotational constants (GHZ):   4830.3519917     47.2555098     46.7976863
 Standard basis: 6-311G(d,p) (5D, 7F)
 There are    33 symmetry adapted cartesian basis functions of A'  symmetry.
 There are    11 symmetry adapted cartesian basis functions of A"  symmetry.
 There are    31 symmetry adapted basis functions of A'  symmetry.
 There are    11 symmetry adapted basis functions of A"  symmetry.
    42 basis functions,    72 primitive gaussians,    44 cartesian basis functions
     7 alpha electrons        7 beta electrons
       nuclear repulsion energy        24.4928460824 Hartrees.
 NAtoms=    3 NActive=    3 NUniq=    3 SFac= 1.00D+00 NAtFMM=   60 NAOKFM=F Big=F
 Integral buffers will be    131072 words long.
 Raffenetti 1 integral format.
 Two-electron integral symmetry is turned on.
 One-electron integrals computed using PRISM.
 NBasis=    42 RedAO= T EigKep=  8.41D-03  NBF=    31    11
 NBsUse=    42 1.00D-06 EigRej= -1.00D+00 NBFU=    31    11
 Initial guess from the checkpoint file:  "HNC6311Gss.chk"
 B after Tr=     0.000000    0.000000    0.000000
         Rot=    1.000000    0.000000    0.000000   -0.000151 Ang=  -0.02 deg.
 Initial guess orbital symmetries:
       Occupied  (A') (A') (A') (A') (A') (A") (A')
       Virtual   (A') (A') (A') (A') (A') (A') (A') (A') (A') (A')
                 (A') (A') (A') (A') (A') (A') (A') (A') (A') (A')
                 (A') (A') (A') (A') (A') (A") (A") (A") (A") (A")
                 (A") (A") (A") (A") (A")
 ExpMin= 1.03D-01 ExpMax= 6.29D+03 ExpMxC= 9.49D+02 IAcc=1 IRadAn=         1 AccDes= 0.00D+00
 Harris functional with IExCor=  205 and IRadAn=       1 diagonalized for initial guess.
 HarFok:  IExCor=  205 AccDes= 0.00D+00 IRadAn=         1 IDoV= 1 UseB2=F ITyADJ=14
 ICtDFT=  3500011 ScaDFX=  1.000000  1.000000  1.000000  1.000000
 FoFCou: FMM=F IPFlag=           0 FMFlag=      100000 FMFlg1=           0
         NFxFlg=           0 DoJE=T BraDBF=F KetDBF=T FulRan=T
         wScrn=  0.000000 ICntrl=     500 IOpCl=  0 I1Cent=   200000004 NGrid=           0
         NMat0=    1 NMatS0=      1 NMatT0=    0 NMatD0=    1 NMtDS0=    0 NMtDT0=    0
 Petite list used in FoFCou.
 Keep R1 ints in memory in symmetry-blocked form, NReq=1267927.
 Requested convergence on RMS density matrix=1.00D-08 within 128 cycles.
 Requested convergence on MAX density matrix=1.00D-06.
 Requested convergence on             energy=1.00D-06.
 No special actions if energy rises.
 SCF Done:  E(RHF) =  -92.8804144705     A.U. after   10 cycles
            NFock= 10  Conv=0.98D-08     -V/T= 2.0001
 Calling FoFJK, ICntrl=      2127 FMM=F ISym2X=1 I1Cent= 0 IOpClX= 0 NMat=1 NMatS=1 NMatT=0.
 ***** Axes restored to original set *****
 -------------------------------------------------------------------
 Center     Atomic                   Forces (Hartrees/Bohr)
 Number     Number              X              Y              Z
 -------------------------------------------------------------------
      1        7           0.011268186    0.000000000    0.006775237
      2        6          -0.005072053    0.000000000   -0.006668366
      3        1          -0.006196133    0.000000000   -0.000106871
 -------------------------------------------------------------------
 Cartesian Forces:  Max     0.011268186 RMS     0.005592378

 GradGradGradGradGradGradGradGradGradGradGradGradGradGradGradGradGradGrad
 Berny optimization.
 Using GEDIIS/GDIIS optimizer.
 FormGI is forming the generalized inverse of G from B-inverse, IUseBI=4.
 Internal  Forces:  Max     0.009059917 RMS     0.006106296
 Search for a local minimum.
 Step number   5 out of a maximum of   20 on scan point     1 out of    31
 All quantities printed in internal units (Hartrees-Bohrs-Radians)
 Mixed Optimization -- RFO/linear search
 Update second derivatives using D2CorX and points    2    3    4    5
 DE= -9.15D-04 DEPred=-6.88D-04 R= 1.33D+00
 TightC=F SS=  1.41D+00  RLast= 5.09D-02 DXNew= 8.6909D-01 1.5256D-01
 Trust test= 1.33D+00 RLast= 5.09D-02 DXMaxT set to 5.17D-01
 The second derivative matrix:
                          R1        R2        A1        A2
           R1           1.58365
           R2          -0.10631   0.54410
           A1           0.02320   0.00669   0.15884
           A2          -0.06161   0.01649  -0.00034   0.16268
 ITU=  1  1  0  1  0
 Use linear search instead of GDIIS.
     Eigenvalues ---    0.53134   1.574141000.000001000.00000
 RFO step:  Lambda=-2.56815574D-05 EMin= 5.31340239D-01
 Quartic linear search produced a step of  0.09974.
 Iteration  1 RMS(Cart)=  0.00259479 RMS(Int)=  0.00000209
 Iteration  2 RMS(Cart)=  0.00000012 RMS(Int)=  0.00000208
 Iteration  1 RMS(Cart)=  0.00000016 RMS(Int)=  0.00000044
 ClnCor:  largest displacement from symmetrization is 1.81D-15 for atom     3.
 Variable       Old X    -DE/DX   Delta X   Delta X   Delta X     New X
                                 (Linear)    (Quad)   (Total)
    R1        2.18319  -0.00691  -0.00146  -0.00357  -0.00503   2.17817
    R2        1.86809  -0.00191  -0.00484   0.00257  -0.00227   1.86582
    A1        2.76269   0.00906  -0.00039   0.00062   0.00023   2.76293
    A2        0.17454  -0.00396   0.00000   0.00000   0.00000   0.17453
         Item               Value     Threshold  Converged?
 Maximum Force            0.007708     0.000015     NO 
 RMS     Force            0.004501     0.000010     NO 
 Maximum Displacement     0.004014     0.000060     NO 
 RMS     Displacement     0.002595     0.000040     NO 
 Predicted change in Energy=-2.103507D-05
 GradGradGradGradGradGradGradGradGradGradGradGradGradGradGradGradGradGrad

                          Input orientation:                          
 ---------------------------------------------------------------------
 Center     Atomic      Atomic             Coordinates (Angstroms)
 Number     Number       Type             X           Y           Z
 ---------------------------------------------------------------------
      1          7           0        0.010443    0.000000   -0.165160
      2          6           0        0.025574    0.000000    0.987376
      3          1           0        0.363374    0.000000   -1.087274
 ---------------------------------------------------------------------
                    Distance matrix (angstroms):
                    1          2          3
     1  N    0.000000
     2  C    1.152635   0.000000
     3  H    0.987348   2.101972   0.000000
 Stoichiometry    CHN
 Framework group  CS[SG(CHN)]
 Deg. of freedom     3
 Full point group                 CS      NOp   2
 Largest Abelian subgroup         CS      NOp   2
 Largest concise Abelian subgroup C1      NOp   1
                         Standard orientation:                         
 ---------------------------------------------------------------------
 Center     Atomic      Atomic             Coordinates (Angstroms)
 Number     Number       Type             X           Y           Z
 ---------------------------------------------------------------------
      1          7           0        0.026072    0.428458    0.000000
      2          6           0        0.026072   -0.724177    0.000000
      3          1           0       -0.338933    1.345860    0.000000
 ---------------------------------------------------------------------
 Rotational constants (GHZ):   4849.2318951     47.4601207     47.0001239
 Standard basis: 6-311G(d,p) (5D, 7F)
 There are    33 symmetry adapted cartesian basis functions of A'  symmetry.
 There are    11 symmetry adapted cartesian basis functions of A"  symmetry.
 There are    31 symmetry adapted basis functions of A'  symmetry.
 There are    11 symmetry adapted basis functions of A"  symmetry.
    42 basis functions,    72 primitive gaussians,    44 cartesian basis functions
     7 alpha electrons        7 beta electrons
       nuclear repulsion energy        24.5445100412 Hartrees.
 NAtoms=    3 NActive=    3 NUniq=    3 SFac= 1.00D+00 NAtFMM=   60 NAOKFM=F Big=F
 Integral buffers will be    131072 words long.
 Raffenetti 1 integral format.
 Two-electron integral symmetry is turned on.
 One-electron integrals computed using PRISM.
 NBasis=    42 RedAO= T EigKep=  8.34D-03  NBF=    31    11
 NBsUse=    42 1.00D-06 EigRej= -1.00D+00 NBFU=    31    11
 Initial guess from the checkpoint file:  "HNC6311Gss.chk"
 B after Tr=     0.000000    0.000000    0.000000
         Rot=    1.000000    0.000000    0.000000    0.000010 Ang=   0.00 deg.
 Initial guess orbital symmetries:
       Occupied  (A') (A') (A') (A') (A') (A") (A')
       Virtual   (A') (A') (A') (A') (A') (A') (A') (A') (A') (A')
                 (A') (A') (A') (A') (A') (A') (A') (A') (A') (A')
                 (A') (A') (A') (A') (A') (A") (A") (A") (A") (A")
                 (A") (A") (A") (A") (A")
 Keep R1 ints in memory in symmetry-blocked form, NReq=1267927.
 Requested convergence on RMS density matrix=1.00D-08 within 128 cycles.
 Requested convergence on MAX density matrix=1.00D-06.
 Requested convergence on             energy=1.00D-06.
 No special actions if energy rises.
 SCF Done:  E(RHF) =  -92.8804379234     A.U. after    9 cycles
            NFock=  9  Conv=0.77D-08     -V/T= 2.0000
 Calling FoFJK, ICntrl=      2127 FMM=F ISym2X=1 I1Cent= 0 IOpClX= 0 NMat=1 NMatS=1 NMatT=0.
 ***** Axes restored to original set *****
 -------------------------------------------------------------------
 Center     Atomic                   Forces (Hartrees/Bohr)
 Number     Number              X              Y              Z
 -------------------------------------------------------------------
      1        7           0.011011387    0.000000000    0.001385241
      2        6          -0.005111818    0.000000000   -0.000110720
      3        1          -0.005899569    0.000000000   -0.001274521
 -------------------------------------------------------------------
 Cartesian Forces:  Max     0.011011387 RMS     0.004542904

 GradGradGradGradGradGradGradGradGradGradGradGradGradGradGradGradGradGrad
 Berny optimization.
 Using GEDIIS/GDIIS optimizer.
 FormGI is forming the generalized inverse of G from B-inverse, IUseBI=4.
 Internal  Forces:  Max     0.009179053 RMS     0.005071361
 Search for a local minimum.
 Step number   6 out of a maximum of   20 on scan point     1 out of    31
 All quantities printed in internal units (Hartrees-Bohrs-Radians)
 Mixed Optimization -- En-DIIS/RFO-DIIS
 Update second derivatives using D2CorX and points    2    3    4    5    6
 DE= -2.35D-05 DEPred=-2.10D-05 R= 1.11D+00
 TightC=F SS=  1.41D+00  RLast= 5.52D-03 DXNew= 8.6909D-01 1.6566D-02
 Trust test= 1.11D+00 RLast= 5.52D-03 DXMaxT set to 5.17D-01
 The second derivative matrix:
                          R1        R2        A1        A2
           R1           1.30673
           R2          -0.00918   0.55534
           A1           0.02845   0.00585   0.15855
           A2          -0.06409   0.01783  -0.00049   0.16369
 ITU=  1  1  1  0  1
 Use linear search instead of GDIIS.
     Eigenvalues ---    0.55179   1.291131000.000001000.00000
 RFO step:  Lambda=-4.91510985D-07 EMin= 5.51791326D-01
 Quartic linear search produced a step of  0.15546.
 Iteration  1 RMS(Cart)=  0.00034015 RMS(Int)=  0.00000002
 Iteration  2 RMS(Cart)=  0.00000001 RMS(Int)=  0.00000002
 Iteration  1 RMS(Cart)=  0.00000002 RMS(Int)=  0.00000007
 ClnCor:  largest displacement from symmetrization is 1.37D-15 for atom     3.
 Variable       Old X    -DE/DX   Delta X   Delta X   Delta X     New X
                                 (Linear)    (Quad)   (Total)
    R1        2.17817  -0.00036  -0.00078  -0.00017  -0.00095   2.17721
    R2        1.86582  -0.00070  -0.00035   0.00090   0.00055   1.86636
    A1        2.76293   0.00918   0.00004   0.00012   0.00015   2.76308
    A2        0.17453  -0.00424   0.00000   0.00000   0.00000   0.17453
         Item               Value     Threshold  Converged?
 Maximum Force            0.001221     0.000015     NO 
 RMS     Force            0.000731     0.000010     NO 
 Maximum Displacement     0.000516     0.000060     NO 
 RMS     Displacement     0.000340     0.000040     NO 
 Predicted change in Energy=-6.872453D-07
 GradGradGradGradGradGradGradGradGradGradGradGradGradGradGradGradGradGrad

                          Input orientation:                          
 ---------------------------------------------------------------------
 Center     Atomic      Atomic             Coordinates (Angstroms)
 Number     Number       Type             X           Y           Z
 ---------------------------------------------------------------------
      1          7           0        0.010459    0.000000   -0.164887
      2          6           0        0.025557    0.000000    0.987147
      3          1           0        0.363374    0.000000   -1.087318
 ---------------------------------------------------------------------
                    Distance matrix (angstroms):
                    1          2          3
     1  N    0.000000
     2  C    1.152132   0.000000
     3  H    0.987637   2.101790   0.000000
 Stoichiometry    CHN
 Framework group  CS[SG(CHN)]
 Deg. of freedom     3
 Full point group                 CS      NOp   2
 Largest Abelian subgroup         CS      NOp   2
 Largest concise Abelian subgroup C1      NOp   1
                         Standard orientation:                         
 ---------------------------------------------------------------------
 Center     Atomic      Atomic             Coordinates (Angstroms)
 Number     Number       Type             X           Y           Z
 ---------------------------------------------------------------------
      1          7           0        0.026069    0.428219    0.000000
      2          6           0        0.026069   -0.723913    0.000000
      3          1           0       -0.338903    1.345946    0.000000
 ---------------------------------------------------------------------
 Rotational constants (GHZ):   4851.0522202     47.4922959     47.0318493
 Standard basis: 6-311G(d,p) (5D, 7F)
 There are    33 symmetry adapted cartesian basis functions of A'  symmetry.
 There are    11 symmetry adapted cartesian basis functions of A"  symmetry.
 There are    31 symmetry adapted basis functions of A'  symmetry.
 There are    11 symmetry adapted basis functions of A"  symmetry.
    42 basis functions,    72 primitive gaussians,    44 cartesian basis functions
     7 alpha electrons        7 beta electrons
       nuclear repulsion energy        24.5519575201 Hartrees.
 NAtoms=    3 NActive=    3 NUniq=    3 SFac= 1.00D+00 NAtFMM=   60 NAOKFM=F Big=F
 Integral buffers will be    131072 words long.
 Raffenetti 1 integral format.
 Two-electron integral symmetry is turned on.
 One-electron integrals computed using PRISM.
 NBasis=    42 RedAO= T EigKep=  8.33D-03  NBF=    31    11
 NBsUse=    42 1.00D-06 EigRej= -1.00D+00 NBFU=    31    11
 Initial guess from the checkpoint file:  "HNC6311Gss.chk"
 B after Tr=     0.000000    0.000000    0.000000
         Rot=    1.000000    0.000000    0.000000    0.000006 Ang=   0.00 deg.
 Initial guess orbital symmetries:
       Occupied  (A') (A') (A') (A') (A') (A") (A')
       Virtual   (A') (A') (A') (A') (A') (A') (A') (A') (A') (A')
                 (A') (A') (A') (A') (A') (A') (A') (A') (A') (A')
                 (A') (A') (A') (A') (A') (A") (A") (A") (A") (A")
                 (A") (A") (A") (A") (A")
 Keep R1 ints in memory in symmetry-blocked form, NReq=1267927.
 Requested convergence on RMS density matrix=1.00D-08 within 128 cycles.
 Requested convergence on MAX density matrix=1.00D-06.
 Requested convergence on             energy=1.00D-06.
 No special actions if energy rises.
 SCF Done:  E(RHF) =  -92.8804386030     A.U. after    8 cycles
            NFock=  8  Conv=0.38D-08     -V/T= 1.9999
 Calling FoFJK, ICntrl=      2127 FMM=F ISym2X=1 I1Cent= 0 IOpClX= 0 NMat=1 NMatS=1 NMatT=0.
 ***** Axes restored to original set *****
 -------------------------------------------------------------------
 Center     Atomic                   Forces (Hartrees/Bohr)
 Number     Number              X              Y              Z
 -------------------------------------------------------------------
      1        7           0.011142431    0.000000000   -0.000169654
      2        6          -0.005112791    0.000000000    0.001148760
      3        1          -0.006029640    0.000000000   -0.000979105
 -------------------------------------------------------------------
 Cartesian Forces:  Max     0.011142431 RMS     0.004582067

 GradGradGradGradGradGradGradGradGradGradGradGradGradGradGradGradGradGrad
 Berny optimization.
 Using GEDIIS/GDIIS optimizer.
 FormGI is forming the generalized inverse of G from B-inverse, IUseBI=4.
 Internal  Forces:  Max     0.009178125 RMS     0.005115926
 Search for a local minimum.
 Step number   7 out of a maximum of   20 on scan point     1 out of    31
 All quantities printed in internal units (Hartrees-Bohrs-Radians)
 Mixed Optimization -- En-DIIS/RFO-DIIS
 Swapping is turned off.
 Update second derivatives using D2CorX and points    3    4    5    6    7
 DE= -6.80D-07 DEPred=-6.87D-07 R= 9.89D-01
 Trust test= 9.89D-01 RLast= 1.11D-03 DXMaxT set to 5.17D-01
 The second derivative matrix:
                          R1        R2        A1        A2
           R1           1.31351
           R2          -0.02228   0.54157
           A1           0.02707   0.00458   0.15844
           A2          -0.06449   0.02067  -0.00034   0.16388
 ITU=  0  1  1  1  0
     Eigenvalues ---    0.53761   1.298151000.000001000.00000
 En-DIIS/RFO-DIIS IScMMF=        0 using points:     7    6
 RFO step:  Lambda=-3.31099163D-06.
 DidBck=F Rises=F RFO-DIIS coefs:    0.98302    0.01698
 Iteration  1 RMS(Cart)=  0.00000678 RMS(Int)=  0.00000196
 Iteration  2 RMS(Cart)=  0.00000000 RMS(Int)=  0.00000196
 Iteration  1 RMS(Cart)=  0.00000055 RMS(Int)=  0.00000155
 ClnCor:  largest displacement from symmetrization is 4.44D-16 for atom     3.
 Variable       Old X    -DE/DX   Delta X   Delta X   Delta X     New X
                                 (Linear)    (Quad)   (Total)
    R1        2.17721   0.00089   0.00002   0.00000   0.00002   2.17723
    R2        1.86636  -0.00102  -0.00001   0.00000  -0.00001   1.86636
    A1        2.76308   0.00918   0.00000   0.00001   0.00000   2.76308
    A2        0.17453  -0.00431   0.00000   0.00000   0.00000   0.17453
         Item               Value     Threshold  Converged?
 Maximum Force            0.000021     0.000015     NO 
 RMS     Force            0.000012     0.000010     NO 
 Maximum Displacement     0.000010     0.000060     YES
 RMS     Displacement     0.000007     0.000040     YES
 Predicted change in Energy=-7.118378D-08
 GradGradGradGradGradGradGradGradGradGradGradGradGradGradGradGradGradGrad

                          Input orientation:                          
 ---------------------------------------------------------------------
 Center     Atomic      Atomic             Coordinates (Angstroms)
 Number     Number       Type             X           Y           Z
 ---------------------------------------------------------------------
      1          7           0        0.010461    0.000000   -0.164890
      2          6           0        0.025556    0.000000    0.987152
      3          1           0        0.363373    0.000000   -1.087319
 ---------------------------------------------------------------------
                    Distance matrix (angstroms):
                    1          2          3
     1  N    0.000000
     2  C    1.152141   0.000000
     3  H    0.987634   2.101797   0.000000
 Stoichiometry    CHN
 Framework group  CS[SG(CHN)]
 Deg. of freedom     3
 Full point group                 CS      NOp   2
 Largest Abelian subgroup         CS      NOp   2
 Largest concise Abelian subgroup C1      NOp   1
                         Standard orientation:                         
 ---------------------------------------------------------------------
 Center     Atomic      Atomic             Coordinates (Angstroms)
 Number     Number       Type             X           Y           Z
 ---------------------------------------------------------------------
      1          7           0        0.026069    0.428223    0.000000
      2          6           0        0.026069   -0.723918    0.000000
      3          1           0       -0.338898    1.345949    0.000000
 ---------------------------------------------------------------------
 Rotational constants (GHZ):   4851.1712254     47.4916798     47.0312563
 Standard basis: 6-311G(d,p) (5D, 7F)
 There are    33 symmetry adapted cartesian basis functions of A'  symmetry.
 There are    11 symmetry adapted cartesian basis functions of A"  symmetry.
 There are    31 symmetry adapted basis functions of A'  symmetry.
 There are    11 symmetry adapted basis functions of A"  symmetry.
    42 basis functions,    72 primitive gaussians,    44 cartesian basis functions
     7 alpha electrons        7 beta electrons
       nuclear repulsion energy        24.5518164486 Hartrees.
 NAtoms=    3 NActive=    3 NUniq=    3 SFac= 1.00D+00 NAtFMM=   60 NAOKFM=F Big=F
 Integral buffers will be    131072 words long.
 Raffenetti 1 integral format.
 Two-electron integral symmetry is turned on.
 One-electron integrals computed using PRISM.
 NBasis=    42 RedAO= T EigKep=  8.33D-03  NBF=    31    11
 NBsUse=    42 1.00D-06 EigRej= -1.00D+00 NBFU=    31    11
 Initial guess from the checkpoint file:  "HNC6311Gss.chk"
 B after Tr=     0.000000    0.000000    0.000000
         Rot=    1.000000    0.000000    0.000000    0.000001 Ang=   0.00 deg.
 Initial guess orbital symmetries:
       Occupied  (A') (A') (A') (A') (A') (A") (A')
       Virtual   (A') (A') (A') (A') (A') (A') (A') (A') (A') (A')
                 (A') (A') (A') (A') (A') (A') (A') (A') (A') (A')
                 (A') (A') (A') (A') (A') (A") (A") (A") (A") (A")
                 (A") (A") (A") (A") (A")
 Keep R1 ints in memory in symmetry-blocked form, NReq=1267927.
 Requested convergence on RMS density matrix=1.00D-08 within 128 cycles.
 Requested convergence on MAX density matrix=1.00D-06.
 Requested convergence on             energy=1.00D-06.
 No special actions if energy rises.
 SCF Done:  E(RHF) =  -92.8804386742     A.U. after    4 cycles
            NFock=  4  Conv=0.50D-08     -V/T= 1.9999
 Calling FoFJK, ICntrl=      2127 FMM=F ISym2X=1 I1Cent= 0 IOpClX= 0 NMat=1 NMatS=1 NMatT=0.
 ***** Axes restored to original set *****
 -------------------------------------------------------------------
 Center     Atomic                   Forces (Hartrees/Bohr)
 Number     Number              X              Y              Z
 -------------------------------------------------------------------
      1        7           0.011140774    0.000000000   -0.000144625
      2        6          -0.005112645    0.000000000    0.001126495
      3        1          -0.006028130    0.000000000   -0.000981870
 -------------------------------------------------------------------
 Cartesian Forces:  Max     0.011140774 RMS     0.004580736

 GradGradGradGradGradGradGradGradGradGradGradGradGradGradGradGradGradGrad
 Berny optimization.
 Using GEDIIS/GDIIS optimizer.
 FormGI is forming the generalized inverse of G from B-inverse, IUseBI=4.
 Internal  Forces:  Max     0.009177877 RMS     0.005114438
 Search for a local minimum.
 Step number   8 out of a maximum of   20 on scan point     1 out of    31
 All quantities printed in internal units (Hartrees-Bohrs-Radians)
 Mixed Optimization -- En-DIIS/RFO-DIIS
 Swapping is turned off.
 Update second derivatives using D2CorX and points    4    5    6    8
 DE= -7.12D-08 DEPred=-7.12D-08 R= 1.00D+00
 Trust test= 1.00D+00 RLast= 1.81D-05 DXMaxT set to 5.17D-01
 The second derivative matrix:
                          R1        R2        A1        A2
           R1           1.31299
           R2          -0.02359   0.53933
           A1           0.02861   0.00564   0.15856
           A2          -0.06594   0.01894  -0.00047   0.16390
 ITU=  0  0  1  1  1
     Eigenvalues ---    0.53558   1.297381000.000001000.00000
 En-DIIS/RFO-DIIS IScMMF=        0 using points:     8    7    6
 RFO step:  Lambda=-3.30868943D-06.
 DidBck=F Rises=F RFO-DIIS coefs:    1.12025   -0.11863   -0.00162
 Iteration  1 RMS(Cart)=  0.00000354 RMS(Int)=  0.00000196
 Iteration  2 RMS(Cart)=  0.00000000 RMS(Int)=  0.00000196
 Iteration  1 RMS(Cart)=  0.00000108 RMS(Int)=  0.00000304
 Iteration  2 RMS(Cart)=  0.00000089 RMS(Int)=  0.00000326
 ClnCor:  largest displacement from symmetrization is 1.40D-15 for atom     3.
 Variable       Old X    -DE/DX   Delta X   Delta X   Delta X     New X
                                 (Linear)    (Quad)   (Total)
    R1        2.17723   0.00087   0.00000   0.00000   0.00000   2.17723
    R2        1.86636  -0.00102   0.00000   0.00000   0.00000   1.86636
    A1        2.76308   0.00918   0.00000   0.00001   0.00000   2.76309
    A2        0.17453  -0.00431   0.00000   0.00000   0.00000   0.17453
         Item               Value     Threshold  Converged?
 Maximum Force            0.000001     0.000015     YES
 RMS     Force            0.000001     0.000010     YES
 Maximum Displacement     0.000002     0.000060     YES
 RMS     Displacement     0.000002     0.000040     YES
 Predicted change in Energy=-4.187779D-08
 Optimization completed.
    -- Stationary point found.
                           ----------------------------
                           !   Optimized Parameters   !
                           ! (Angstroms and Degrees)  !
 --------------------------                            --------------------------
 ! Name  Definition              Value          Derivative Info.                !
 --------------------------------------------------------------------------------
 ! R1    R(1,2)                  1.1521         -DE/DX =    0.0009              !
 ! R2    R(1,3)                  0.9876         -DE/DX =   -0.001               !
 ! A1    A(2,1,3)              158.3129         -DE/DX =    0.0092              !
 ! A2    A(1,2,3)                9.9998         -DE/DX =   -0.0043              !
 --------------------------------------------------------------------------------
 Iteration  1 RMS(Cart)=  0.01488866 RMS(Int)=  0.04192733
 Iteration  2 RMS(Cart)=  0.00024248 RMS(Int)=  0.04192626
 Iteration  3 RMS(Cart)=  0.00000207 RMS(Int)=  0.04192626
 Iteration  4 RMS(Cart)=  0.00000002 RMS(Int)=  0.04192626
 Iteration  1 RMS(Cart)=  0.01232553 RMS(Int)=  0.03441842
 Iteration  2 RMS(Cart)=  0.01018754 RMS(Int)=  0.03684997
 Iteration  3 RMS(Cart)=  0.00840323 RMS(Int)=  0.04196920
 Iteration  4 RMS(Cart)=  0.00691871 RMS(Int)=  0.04762962
 Iteration  5 RMS(Cart)=  0.00568726 RMS(Int)=  0.05294100
 Iteration  6 RMS(Cart)=  0.00466848 RMS(Int)=  0.05761700
 Iteration  7 RMS(Cart)=  0.00382764 RMS(Int)=  0.06161205
 Iteration  8 RMS(Cart)=  0.00313509 RMS(Int)=  0.06497094
 Iteration  9 RMS(Cart)=  0.00256568 RMS(Int)=  0.06776838
 Iteration 10 RMS(Cart)=  0.00209821 RMS(Int)=  0.07008431
 Iteration 11 RMS(Cart)=  0.00171492 RMS(Int)=  0.07199397
 Iteration 12 RMS(Cart)=  0.00140096 RMS(Int)=  0.07356423
 Iteration 13 RMS(Cart)=  0.00114403 RMS(Int)=  0.07485282
 Iteration 14 RMS(Cart)=  0.00093391 RMS(Int)=  0.07590870
 Iteration 15 RMS(Cart)=  0.00076218 RMS(Int)=  0.07677294
 Iteration 16 RMS(Cart)=  0.00062189 RMS(Int)=  0.07747970
 Iteration 17 RMS(Cart)=  0.00050733 RMS(Int)=  0.07805730
 Iteration 18 RMS(Cart)=  0.00041381 RMS(Int)=  0.07852909
 Iteration 19 RMS(Cart)=  0.00033749 RMS(Int)=  0.07891431
 Iteration 20 RMS(Cart)=  0.00027522 RMS(Int)=  0.07922874
 Iteration 21 RMS(Cart)=  0.00022442 RMS(Int)=  0.07948531
 Iteration 22 RMS(Cart)=  0.00018298 RMS(Int)=  0.07969464
 Iteration 23 RMS(Cart)=  0.00014919 RMS(Int)=  0.07986539
 Iteration 24 RMS(Cart)=  0.00012163 RMS(Int)=  0.08000465
 Iteration 25 RMS(Cart)=  0.00009916 RMS(Int)=  0.08011822
 Iteration 26 RMS(Cart)=  0.00008084 RMS(Int)=  0.08021082
 Iteration 27 RMS(Cart)=  0.00006590 RMS(Int)=  0.08028634
 Iteration 28 RMS(Cart)=  0.00005372 RMS(Int)=  0.08034790
 Iteration 29 RMS(Cart)=  0.00004379 RMS(Int)=  0.08039810
 Iteration 30 RMS(Cart)=  0.00003570 RMS(Int)=  0.08043902
 Iteration 31 RMS(Cart)=  0.00002910 RMS(Int)=  0.08047238
 Iteration 32 RMS(Cart)=  0.00002372 RMS(Int)=  0.08049958
 Iteration 33 RMS(Cart)=  0.00001934 RMS(Int)=  0.08052175
 Iteration 34 RMS(Cart)=  0.00001576 RMS(Int)=  0.08053982
 Iteration 35 RMS(Cart)=  0.00001285 RMS(Int)=  0.08055455
 Iteration 36 RMS(Cart)=  0.00001047 RMS(Int)=  0.08056656
 Iteration 37 RMS(Cart)=  0.00000854 RMS(Int)=  0.08057635
 Iteration 38 RMS(Cart)=  0.00000696 RMS(Int)=  0.08058433
 Iteration 39 RMS(Cart)=  0.00000567 RMS(Int)=  0.08059084
 Iteration 40 RMS(Cart)=  0.00000462 RMS(Int)=  0.08059614
 Iteration 41 RMS(Cart)=  0.00000377 RMS(Int)=  0.08060046
 Iteration 42 RMS(Cart)=  0.00000307 RMS(Int)=  0.08060399
 Iteration 43 RMS(Cart)=  0.00000250 RMS(Int)=  0.08060686
 Iteration 44 RMS(Cart)=  0.00000204 RMS(Int)=  0.08060920
 Iteration 45 RMS(Cart)=  0.00000166 RMS(Int)=  0.08061111
 Iteration 46 RMS(Cart)=  0.00000136 RMS(Int)=  0.08061266
 Iteration 47 RMS(Cart)=  0.00000111 RMS(Int)=  0.08061393
 Iteration 48 RMS(Cart)=  0.00000090 RMS(Int)=  0.08061496
 GradGradGradGradGradGradGradGradGradGradGradGradGradGradGradGradGradGrad

                          Input orientation:                          
 ---------------------------------------------------------------------
 Center     Atomic      Atomic             Coordinates (Angstroms)
 Number     Number       Type             X           Y           Z
 ---------------------------------------------------------------------
      1          7           0       -0.056866    0.000000   -0.168572
      2          6           0        0.059596    0.000000    0.965681
      3          1           0        0.396660    0.000000   -1.062166
 ---------------------------------------------------------------------
                    Distance matrix (angstroms):
                    1          2          3
     1  N    0.000000
     2  C    1.140216   0.000000
     3  H    1.002097   2.055669   0.000000
 Stoichiometry    CHN
 Framework group  CS[SG(CHN)]
 Deg. of freedom     3
 Full point group                 CS      NOp   2
 Largest Abelian subgroup         CS      NOp   2
 Largest concise Abelian subgroup C1      NOp   1
                         Standard orientation:                         
[...]
 ***** Axes restored to original set *****
 -------------------------------------------------------------------
 Center     Atomic                   Forces (Hartrees/Bohr)
 Number     Number              X              Y              Z
 -------------------------------------------------------------------
      1        7           0.001540718    0.000000000    0.007685630
      2        6          -0.004588476    0.000000000   -0.015456817
      3        1           0.003047758    0.000000000    0.007771187
 -------------------------------------------------------------------
 Cartesian Forces:  Max     0.015456817 RMS     0.006592000

 GradGradGradGradGradGradGradGradGradGradGradGradGradGradGradGradGradGrad
 Berny optimization.
 Using GEDIIS/GDIIS optimizer.
 FormGI is forming the generalized inverse of G from B-inverse, IUseBI=4.
 Internal  Forces:  Max     0.013504251 RMS     0.007515516
 Search for a local minimum.
 Step number   2 out of a maximum of   20 on scan point    31 out of    31
 All quantities printed in internal units (Hartrees-Bohrs-Radians)
 Mixed Optimization -- En-DIIS/RFO-DIIS
 Update second derivatives using D2CorX and points    1    2
 DE= -7.26D-05 DEPred=-7.50D-05 R= 9.68D-01
 TightC=F SS=  1.41D+00  RLast= 1.93D-02 DXNew= 2.1093D-01 5.7832D-02
 Trust test= 9.68D-01 RLast= 1.93D-02 DXMaxT set to 1.25D-01
 The second derivative matrix:
                          R1        R2        A1        A2
           R1           1.98178
           R2          -0.45717   0.45173
           A1          -0.20085   0.05677   0.34383
           A2           0.02423  -0.05136  -0.08261   0.18448
 ITU=  1  0
 Use linear search instead of GDIIS.
     Eigenvalues ---    0.32557   2.124721000.000001000.00000
 RFO step:  Lambda= 0.00000000D+00 EMin= 3.25568652D-01
 Quartic linear search produced a step of -0.02231.
 Iteration  1 RMS(Cart)=  0.00016550 RMS(Int)=  0.00000001
 Iteration  2 RMS(Cart)=  0.00000000 RMS(Int)=  0.00000001
 Iteration  1 RMS(Cart)=  0.00000006 RMS(Int)=  0.00000004
 ClnCor:  largest displacement from symmetrization is 1.86D-15 for atom     3.
 Variable       Old X    -DE/DX   Delta X   Delta X   Delta X     New X
                                 (Linear)    (Quad)   (Total)
    R1        2.12991  -0.00008  -0.00002   0.00004   0.00002   2.12994
    R2        4.11142  -0.00002  -0.00043   0.00004  -0.00039   4.11103
    A1        0.09298  -0.00660  -0.00001   0.00000  -0.00001   0.09297
    A2        2.94961   0.01350   0.00000   0.00000   0.00000   2.94961
         Item               Value     Threshold  Converged?
 Maximum Force            0.000228     0.000015     NO 
 RMS     Force            0.000169     0.000010     NO 
 Maximum Displacement     0.000254     0.000060     NO 
 RMS     Displacement     0.000166     0.000040     NO 
 Predicted change in Energy=-4.012020D-08
 GradGradGradGradGradGradGradGradGradGradGradGradGradGradGradGradGradGrad

                          Input orientation:                          
 ---------------------------------------------------------------------
 Center     Atomic      Atomic             Coordinates (Angstroms)
 Number     Number       Type             X           Y           Z
 ---------------------------------------------------------------------
      1          7           0       -0.928291    0.000000    0.199606
      2          6           0        0.175525    0.000000   -0.028371
      3          1           0        1.152157    0.000000   -0.436293
 ---------------------------------------------------------------------
                    Distance matrix (angstroms):
                    1          2          3
     1  N    0.000000
     2  C    1.127113   0.000000
     3  H    2.175461   1.058399   0.000000
 Stoichiometry    CHN
 Framework group  CS[SG(CHN)]
 Deg. of freedom     3
 Full point group                 CS      NOp   2
 Largest Abelian subgroup         CS      NOp   2
 Largest concise Abelian subgroup C1      NOp   1
                         Standard orientation:                         
 ---------------------------------------------------------------------
 Center     Atomic      Atomic             Coordinates (Angstroms)
 Number     Number       Type             X           Y           Z
 ---------------------------------------------------------------------
      1          7           0        0.014425    0.637768    0.000000
      2          6           0        0.014425   -0.489346    0.000000
      3          1           0       -0.187527   -1.528299    0.000000
 ---------------------------------------------------------------------
 Rotational constants (GHZ):  16875.7502327     46.5895166     46.4612493
 Standard basis: 6-311G(d,p) (5D, 7F)
 There are    33 symmetry adapted cartesian basis functions of A'  symmetry.
 There are    11 symmetry adapted cartesian basis functions of A"  symmetry.
 There are    31 symmetry adapted basis functions of A'  symmetry.
 There are    11 symmetry adapted basis functions of A"  symmetry.
    42 basis functions,    72 primitive gaussians,    44 cartesian basis functions
     7 alpha electrons        7 beta electrons
       nuclear repulsion energy        24.4215145986 Hartrees.
 NAtoms=    3 NActive=    3 NUniq=    3 SFac= 1.00D+00 NAtFMM=   60 NAOKFM=F Big=F
 Integral buffers will be    131072 words long.
 Raffenetti 1 integral format.
 Two-electron integral symmetry is turned on.
 One-electron integrals computed using PRISM.
 NBasis=    42 RedAO= T EigKep=  6.25D-03  NBF=    31    11
 NBsUse=    42 1.00D-06 EigRej= -1.00D+00 NBFU=    31    11
 Initial guess from the checkpoint file:  "HNC6311Gss.chk"
 B after Tr=     0.000000    0.000000    0.000000
         Rot=    1.000000    0.000000    0.000000   -0.000002 Ang=   0.00 deg.
 Initial guess orbital symmetries:
       Occupied  (A') (A') (A') (A') (A') (A") (A')
       Virtual   (A') (A') (A') (A') (A') (A') (A') (A') (A') (A')
                 (A') (A') (A') (A') (A') (A') (A') (A') (A') (A')
                 (A') (A') (A') (A') (A') (A") (A") (A") (A") (A")
                 (A") (A") (A") (A") (A")
 Keep R1 ints in memory in symmetry-blocked form, NReq=1267912.
 Requested convergence on RMS density matrix=1.00D-08 within 128 cycles.
 Requested convergence on MAX density matrix=1.00D-06.
 Requested convergence on             energy=1.00D-06.
 No special actions if energy rises.
 SCF Done:  E(RHF) =  -92.8983455720     A.U. after    6 cycles
            NFock=  6  Conv=0.37D-08     -V/T= 1.9999
 Calling FoFJK, ICntrl=      2127 FMM=F ISym2X=1 I1Cent= 0 IOpClX= 0 NMat=1 NMatS=1 NMatT=0.
 ***** Axes restored to original set *****
 -------------------------------------------------------------------
 Center     Atomic                   Forces (Hartrees/Bohr)
 Number     Number              X              Y              Z
 -------------------------------------------------------------------
      1        7           0.001581453    0.000000000    0.007677940
      2        6          -0.004799318    0.000000000   -0.015380904
      3        1           0.003217865    0.000000000    0.007702964
 -------------------------------------------------------------------
 Cartesian Forces:  Max     0.015380904 RMS     0.006589113

 GradGradGradGradGradGradGradGradGradGradGradGradGradGradGradGradGradGrad
 Berny optimization.
 Using GEDIIS/GDIIS optimizer.
 FormGI is forming the generalized inverse of G from B-inverse, IUseBI=4.
 Internal  Forces:  Max     0.013482699 RMS     0.007501936
 Search for a local minimum.
 Step number   3 out of a maximum of   20 on scan point    31 out of    31
 All quantities printed in internal units (Hartrees-Bohrs-Radians)
 Mixed Optimization -- En-DIIS/RFO-DIIS
 Swapping is turned off.
 Update second derivatives using D2CorX and points    1    2    3
 DE= -4.11D-08 DEPred=-4.01D-08 R= 1.02D+00
 Trust test= 1.02D+00 RLast= 3.93D-04 DXMaxT set to 1.25D-01
 The second derivative matrix:
                          R1        R2        A1        A2
           R1           1.97901
           R2          -0.44921   0.44052
           A1          -0.18901   0.04635   0.34090
           A2           0.02475  -0.05125  -0.08158   0.18460
 ITU=  0  1  0
     Eigenvalues ---    0.31886   2.115861000.000001000.00000
 En-DIIS/RFO-DIIS IScMMF=        0 using points:     3    2
 RFO step:  Lambda=-7.11881023D-06.
 DidBck=F Rises=F RFO-DIIS coefs:    1.00366   -0.00366
 Iteration  1 RMS(Cart)=  0.00000176 RMS(Int)=  0.00000296
 Iteration  2 RMS(Cart)=  0.00000000 RMS(Int)=  0.00000296
 Iteration  1 RMS(Cart)=  0.00000088 RMS(Int)=  0.00000056
 ClnCor:  largest displacement from symmetrization is 2.81D-15 for atom     3.
 Variable       Old X    -DE/DX   Delta X   Delta X   Delta X     New X
                                 (Linear)    (Quad)   (Total)
    R1        2.12994  -0.00030   0.00000   0.00000   0.00000   2.12994
    R2        4.11103   0.00016   0.00000   0.00001   0.00000   4.11103
    A1        0.09297  -0.00657   0.00000  -0.00001   0.00000   0.09297
    A2        2.94961   0.01348   0.00000   0.00000   0.00000   2.94961
         Item               Value     Threshold  Converged?
 Maximum Force            0.000004     0.000015     YES
 RMS     Force            0.000002     0.000010     YES
 Maximum Displacement     0.000002     0.000060     YES
 RMS     Displacement     0.000001     0.000040     YES
 Predicted change in Energy=-8.791695D-09
 Optimization completed.
    -- Stationary point found.
                           ----------------------------
                           !   Optimized Parameters   !
                           ! (Angstroms and Degrees)  !
 --------------------------                            --------------------------
 ! Name  Definition              Value          Derivative Info.                !
 --------------------------------------------------------------------------------
 ! R1    R(1,2)                  1.1271         -DE/DX =   -0.0003              !
 ! R2    R(1,3)                  2.1755         -DE/DX =    0.0002              !
 ! A1    A(2,1,3)                5.3265         -DE/DX =   -0.0066              !
 ! A2    A(1,2,3)              169.0            -DE/DX =    0.0135              !
 --------------------------------------------------------------------------------
 GradGradGradGradGradGradGradGradGradGradGradGradGradGradGradGradGradGrad

 Summary of Optimized Potential Surface Scan
                           1         2         3         4         5
     Eigenvalues --   -92.88044 -92.87768 -92.87397 -92.86947 -92.86433
           R1           1.15214   1.15614   1.16127   1.16685   1.17195
           R2           0.98763   0.99200   0.99856   1.00788   1.02077
           A1         158.31294 146.78980 135.24773 123.72282 112.30602
           A2           9.99984  15.29977  20.59978  25.89976  31.19978
                           6         7         8         9        10
     Eigenvalues --   -92.85873 -92.85288 -92.84691 -92.84087 -92.83482
           R1           1.17549   1.17666   1.17544   1.17271   1.16974
           R2           1.03849   1.06264   1.09544   1.13990   1.19666
           A1         101.17850  90.63499  81.08298  73.00365  66.58494
           A2          36.49983  41.79982  47.09987  52.39987  57.69988
                          11        12        13        14        15
     Eigenvalues --   -92.82922 -92.82473 -92.82191 -92.82099 -92.82195
           R1           1.16742   1.16585   1.16468   1.16347   1.16190
           R2           1.26211   1.33186   1.40272   1.47279   1.54096
           A1          61.49736  57.27809  53.60094  50.27709  47.19646
           A2          62.99992  68.29990  73.59993  78.90003  84.20007
                          16        17        18        19        20
     Eigenvalues --   -92.82460 -92.82864 -92.83375 -92.83961 -92.84593
           R1           1.15985   1.15734   1.15450   1.15146   1.14837
           R2           1.60660   1.66937   1.72904   1.78548   1.83856
           A1          44.28841  41.50246  38.80099  36.15612  33.54787
           A2          89.50004  94.80004 100.10004 105.40003 110.70003
                          21        22        23        24        25
     Eigenvalues --   -92.85246 -92.85897 -92.86531 -92.87133 -92.87693
           R1           1.14533   1.14243   1.13973   1.13725   1.13502
           R2           1.88818   1.93426   1.97669   2.01540   2.05027
           A1          30.96245  28.39056  25.82621  23.26536  20.70545
           A2         116.00002 121.30001 126.60001 131.90000 137.20001
                          26        27        28        29        30
     Eigenvalues --   -92.88204 -92.88659 -92.89053 -92.89383 -92.89644
           R1           1.13306   1.13135   1.12991   1.12872   1.12779
           R2           2.08126   2.10827   2.13123   2.15010   2.16484
           A1          18.14529  15.58400  13.02136  10.45739   7.89237
           A2         142.50000 147.80000 153.10002 158.40001 163.70000
                          31
     Eigenvalues --   -92.89835
           R1           1.12711
           R2           2.17546
           A1           5.32654
           A2         169.00000
                          Input orientation:                          
 ---------------------------------------------------------------------
 Center     Atomic      Atomic             Coordinates (Angstroms)
 Number     Number       Type             X           Y           Z
 ---------------------------------------------------------------------
      1          7           0       -0.928291    0.000000    0.199606
      2          6           0        0.175525    0.000000   -0.028371
      3          1           0        1.152157    0.000000   -0.436293
 ---------------------------------------------------------------------
                    Distance matrix (angstroms):
                    1          2          3
     1  N    0.000000
     2  C    1.127113   0.000000
     3  H    2.175461   1.058399   0.000000
 Stoichiometry    CHN
 Framework group  CS[SG(CHN)]
 Deg. of freedom     3
 Full point group                 CS      NOp   2
 Largest Abelian subgroup         CS      NOp   2
 Largest concise Abelian subgroup C1      NOp   1
                         Standard orientation:                         
 ---------------------------------------------------------------------
 Center     Atomic      Atomic             Coordinates (Angstroms)
 Number     Number       Type             X           Y           Z
 ---------------------------------------------------------------------
      1          7           0        0.014425    0.637768    0.000000
      2          6           0        0.014425   -0.489346    0.000000
      3          1           0       -0.187527   -1.528299    0.000000
 ---------------------------------------------------------------------
 Rotational constants (GHZ):  16875.7502327     46.5895166     46.4612493

 **********************************************************************

            Population analysis using the SCF density.

 **********************************************************************

 Orbital symmetries:
       Occupied  (A') (A') (A') (A') (A') (A") (A')
       Virtual   (A') (A') (A") (A') (A') (A") (A') (A') (A') (A")
                 (A') (A') (A') (A") (A') (A") (A') (A') (A") (A')
                 (A") (A') (A') (A') (A") (A') (A") (A') (A') (A')
                 (A") (A') (A') (A') (A')
 The electronic state is 1-A'.
 Alpha  occ. eigenvalues --  -15.58834 -11.27964  -1.25044  -0.80822  -0.57948
 Alpha  occ. eigenvalues --   -0.50355  -0.50309
 Alpha virt. eigenvalues --    0.14968   0.18634   0.18965   0.30539   0.57344
 Alpha virt. eigenvalues --    0.57362   0.59086   0.74560   0.79174   0.90543
 Alpha virt. eigenvalues --    0.90893   1.20468   1.33254   1.40050   1.46385
 Alpha virt. eigenvalues --    1.50843   1.51877   2.04392   2.09869   2.24124
 Alpha virt. eigenvalues --    2.40584   2.40617   2.72055   2.94126   2.95608
 Alpha virt. eigenvalues --    3.09139   3.17828   3.21229   3.36096   3.74430
 Alpha virt. eigenvalues --    4.32192   4.35203   4.97967  25.48102  37.22596
          Condensed to atoms (all electrons):
               1          2          3
     1  N    6.369893   0.955949  -0.033896
     2  C    0.955949   4.556658   0.394584
     3  H   -0.033896   0.394584   0.440175
 Mulliken charges:
               1
     1  N   -0.291946
     2  C    0.092809
     3  H    0.199137
 Sum of Mulliken charges =   0.00000
 Mulliken charges with hydrogens summed into heavy atoms:
               1
     1  N   -0.291946
     2  C    0.291946
 Electronic spatial extent (au):  <R**2>=             48.3540
 Charge=              0.0000 electrons
 Dipole moment (field-independent basis, Debye):
    X=             -0.2589    Y=             -3.1677    Z=              0.0000  Tot=              3.1783
 Quadrupole moment (field-independent basis, Debye-Ang):
   XX=            -11.6252   YY=             -9.7542   ZZ=            -11.6807
   XY=              0.3391   XZ=              0.0000   YZ=              0.0000
 Traceless Quadrupole moment (field-independent basis, Debye-Ang):
   XX=             -0.6052   YY=              1.2658   ZZ=             -0.6607
   XY=              0.3391   XZ=              0.0000   YZ=              0.0000
 Octapole moment (field-independent basis, Debye-Ang**2):
  XXX=             -0.3007  YYY=             -7.3820  ZZZ=              0.0000  XYY=             -0.8122
  XXY=             -0.3692  XXZ=              0.0000  XZZ=             -0.0954  YZZ=             -0.2830
  YYZ=              0.0000  XYZ=              0.0000
 Hexadecapole moment (field-independent basis, Debye-Ang**3):
 XXXX=            -11.3715 YYYY=            -34.0812 ZZZZ=            -11.2358 XXXY=             -0.4852
 XXXZ=              0.0000 YYYX=              0.6949 YYYZ=              0.0000 ZZZX=              0.0000
 ZZZY=              0.0000 XXYY=             -8.4626 XXZZ=             -3.7684 YYZZ=             -8.6200
 XXYZ=              0.0000 YYXZ=              0.0000 ZZXY=             -0.1702
 N-N= 2.442151459858D+01 E-N=-2.665199358590D+02  KE= 9.290576024998D+01
 Symmetry A'   KE= 9.017940800222D+01
 Symmetry A"   KE= 2.726352247760D+00
 B after Tr=     0.430181    0.000000    1.092508
         Rot=    0.862747    0.000000    0.505635    0.000000 Ang=  60.75 deg.
 Final structure in terms of initial Z-matrix:
 N
 C,1,B1
 H,2,B2,1,A1
      Variables:
 B1=1.12711347
 B2=1.0583995
 A1=168.99999812
 1\1\GINC-TC-NODE166\Scan\RHF\6-311G(d,p)\C1H1N1\MAXB2\26-Sep-2016\0\\#
  opt=(modredundant,tight) RHF/6-311g** gfp\\HNC-HCN\\0,1\N,-0.82078191
 33,0.,-0.0967942835\C,0.2830348393,0.,-0.3247709228\H,1.2596659963,0.,
 -0.7326938038\\Version=ES64L-G09RevD.01\State=1-A'\HF=-92.8804387,-92.
 8776766,-92.8739737,-92.8694701,-92.8643267,-92.8587349,-92.852879,-92
 .8469104,-92.8408663,-92.8348197,-92.8292166,-92.8247329,-92.8219074,-
 92.8209868,-92.8219507,-92.8245993,-92.8286403,-92.8337503,-92.8396119
 ,-92.8459329,-92.8524577,-92.858973,-92.8653079,-92.871329,-92.8769336
 ,-92.8820418,-92.8865914,-92.8905328,-92.8938263,-92.8964396,-92.89834
 56\RMSD=5.050e-09,5.073e-09,8.303e-09,2.864e-09,6.765e-09,9.507e-09,8.
 320e-09,3.178e-09,3.155e-09,9.835e-09,3.246e-09,6.719e-09,2.853e-09,7.
 670e-09,9.278e-09,9.744e-09,3.228e-09,3.041e-09,2.794e-09,6.829e-09,5.
 170e-09,2.434e-09,7.968e-09,9.083e-09,5.384e-09,3.140e-09,6.658e-09,3.
 138e-09,5.784e-09,8.728e-09,3.746e-09\PG=CS [SG(C1H1N1)]\\@


 Human beings, who are almost unique in having the
 ability to learn from the experience of others, are
 also remarkable for their apparent disinclination to do so.
                               -- Douglas Adams,
                                Last Chance to See
 Job cpu time:       0 days  0 hours  6 minutes 46.9 seconds.
 File lengths (MBytes):  RWF=     77 Int=      0 D2E=      0 Chk=      3 Scr=      1
 Normal termination of Gaussian 09 at Mon Sep 26 18:28:38 2016.
