 Entering Gaussian System, Link 0=g09
 Initial command:
 /cluster/software/gaussian/gaussian-09-D.01/g09/l1.exe "/local/scratch/maxb2/Gau-4809.inp" -scrdir="/local/scratch/maxb2/"
 Entering Link 1 = /cluster/software/gaussian/gaussian-09-D.01/g09/l1.exe PID=      4810.
  
 Copyright (c) 1988,1990,1992,1993,1995,1998,2003,2009,2013,
            Gaussian, Inc.  All Rights Reserved.
  
 This is part of the Gaussian(R) 09 program.  It is based on
 the Gaussian(R) 03 system (copyright 2003, Gaussian, Inc.),
 the Gaussian(R) 98 system (copyright 1998, Gaussian, Inc.),
 the Gaussian(R) 94 system (copyright 1995, Gaussian, Inc.),
 the Gaussian 92(TM) system (copyright 1992, Gaussian, Inc.),
 the Gaussian 90(TM) system (copyright 1990, Gaussian, Inc.),
 the Gaussian 88(TM) system (copyright 1988, Gaussian, Inc.),
 the Gaussian 86(TM) system (copyright 1986, Carnegie Mellon
 University), and the Gaussian 82(TM) system (copyright 1983,
 Carnegie Mellon University). Gaussian is a federally registered
 trademark of Gaussian, Inc.
  
 This software contains proprietary and confidential information,
 including trade secrets, belonging to Gaussian, Inc.
  
 This software is provided under written license and may be
 used, copied, transmitted, or stored only in accord with that
 written license.
  
 The following legend is applicable only to US Government
 contracts under FAR:
  
                    RESTRICTED RIGHTS LEGEND
  
 Use, reproduction and disclosure by the US Government is
 subject to restrictions as set forth in subparagraphs (a)
 and (c) of the Commercial Computer Software - Restricted
 Rights clause in FAR 52.227-19.
  
 Gaussian, Inc.
 340 Quinnipiac St., Bldg. 40, Wallingford CT 06492
  
  
 ---------------------------------------------------------------
 Warning -- This program may not be used in any manner that
 competes with the business of Gaussian, Inc. or will provide
 assistance to any competitor of Gaussian, Inc.  The licensee
 of this program is prohibited from giving any competitor of
 Gaussian, Inc. access to this program.  By using this program,
 the user acknowledges that Gaussian, Inc. is engaged in the
 business of creating and licensing software in the field of
 computational chemistry and represents and warrants to the
 licensee that it is not a competitor of Gaussian, Inc. and that
 it will not use this program in any manner prohibited above.
 ---------------------------------------------------------------
  

 Cite this work as:
 Gaussian 09, Revision D.01,
 M. J. Frisch, G. W. Trucks, H. B. Schlegel, G. E. Scuseria, 
 M. A. Robb, J. R. Cheeseman, G. Scalmani, V. Barone, B. Mennucci, 
 G. A. Petersson, H. Nakatsuji, M. Caricato, X. Li, H. P. Hratchian, 
 A. F. Izmaylov, J. Bloino, G. Zheng, J. L. Sonnenberg, M. Hada, 
 M. Ehara, K. Toyota, R. Fukuda, J. Hasegawa, M. Ishida, T. Nakajima, 
 Y. Honda, O. Kitao, H. Nakai, T. Vreven, J. A. Montgomery, Jr., 
 J. E. Peralta, F. Ogliaro, M. Bearpark, J. J. Heyd, E. Brothers, 
 K. N. Kudin, V. N. Staroverov, T. Keith, R. Kobayashi, J. Normand, 
 K. Raghavachari, A. Rendell, J. C. Burant, S. S. Iyengar, J. Tomasi, 
 M. Cossi, N. Rega, J. M. Millam, M. Klene, J. E. Knox, J. B. Cross, 
 V. Bakken, C. Adamo, J. Jaramillo, R. Gomperts, R. E. Stratmann, 
 O. Yazyev, A. J. Austin, R. Cammi, C. Pomelli, J. W. Ochterski, 
 R. L. Martin, K. Morokuma, V. G. Zakrzewski, G. A. Voth, 
 P. Salvador, J. J. Dannenberg, S. Dapprich, A. D. Daniels, 
 O. Farkas, J. B. Foresman, J. V. Ortiz, J. Cioslowski, 
 and D. J. Fox, Gaussian, Inc., Wallingford CT, 2013.
 
 ******************************************
 Gaussian 09:  ES64L-G09RevD.01 24-Apr-2013
                27-Sep-2016 
 ******************************************
 %rwf=/home/maxb2/scratch/HNCts20/
 %int=/home/maxb2/scratch/HNCts20/
 %d2e=/home/maxb2/scratch/HNCts20/
 %nosave
 %mem=6GB
 %nprocshared=3
 Will use up to    3 processors via shared memory.
 %chk=HNCts6311Gss
 ----------------------------------------
 # opt=(calcfc,ts,tight) RHF/6-311g** gfp
 ----------------------------------------
 1/5=1,7=10,10=4,18=20,38=1/1,3;
 2/9=110,12=2,17=6,18=5,40=1/2;
 3/5=4,6=6,7=101,11=1,16=1,24=100,25=1,30=1,71=2,116=1,140=1/1,2,3;
 4//1;
 5/5=2,38=5/2;
 8/6=4,10=90,11=11/1;
 11/6=1,8=1,9=11,15=111,16=1/1,2,10;
 10/6=1,13=1/2;
 6/7=2,8=2,9=2,10=2,28=1/1;
 7/10=1,18=20,25=1/1,2,3,16;
 1/5=1,7=10,10=4,18=20/3(2);
 2/9=110/2;
 99//99;
 2/9=110/2;
 3/5=4,6=6,7=101,11=1,16=1,25=1,30=1,71=1,116=1/1,2,3;
 4/5=5,16=3,69=1/1;
 5/5=2,38=5/2;
 7//1,2,3,16;
 1/5=1,7=10,18=20/3(-5);
 2/9=110/2;
 6/7=2,8=2,9=2,10=2,19=2,28=1/1;
 99/9=1/99;
 -------
 HNC-HCN
 -------
 Symbolic Z-matrix:
 Charge =  0 Multiplicity = 1
 N
 C                    1    B1
 H                    2    B2       1    A1
       Variables:
  B1                    1.                       
  B2                    1.1                      
  A1                   80.                       
 

 GradGradGradGradGradGradGradGradGradGradGradGradGradGradGradGradGradGrad
 Berny optimization.
 Initialization pass.
                           ----------------------------
                           !    Initial Parameters    !
                           ! (Angstroms and Degrees)  !
 --------------------------                            --------------------------
 ! Name  Definition              Value          Derivative Info.                !
 --------------------------------------------------------------------------------
 ! R1    R(1,2)                  1.0            calculate D2E/DX2 analytically  !
 ! R2    R(2,3)                  1.1            calculate D2E/DX2 analytically  !
 ! A1    A(1,2,3)               80.0            calculate D2E/DX2 analytically  !
 --------------------------------------------------------------------------------
 Trust Radius=3.00D-01 FncErr=1.00D-07 GrdErr=1.00D-07
 Number of steps in this run=     20 maximum allowed number of steps=    100.
 Search for a saddle point of order  1.
 GradGradGradGradGradGradGradGradGradGradGradGradGradGradGradGradGradGrad

                          Input orientation:                          
 ---------------------------------------------------------------------
 Center     Atomic      Atomic             Coordinates (Angstroms)
 Number     Number       Type             X           Y           Z
 ---------------------------------------------------------------------
      1          7           0        0.000000    0.000000    0.000000
      2          6           0        0.000000    0.000000    1.000000
      3          1           0        1.083289    0.000000    0.808987
 ---------------------------------------------------------------------
                    Distance matrix (angstroms):
                    1          2          3
     1  N    0.000000
     2  C    1.000000   0.000000
     3  H    1.352026   1.100000   0.000000
 Stoichiometry    CHN
 Framework group  CS[SG(CHN)]
 Deg. of freedom     3
 Full point group                 CS      NOp   2
 Largest Abelian subgroup         CS      NOp   2
 Largest concise Abelian subgroup C1      NOp   1
                         Standard orientation:                         
 ---------------------------------------------------------------------
 Center     Atomic      Atomic             Coordinates (Angstroms)
 Number     Number       Type             X           Y           Z
 ---------------------------------------------------------------------
      1          7           0        0.077378   -0.486356    0.000000
      2          6           0        0.077378    0.513644    0.000000
      3          1           0       -1.005911    0.322631    0.000000
 ---------------------------------------------------------------------
 Rotational constants (GHZ):    453.5965319     76.5289306     65.4812115
 Standard basis: 6-311G(d,p) (5D, 7F)
 AO basis set (Overlap normalization):
 Atom N1       Shell     1 S   6     bf    1 -     1          0.146222760101         -0.919080048643          0.000000000000
      0.6293480000D+04  0.1969788147D-02
      0.9490440000D+03  0.1496128592D-01
      0.2187760000D+03  0.7350053084D-01
      0.6369160000D+02  0.2489367658D+00
      0.1882820000D+02  0.6024594331D+00
      0.2720230000D+01  0.2562017589D+00
 Atom N1       Shell     2 SP   3    bf    2 -     5          0.146222760101         -0.919080048643          0.000000000000
      0.3063310000D+02  0.1119060795D+00  0.3831191864D-01
      0.7026140000D+01  0.9216666549D+00  0.2374031155D+00
      0.2112050000D+01 -0.2569191826D-02  0.8175923978D+00
 Atom N1       Shell     3 SP   1    bf    6 -     9          0.146222760101         -0.919080048643          0.000000000000
      0.6840090000D+00  0.1000000000D+01  0.1000000000D+01
 Atom N1       Shell     4 SP   1    bf   10 -    13          0.146222760101         -0.919080048643          0.000000000000
      0.2008780000D+00  0.1000000000D+01  0.1000000000D+01
 Atom N1       Shell     5 D   1     bf   14 -    18          0.146222760101         -0.919080048643          0.000000000000
      0.9130000000D+00  0.1000000000D+01
 Atom C2       Shell     6 S   6     bf   19 -    19          0.146222760101          0.970646084242          0.000000000000
      0.4563240000D+04  0.1966650249D-02
      0.6820240000D+03  0.1523060193D-01
      0.1549730000D+03  0.7612690966D-01
      0.4445530000D+02  0.2608010331D+00
      0.1302900000D+02  0.6164620782D+00
      0.1827730000D+01  0.2210060280D+00
 Atom C2       Shell     7 SP   3    bf   20 -    23          0.146222760101          0.970646084242          0.000000000000
      0.2096420000D+02  0.1146600807D+00  0.4024869267D-01
      0.4803310000D+01  0.9199996477D+00  0.2375939567D+00
      0.1459330000D+01 -0.3030682134D-02  0.8158538515D+00
 Atom C2       Shell     8 SP   1    bf   24 -    27          0.146222760101          0.970646084242          0.000000000000
      0.4834560000D+00  0.1000000000D+01  0.1000000000D+01
 Atom C2       Shell     9 SP   1    bf   28 -    31          0.146222760101          0.970646084242          0.000000000000
      0.1455850000D+00  0.1000000000D+01  0.1000000000D+01
 Atom C2       Shell    10 D   1     bf   32 -    36          0.146222760101          0.970646084242          0.000000000000
      0.6260000000D+00  0.1000000000D+01
 Atom H3       Shell    11 S   3     bf   37 -    37         -1.900895881308          0.609683835051          0.000000000000
      0.3386500000D+02  0.2549381454D-01
      0.5094790000D+01  0.1903731086D+00
      0.1158790000D+01  0.8521614860D+00
 Atom H3       Shell    12 S   1     bf   38 -    38         -1.900895881308          0.609683835051          0.000000000000
      0.3258400000D+00  0.1000000000D+01
 Atom H3       Shell    13 S   1     bf   39 -    39         -1.900895881308          0.609683835051          0.000000000000
      0.1027410000D+00  0.1000000000D+01
 Atom H3       Shell    14 P   1     bf   40 -    42         -1.900895881308          0.609683835051          0.000000000000
      0.7500000000D+00  0.1000000000D+01
 There are    33 symmetry adapted cartesian basis functions of A'  symmetry.
 There are    11 symmetry adapted cartesian basis functions of A"  symmetry.
 There are    31 symmetry adapted basis functions of A'  symmetry.
 There are    11 symmetry adapted basis functions of A"  symmetry.
    42 basis functions,    72 primitive gaussians,    44 cartesian basis functions
     7 alpha electrons        7 beta electrons
       nuclear repulsion energy        27.8516342577 Hartrees.
 NAtoms=    3 NActive=    3 NUniq=    3 SFac= 1.00D+00 NAtFMM=   60 NAOKFM=F Big=F
 Integral buffers will be    131072 words long.
 Raffenetti 1 integral format.
 Two-electron integral symmetry is turned on.
 One-electron integrals computed using PRISM.
 NBasis=    42 RedAO= T EigKep=  4.54D-03  NBF=    31    11
 NBsUse=    42 1.00D-06 EigRej= -1.00D+00 NBFU=    31    11
 ExpMin= 1.03D-01 ExpMax= 6.29D+03 ExpMxC= 9.49D+02 IAcc=1 IRadAn=         1 AccDes= 0.00D+00
 Harris functional with IExCor=  205 and IRadAn=       1 diagonalized for initial guess.
 HarFok:  IExCor=  205 AccDes= 0.00D+00 IRadAn=         1 IDoV= 1 UseB2=F ITyADJ=14
 ICtDFT=  3500011 ScaDFX=  1.000000  1.000000  1.000000  1.000000
 FoFCou: FMM=F IPFlag=           0 FMFlag=      100000 FMFlg1=           0
         NFxFlg=           0 DoJE=T BraDBF=F KetDBF=T FulRan=T
         wScrn=  0.000000 ICntrl=     500 IOpCl=  0 I1Cent=   200000004 NGrid=           0
         NMat0=    1 NMatS0=      1 NMatT0=    0 NMatD0=    1 NMtDS0=    0 NMtDT0=    0
 Petite list used in FoFCou.
 Initial guess orbital symmetries:
       Occupied  (A') (A') (A') (A') (A") (A') (A')
       Virtual   (A') (A") (A') (A') (A') (A") (A') (A') (A') (A')
                 (A") (A') (A") (A') (A') (A') (A") (A') (A") (A')
                 (A") (A') (A') (A') (A") (A') (A") (A') (A') (A')
                 (A") (A') (A') (A') (A')
 The electronic state of the initial guess is 1-A'.
 Keep R1 ints in memory in symmetry-blocked form, NReq=1268044.
 Requested convergence on RMS density matrix=1.00D-08 within 128 cycles.
 Requested convergence on MAX density matrix=1.00D-06.
 Requested convergence on             energy=1.00D-06.
 No special actions if energy rises.
 SCF Done:  E(RHF) =  -92.7349325434     A.U. after   13 cycles
            NFock= 13  Conv=0.13D-08     -V/T= 1.9864
 Range of M.O.s used for correlation:     1    42
 NBasis=    42 NAE=     7 NBE=     7 NFC=     0 NFV=     0
 NROrb=     42 NOA=     7 NOB=     7 NVA=    35 NVB=    35
 Symmetrizing basis deriv contribution to polar:
 IMax=3 JMax=2 DiffMx= 0.00D+00
 G2DrvN: will do     4 centers at a time, making    1 passes.
 Calling FoFCou, ICntrl=  3107 FMM=F I1Cent=   0 AccDes= 0.00D+00.
 End of G2Drv F.D. properties file   721 does not exist.
 End of G2Drv F.D. properties file   722 does not exist.
 End of G2Drv F.D. properties file   788 does not exist.
          IDoAtm=111
          Differentiating once with respect to nuclear coordinates.
 Keep R1 ints in memory in symmetry-blocked form, NReq=1250244.
          There are    12 degrees of freedom in the 1st order CPHF.  IDoFFX=6 NUNeed=     0.
      6 vectors produced by pass  0 Test12= 2.04D-15 8.33D-09 XBig12= 9.36D-02 1.49D-01.
 AX will form     6 AO Fock derivatives at one time.
      6 vectors produced by pass  1 Test12= 2.04D-15 8.33D-09 XBig12= 1.12D-02 4.74D-02.
      6 vectors produced by pass  2 Test12= 2.04D-15 8.33D-09 XBig12= 3.42D-04 8.70D-03.
      6 vectors produced by pass  3 Test12= 2.04D-15 8.33D-09 XBig12= 8.35D-06 1.05D-03.
      6 vectors produced by pass  4 Test12= 2.04D-15 8.33D-09 XBig12= 8.95D-08 1.01D-04.
      6 vectors produced by pass  5 Test12= 2.04D-15 8.33D-09 XBig12= 9.89D-10 9.93D-06.
      6 vectors produced by pass  6 Test12= 2.04D-15 8.33D-09 XBig12= 6.43D-12 1.02D-06.
      4 vectors produced by pass  7 Test12= 2.04D-15 8.33D-09 XBig12= 3.21D-14 6.86D-08.
 InvSVY:  IOpt=1 It=  1 EMax= 8.88D-16
 Solved reduced A of dimension    46 with     6 vectors.
 End of Minotr F.D. properties file   721 does not exist.
 End of Minotr F.D. properties file   722 does not exist.
 End of Minotr F.D. properties file   788 does not exist.

 **********************************************************************

            Population analysis using the SCF density.

 **********************************************************************

 Orbital symmetries:
       Occupied  (A') (A') (A') (A') (A') (A") (A')
       Virtual   (A') (A') (A") (A') (A') (A") (A') (A') (A') (A')
                 (A") (A') (A") (A') (A') (A') (A") (A') (A") (A')
                 (A") (A') (A') (A') (A") (A') (A") (A') (A') (A')
                 (A") (A') (A') (A') (A')
 The electronic state is 1-A'.
 Alpha  occ. eigenvalues --  -15.59478 -11.23038  -1.39697  -0.73288  -0.63461
 Alpha  occ. eigenvalues --   -0.59261  -0.50228
 Alpha virt. eigenvalues --    0.12534   0.20791   0.24144   0.35424   0.46447
 Alpha virt. eigenvalues --    0.56745   0.57357   0.71931   0.75418   0.89419
 Alpha virt. eigenvalues --    0.90510   1.19712   1.23645   1.42106   1.59299
 Alpha virt. eigenvalues --    1.69571   1.77339   1.96926   2.06297   2.39437
 Alpha virt. eigenvalues --    2.40927   2.45186   2.69643   2.82821   3.01727
 Alpha virt. eigenvalues --    3.09843   3.13198   3.15290   3.60437   3.73336
 Alpha virt. eigenvalues --    4.31559   4.41738   5.07420  25.38412  37.49448
          Condensed to atoms (all electrons):
               1          2          3
     1  N    6.550132   0.588632   0.045649
     2  C    0.588632   5.146060   0.320609
     3  H    0.045649   0.320609   0.394027
 Mulliken charges:
               1
     1  N   -0.184413
     2  C   -0.055301
     3  H    0.239714
 Sum of Mulliken charges =   0.00000
 Mulliken charges with hydrogens summed into heavy atoms:
               1
     1  N   -0.184413
     2  C    0.184413
 APT charges:
               1
     1  N   -0.052093
     2  C   -0.259125
     3  H    0.311218
 Sum of APT charges =   0.00000
 APT charges with hydrogens summed into heavy atoms:
               1
     1  N   -0.052093
     2  C    0.052093
 Electronic spatial extent (au):  <R**2>=             41.5143
 Charge=              0.0000 electrons
 Dipole moment (field-independent basis, Debye):
    X=             -1.5040    Y=              0.1691    Z=              0.0000  Tot=              1.5135
 Quadrupole moment (field-independent basis, Debye-Ang):
   XX=             -9.1607   YY=            -13.8851   ZZ=            -11.5019
   XY=             -0.4927   XZ=              0.0000   YZ=              0.0000
 Traceless Quadrupole moment (field-independent basis, Debye-Ang):
   XX=              2.3552   YY=             -2.3692   ZZ=              0.0140
   XY=             -0.4927   XZ=              0.0000   YZ=              0.0000
 Octapole moment (field-independent basis, Debye-Ang**2):
  XXX=             -2.8492  YYY=             -2.5608  ZZZ=              0.0000  XYY=             -0.3528
  XXY=             -0.4022  XXZ=              0.0000  XZZ=             -0.3287  YZZ=             -0.5922
  YYZ=              0.0000  XYZ=              0.0000
 Hexadecapole moment (field-independent basis, Debye-Ang**3):
 XXXX=            -11.0607 YYYY=            -34.9771 ZZZZ=            -10.7983 XXXY=             -0.2954
 XXXZ=              0.0000 YYYX=              0.4092 YYYZ=              0.0000 ZZZX=              0.0000
 ZZZY=              0.0000 XXYY=             -7.4835 XXZZ=             -4.0801 YYZZ=             -7.1714
 XXYZ=              0.0000 YYXZ=              0.0000 ZZXY=              0.1441
 N-N= 2.785163425768D+01 E-N=-2.738130453671D+02  KE= 9.400892975252D+01
 Symmetry A'   KE= 9.098967612540D+01
 Symmetry A"   KE= 3.019253627115D+00
  Exact polarizability:   0.000   0.000   0.000   0.000   0.000   0.000
 Approx polarizability:  11.533   0.342  14.715   0.000   0.000   8.861
 Calling FoFJK, ICntrl=    100147 FMM=F ISym2X=1 I1Cent= 0 IOpClX= 0 NMat=1 NMatS=1 NMatT=0.
 ***** Axes restored to original set *****
 -------------------------------------------------------------------
 Center     Atomic                   Forces (Hartrees/Bohr)
 Number     Number              X              Y              Z
 -------------------------------------------------------------------
      1        7          -0.015789878    0.000000000   -0.658045090
      2        6          -0.010734654    0.000000000    0.648146207
      3        1           0.026524532    0.000000000    0.009898883
 -------------------------------------------------------------------
 Cartesian Forces:  Max     0.658045090 RMS     0.308091425
 FormGI is forming the generalized inverse of G from B-inverse, IUseBI=4.

 GradGradGradGradGradGradGradGradGradGradGradGradGradGradGradGradGradGrad
 Berny optimization.
 Internal  Forces:  Max     0.658045090 RMS     0.380573763
 Search for a saddle point.
 Step number   1 out of a maximum of   20
 All quantities printed in internal units (Hartrees-Bohrs-Radians)
 Swapping is turned off.
 Second derivative matrix not updated -- analytic derivatives used.
 The second derivative matrix:
                          R1        R2        A1
           R1           3.34755
           R2          -0.03071   0.37817
           A1           0.06269   0.11036  -0.17940
 ITU=  0
     Eigenvalues ---   -0.20173   0.39911   3.34894
 Eigenvectors required to have negative eigenvalues:
                          A1        R2        R1
   1                    0.98201  -0.18789  -0.01897
 RFO step:  Lambda0=7.390717050D-04 Lambda=-1.26799187D-01.
 Linear search not attempted -- option 19 set.
 Iteration  1 RMS(Cart)=  0.08178379 RMS(Int)=  0.00135056
 Iteration  2 RMS(Cart)=  0.00170696 RMS(Int)=  0.00000093
 Iteration  3 RMS(Cart)=  0.00000060 RMS(Int)=  0.00000000
 ClnCor:  largest displacement from symmetrization is 2.22D-16 for atom     2.
 Variable       Old X    -DE/DX   Delta X   Delta X   Delta X     New X
                                 (Linear)    (Quad)   (Total)
    R1        1.88973   0.65805   0.00000   0.19088   0.19088   2.08060
    R2        2.07870   0.02440   0.00000   0.07241   0.07241   2.15111
    A1        1.39626   0.02984   0.00000  -0.04398  -0.04398   1.35228
         Item               Value     Threshold  Converged?
 Maximum Force            0.658045     0.000015     NO 
 RMS     Force            0.380574     0.000010     NO 
 Maximum Displacement     0.096812     0.000060     NO 
 RMS     Displacement     0.081473     0.000040     NO 
 Predicted change in Energy=-6.556225D-02
 GradGradGradGradGradGradGradGradGradGradGradGradGradGradGradGradGradGrad

                          Input orientation:                          
 ---------------------------------------------------------------------
 Center     Atomic      Atomic             Coordinates (Angstroms)
 Number     Number       Type             X           Y           Z
 ---------------------------------------------------------------------
      1          7           0       -0.004928    0.000000   -0.051231
      2          6           0       -0.012334    0.000000    1.049752
      3          1           0        1.100550    0.000000    0.810466
 ---------------------------------------------------------------------
                    Distance matrix (angstroms):
                    1          2          3
     1  N    0.000000
     2  C    1.101008   0.000000
     3  H    1.401643   1.138318   0.000000
 Stoichiometry    CHN
 Framework group  CS[SG(CHN)]
 Deg. of freedom     3
 Full point group                 CS      NOp   2
 Largest Abelian subgroup         CS      NOp   2
 Largest concise Abelian subgroup C1      NOp   1
                         Standard orientation:                         
 ---------------------------------------------------------------------
 Center     Atomic      Atomic             Coordinates (Angstroms)
 Number     Number       Type             X           Y           Z
 ---------------------------------------------------------------------
      1          7           0        0.079375   -0.532878    0.000000
      2          6           0        0.079375    0.568130    0.000000
      3          1           0       -1.031874    0.321364    0.000000
 ---------------------------------------------------------------------
 Rotational constants (GHZ):    429.1834232     63.4069907     55.2451460
 Standard basis: 6-311G(d,p) (5D, 7F)
 There are    33 symmetry adapted cartesian basis functions of A'  symmetry.
 There are    11 symmetry adapted cartesian basis functions of A"  symmetry.
 There are    31 symmetry adapted basis functions of A'  symmetry.
 There are    11 symmetry adapted basis functions of A"  symmetry.
    42 basis functions,    72 primitive gaussians,    44 cartesian basis functions
     7 alpha electrons        7 beta electrons
       nuclear repulsion energy        25.6184994328 Hartrees.
 NAtoms=    3 NActive=    3 NUniq=    3 SFac= 1.00D+00 NAtFMM=   60 NAOKFM=F Big=F
 Integral buffers will be    131072 words long.
 Raffenetti 1 integral format.
 Two-electron integral symmetry is turned on.
 One-electron integrals computed using PRISM.
 NBasis=    42 RedAO= T EigKep=  6.53D-03  NBF=    31    11
 NBsUse=    42 1.00D-06 EigRej= -1.00D+00 NBFU=    31    11
 Initial guess from the checkpoint file:  "HNCts6311Gss.chk"
 B after Tr=     0.000000    0.000000    0.000000
         Rot=    0.999999    0.000000    0.000000   -0.001086 Ang=  -0.12 deg.
 Initial guess orbital symmetries:
       Occupied  (A') (A') (A') (A') (A') (A") (A')
       Virtual   (A') (A') (A') (A') (A') (A') (A') (A') (A') (A')
                 (A') (A') (A') (A') (A') (A') (A') (A') (A') (A')
                 (A') (A') (A') (A') (A') (A") (A") (A") (A") (A")
                 (A") (A") (A") (A") (A")
 ExpMin= 1.03D-01 ExpMax= 6.29D+03 ExpMxC= 9.49D+02 IAcc=1 IRadAn=         1 AccDes= 0.00D+00
 Harris functional with IExCor=  205 and IRadAn=       1 diagonalized for initial guess.
 HarFok:  IExCor=  205 AccDes= 0.00D+00 IRadAn=         1 IDoV= 1 UseB2=F ITyADJ=14
 ICtDFT=  3500011 ScaDFX=  1.000000  1.000000  1.000000  1.000000
 FoFCou: FMM=F IPFlag=           0 FMFlag=      100000 FMFlg1=           0
         NFxFlg=           0 DoJE=T BraDBF=F KetDBF=T FulRan=T
         wScrn=  0.000000 ICntrl=     500 IOpCl=  0 I1Cent=   200000004 NGrid=           0
         NMat0=    1 NMatS0=      1 NMatT0=    0 NMatD0=    1 NMtDS0=    0 NMtDT0=    0
 Petite list used in FoFCou.
 Keep R1 ints in memory in symmetry-blocked form, NReq=1268000.
 Requested convergence on RMS density matrix=1.00D-08 within 128 cycles.
 Requested convergence on MAX density matrix=1.00D-06.
 Requested convergence on             energy=1.00D-06.
 No special actions if energy rises.
 SCF Done:  E(RHF) =  -92.8108756855     A.U. after   13 cycles
            NFock= 13  Conv=0.94D-08     -V/T= 1.9957
 Calling FoFJK, ICntrl=      2127 FMM=F ISym2X=1 I1Cent= 0 IOpClX= 0 NMat=1 NMatS=1 NMatT=0.
 ***** Axes restored to original set *****
 -------------------------------------------------------------------
 Center     Atomic                   Forces (Hartrees/Bohr)
 Number     Number              X              Y              Z
 -------------------------------------------------------------------
      1        7          -0.000579206    0.000000000   -0.179966387
      2        6          -0.009261706    0.000000000    0.180311683
      3        1           0.009840912    0.000000000   -0.000345296
 -------------------------------------------------------------------
 Cartesian Forces:  Max     0.180311683 RMS     0.085038083

 GradGradGradGradGradGradGradGradGradGradGradGradGradGradGradGradGradGrad
 Berny optimization.
 FormGI is forming the generalized inverse of G from B-inverse, IUseBI=4.
 Internal  Forces:  Max     0.179958423 RMS     0.104071876
 Search for a saddle point.
 Step number   2 out of a maximum of   20
 All quantities printed in internal units (Hartrees-Bohrs-Radians)
 Swapping is turned off.
 Update second derivatives using D2CorX and points    1    2
 The second derivative matrix:
                          R1        R2        A1
           R1           2.53606
           R2          -0.04747   0.39027
           A1           0.05799   0.10207  -0.17403
 ITU=  0  0
     Eigenvalues ---   -0.19349   0.40753   2.53826
 Eigenvectors required to have negative eigenvalues:
                          A1        R2        R1
   1                    0.98444  -0.17408  -0.02394
 RFO step:  Lambda0=2.806052214D-05 Lambda=-1.30841184D-02.
 Linear search not attempted -- option 19 set.
 Iteration  1 RMS(Cart)=  0.04166459 RMS(Int)=  0.00034430
 Iteration  2 RMS(Cart)=  0.00041955 RMS(Int)=  0.00000007
 Iteration  3 RMS(Cart)=  0.00000006 RMS(Int)=  0.00000000
 ClnCor:  largest displacement from symmetrization is 2.26D-16 for atom     1.
 Variable       Old X    -DE/DX   Delta X   Delta X   Delta X     New X
                                 (Linear)    (Quad)   (Total)
    R1        2.08060   0.17996   0.00000   0.07068   0.07068   2.15128
    R2        2.15111   0.00969   0.00000   0.02752   0.02752   2.17863
    A1        1.35228   0.00372   0.00000   0.01882   0.01882   1.37110
         Item               Value     Threshold  Converged?
 Maximum Force            0.179958     0.000015     NO 
 RMS     Force            0.104072     0.000010     NO 
 Maximum Displacement     0.047673     0.000060     NO 
 RMS     Displacement     0.041910     0.000040     NO 
 Predicted change in Energy=-6.567029D-03
 GradGradGradGradGradGradGradGradGradGradGradGradGradGradGradGradGradGrad

                          Input orientation:                          
 ---------------------------------------------------------------------
 Center     Atomic      Atomic             Coordinates (Angstroms)
 Number     Number       Type             X           Y           Z
 ---------------------------------------------------------------------
      1          7           0       -0.021394    0.000000   -0.076458
      2          6           0       -0.011643    0.000000    1.061909
      3          1           0        1.116326    0.000000    0.823537
 ---------------------------------------------------------------------
                    Distance matrix (angstroms):
                    1          2          3
     1  N    0.000000
     2  C    1.138409   0.000000
     3  H    1.450655   1.152882   0.000000
 Stoichiometry    CHN
 Framework group  CS[SG(CHN)]
 Deg. of freedom     3
 Full point group                 CS      NOp   2
 Largest Abelian subgroup         CS      NOp   2
 Largest concise Abelian subgroup C1      NOp   1
                         Standard orientation:                         
 ---------------------------------------------------------------------
 Center     Atomic      Atomic             Coordinates (Angstroms)
 Number     Number       Type             X           Y           Z
 ---------------------------------------------------------------------
      1          7           0        0.080712   -0.552869    0.000000
      2          6           0        0.080712    0.585540    0.000000
      3          1           0       -1.049258    0.356838    0.000000
 ---------------------------------------------------------------------
 Rotational constants (GHZ):    416.1213371     59.1606999     51.7966757
 Standard basis: 6-311G(d,p) (5D, 7F)
 There are    33 symmetry adapted cartesian basis functions of A'  symmetry.
 There are    11 symmetry adapted cartesian basis functions of A"  symmetry.
 There are    31 symmetry adapted basis functions of A'  symmetry.
 There are    11 symmetry adapted basis functions of A"  symmetry.
    42 basis functions,    72 primitive gaussians,    44 cartesian basis functions
     7 alpha electrons        7 beta electrons
       nuclear repulsion energy        24.8307667463 Hartrees.
 NAtoms=    3 NActive=    3 NUniq=    3 SFac= 1.00D+00 NAtFMM=   60 NAOKFM=F Big=F
 Integral buffers will be    131072 words long.
 Raffenetti 1 integral format.
 Two-electron integral symmetry is turned on.
 One-electron integrals computed using PRISM.
 NBasis=    42 RedAO= T EigKep=  7.44D-03  NBF=    31    11
 NBsUse=    42 1.00D-06 EigRej= -1.00D+00 NBFU=    31    11
 Initial guess from the checkpoint file:  "HNCts6311Gss.chk"
 B after Tr=     0.000000    0.000000    0.000000
         Rot=    0.999995    0.000000    0.000000    0.003128 Ang=   0.36 deg.
 Initial guess orbital symmetries:
       Occupied  (A') (A') (A') (A') (A') (A") (A')
       Virtual   (A') (A') (A') (A') (A') (A') (A') (A') (A') (A')
                 (A') (A') (A') (A') (A') (A') (A') (A') (A') (A')
                 (A') (A') (A') (A') (A') (A") (A") (A") (A") (A")
                 (A") (A") (A") (A") (A")
 ExpMin= 1.03D-01 ExpMax= 6.29D+03 ExpMxC= 9.49D+02 IAcc=1 IRadAn=         1 AccDes= 0.00D+00
 Harris functional with IExCor=  205 and IRadAn=       1 diagonalized for initial guess.
 HarFok:  IExCor=  205 AccDes= 0.00D+00 IRadAn=         1 IDoV= 1 UseB2=F ITyADJ=14
 ICtDFT=  3500011 ScaDFX=  1.000000  1.000000  1.000000  1.000000
 FoFCou: FMM=F IPFlag=           0 FMFlag=      100000 FMFlg1=           0
         NFxFlg=           0 DoJE=T BraDBF=F KetDBF=T FulRan=T
         wScrn=  0.000000 ICntrl=     500 IOpCl=  0 I1Cent=   200000004 NGrid=           0
         NMat0=    1 NMatS0=      1 NMatT0=    0 NMatD0=    1 NMtDS0=    0 NMtDT0=    0
 Petite list used in FoFCou.
 Keep R1 ints in memory in symmetry-blocked form, NReq=1267971.
 Requested convergence on RMS density matrix=1.00D-08 within 128 cycles.
 Requested convergence on MAX density matrix=1.00D-06.
 Requested convergence on             energy=1.00D-06.
 No special actions if energy rises.
 SCF Done:  E(RHF) =  -92.8195131850     A.U. after   12 cycles
            NFock= 12  Conv=0.25D-08     -V/T= 1.9984
 Calling FoFJK, ICntrl=      2127 FMM=F ISym2X=1 I1Cent= 0 IOpClX= 0 NMat=1 NMatS=1 NMatT=0.
 ***** Axes restored to original set *****
 -------------------------------------------------------------------
 Center     Atomic                   Forces (Hartrees/Bohr)
 Number     Number              X              Y              Z
 -------------------------------------------------------------------
      1        7          -0.001091575    0.000000000   -0.063737029
      2        6           0.000349480    0.000000000    0.063343207
      3        1           0.000742095    0.000000000    0.000393823
 -------------------------------------------------------------------
 Cartesian Forces:  Max     0.063737029 RMS     0.029956988

 GradGradGradGradGradGradGradGradGradGradGradGradGradGradGradGradGradGrad
 Berny optimization.
 FormGI is forming the generalized inverse of G from B-inverse, IUseBI=4.
 Internal  Forces:  Max     0.063744041 RMS     0.036810759
 Search for a saddle point.
 Step number   3 out of a maximum of   20
 All quantities printed in internal units (Hartrees-Bohrs-Radians)
 Swapping is turned off.
 Update second derivatives using D2CorX and points    1    2    3
 The second derivative matrix:
                          R1        R2        A1
           R1           1.65658
           R2          -0.05837   0.40485
           A1           0.03913   0.10804  -0.16946
 ITU=  0  0  0
     Eigenvalues ---   -0.19041   0.42244   1.65993
 Eigenvectors required to have negative eigenvalues:
                          A1        R2        R1
   1                   -0.98312   0.18104   0.02655
 RFO step:  Lambda0=2.253694908D-06 Lambda=-2.46580269D-03.
 Linear search not attempted -- option 19 set.
 Iteration  1 RMS(Cart)=  0.01920574 RMS(Int)=  0.00007235
 Iteration  2 RMS(Cart)=  0.00009258 RMS(Int)=  0.00000000
 Iteration  3 RMS(Cart)=  0.00000000 RMS(Int)=  0.00000000
 ClnCor:  largest displacement from symmetrization is 9.93D-16 for atom     3.
 Variable       Old X    -DE/DX   Delta X   Delta X   Delta X     New X
                                 (Linear)    (Quad)   (Total)
    R1        2.15128   0.06374   0.00000   0.03849   0.03849   2.18977
    R2        2.17863   0.00064   0.00000   0.00562   0.00562   2.18425
    A1        1.37110   0.00117   0.00000   0.00557   0.00557   1.37667
         Item               Value     Threshold  Converged?
 Maximum Force            0.063744     0.000015     NO 
 RMS     Force            0.036811     0.000010     NO 
 Maximum Displacement     0.024189     0.000060     NO 
 RMS     Displacement     0.019253     0.000040     NO 
 Predicted change in Energy=-1.233666D-03
 GradGradGradGradGradGradGradGradGradGradGradGradGradGradGradGradGradGrad

                          Input orientation:                          
 ---------------------------------------------------------------------
 Center     Atomic      Atomic             Coordinates (Angstroms)
 Number     Number       Type             X           Y           Z
 ---------------------------------------------------------------------
      1          7           0       -0.027718    0.000000   -0.089259
      2          6           0       -0.009774    0.000000    1.069378
      3          1           0        1.120780    0.000000    0.828867
 ---------------------------------------------------------------------
                    Distance matrix (angstroms):
                    1          2          3
     1  N    0.000000
     2  C    1.158776   0.000000
     3  H    1.470376   1.155854   0.000000
 Stoichiometry    CHN
 Framework group  CS[SG(CHN)]
 Deg. of freedom     3
 Full point group                 CS      NOp   2
 Largest Abelian subgroup         CS      NOp   2
 Largest concise Abelian subgroup C1      NOp   1
                         Standard orientation:                         
 ---------------------------------------------------------------------
 Center     Atomic      Atomic             Coordinates (Angstroms)
 Number     Number       Type             X           Y           Z
 ---------------------------------------------------------------------
      1          7           0        0.081010   -0.563461    0.000000
      2          6           0        0.081010    0.595315    0.000000
      3          1           0       -1.053133    0.372340    0.000000
 ---------------------------------------------------------------------
 Rotational constants (GHZ):    413.4354382     57.0480895     50.1307707
 Standard basis: 6-311G(d,p) (5D, 7F)
 There are    33 symmetry adapted cartesian basis functions of A'  symmetry.
 There are    11 symmetry adapted cartesian basis functions of A"  symmetry.
 There are    31 symmetry adapted basis functions of A'  symmetry.
 There are    11 symmetry adapted basis functions of A"  symmetry.
    42 basis functions,    72 primitive gaussians,    44 cartesian basis functions
     7 alpha electrons        7 beta electrons
       nuclear repulsion energy        24.4462885625 Hartrees.
 NAtoms=    3 NActive=    3 NUniq=    3 SFac= 1.00D+00 NAtFMM=   60 NAOKFM=F Big=F
 Integral buffers will be    131072 words long.
 Raffenetti 1 integral format.
 Two-electron integral symmetry is turned on.
 One-electron integrals computed using PRISM.
 NBasis=    42 RedAO= T EigKep=  7.96D-03  NBF=    31    11
 NBsUse=    42 1.00D-06 EigRej= -1.00D+00 NBFU=    31    11
 Initial guess from the checkpoint file:  "HNCts6311Gss.chk"
 B after Tr=     0.000000    0.000000    0.000000
         Rot=    0.999999    0.000000    0.000000    0.001432 Ang=   0.16 deg.
 Initial guess orbital symmetries:
       Occupied  (A') (A') (A') (A') (A') (A") (A')
       Virtual   (A') (A') (A') (A') (A') (A') (A') (A') (A') (A')
                 (A') (A') (A') (A') (A') (A') (A') (A') (A') (A')
                 (A') (A') (A') (A') (A') (A") (A") (A") (A") (A")
                 (A") (A") (A") (A") (A")
 ExpMin= 1.03D-01 ExpMax= 6.29D+03 ExpMxC= 9.49D+02 IAcc=1 IRadAn=         1 AccDes= 0.00D+00
 Harris functional with IExCor=  205 and IRadAn=       1 diagonalized for initial guess.
 HarFok:  IExCor=  205 AccDes= 0.00D+00 IRadAn=         1 IDoV= 1 UseB2=F ITyADJ=14
 ICtDFT=  3500011 ScaDFX=  1.000000  1.000000  1.000000  1.000000
 FoFCou: FMM=F IPFlag=           0 FMFlag=      100000 FMFlg1=           0
         NFxFlg=           0 DoJE=T BraDBF=F KetDBF=T FulRan=T
         wScrn=  0.000000 ICntrl=     500 IOpCl=  0 I1Cent=   200000004 NGrid=           0
         NMat0=    1 NMatS0=      1 NMatT0=    0 NMatD0=    1 NMtDS0=    0 NMtDT0=    0
 Petite list used in FoFCou.
 Keep R1 ints in memory in symmetry-blocked form, NReq=1267956.
 Requested convergence on RMS density matrix=1.00D-08 within 128 cycles.
 Requested convergence on MAX density matrix=1.00D-06.
 Requested convergence on             energy=1.00D-06.
 No special actions if energy rises.
 SCF Done:  E(RHF) =  -92.8209360596     A.U. after   11 cycles
            NFock= 11  Conv=0.96D-08     -V/T= 1.9996
 Calling FoFJK, ICntrl=      2127 FMM=F ISym2X=1 I1Cent= 0 IOpClX= 0 NMat=1 NMatS=1 NMatT=0.
 ***** Axes restored to original set *****
 -------------------------------------------------------------------
 Center     Atomic                   Forces (Hartrees/Bohr)
 Number     Number              X              Y              Z
 -------------------------------------------------------------------
      1        7          -0.000319285    0.000000000   -0.011179496
      2        6           0.001171202    0.000000000    0.010848489
      3        1          -0.000851917    0.000000000    0.000331007
 -------------------------------------------------------------------
 Cartesian Forces:  Max     0.011179496 RMS     0.005217277

 GradGradGradGradGradGradGradGradGradGradGradGradGradGradGradGradGradGrad
 Berny optimization.
 FormGI is forming the generalized inverse of G from B-inverse, IUseBI=4.
 Internal  Forces:  Max     0.011183100 RMS     0.006480174
 Search for a saddle point.
 Step number   4 out of a maximum of   20
 All quantities printed in internal units (Hartrees-Bohrs-Radians)
 Swapping is turned off.
 Update second derivatives using D2CorX and points    1    2    3    4
 The second derivative matrix:
                          R1        R2        A1
           R1           1.36646
           R2          -0.03528   0.40442
           A1           0.02986   0.11361  -0.16756
 ITU=  0  0  0  0
     Eigenvalues ---   -0.19013   0.42527   1.36819
 Eigenvectors required to have negative eigenvalues:
                          A1        R2        R1
   1                   -0.98171   0.18896   0.02312
 RFO step:  Lambda0=2.688033035D-07 Lambda=-9.24134457D-05.
 Linear search not attempted -- option 19 set.
 Iteration  1 RMS(Cart)=  0.00343782 RMS(Int)=  0.00000264
 Iteration  2 RMS(Cart)=  0.00000221 RMS(Int)=  0.00000000
 Iteration  3 RMS(Cart)=  0.00000000 RMS(Int)=  0.00000000
 ClnCor:  largest displacement from symmetrization is 3.05D-16 for atom     1.
 Variable       Old X    -DE/DX   Delta X   Delta X   Delta X     New X
                                 (Linear)    (Quad)   (Total)
    R1        2.18977   0.01118   0.00000   0.00818   0.00818   2.19795
    R2        2.18425  -0.00090   0.00000  -0.00117  -0.00117   2.18308
    A1        1.37667   0.00032   0.00000  -0.00124  -0.00124   1.37543
         Item               Value     Threshold  Converged?
 Maximum Force            0.011183     0.000015     NO 
 RMS     Force            0.006480     0.000010     NO 
 Maximum Displacement     0.004253     0.000060     NO 
 RMS     Displacement     0.003438     0.000040     NO 
 Predicted change in Energy=-4.607232D-05
 GradGradGradGradGradGradGradGradGradGradGradGradGradGradGradGradGradGrad

                          Input orientation:                          
 ---------------------------------------------------------------------
 Center     Atomic      Atomic             Coordinates (Angstroms)
 Number     Number       Type             X           Y           Z
 ---------------------------------------------------------------------
      1          7           0       -0.027836    0.000000   -0.091509
      2          6           0       -0.009197    0.000000    1.071446
      3          1           0        1.120322    0.000000    0.829050
 ---------------------------------------------------------------------
                    Distance matrix (angstroms):
                    1          2          3
     1  N    0.000000
     2  C    1.163105   0.000000
     3  H    1.471631   1.155236   0.000000
 Stoichiometry    CHN
 Framework group  CS[SG(CHN)]
 Deg. of freedom     3
 Full point group                 CS      NOp   2
 Largest Abelian subgroup         CS      NOp   2
 Largest concise Abelian subgroup C1      NOp   1
                         Standard orientation:                         
 ---------------------------------------------------------------------
 Center     Atomic      Atomic             Coordinates (Angstroms)
 Number     Number       Type             X           Y           Z
 ---------------------------------------------------------------------
      1          7           0        0.080947   -0.565534    0.000000
      2          6           0        0.080947    0.597571    0.000000
      3          1           0       -1.052312    0.373307    0.000000
 ---------------------------------------------------------------------
 Rotational constants (GHZ):    414.0491951     56.6285528     49.8154136
 Standard basis: 6-311G(d,p) (5D, 7F)
 There are    33 symmetry adapted cartesian basis functions of A'  symmetry.
 There are    11 symmetry adapted cartesian basis functions of A"  symmetry.
 There are    31 symmetry adapted basis functions of A'  symmetry.
 There are    11 symmetry adapted basis functions of A"  symmetry.
    42 basis functions,    72 primitive gaussians,    44 cartesian basis functions
     7 alpha electrons        7 beta electrons
       nuclear repulsion energy        24.3742235798 Hartrees.
 NAtoms=    3 NActive=    3 NUniq=    3 SFac= 1.00D+00 NAtFMM=   60 NAOKFM=F Big=F
 Integral buffers will be    131072 words long.
 Raffenetti 1 integral format.
 Two-electron integral symmetry is turned on.
 One-electron integrals computed using PRISM.
 NBasis=    42 RedAO= T EigKep=  8.07D-03  NBF=    31    11
 NBsUse=    42 1.00D-06 EigRej= -1.00D+00 NBFU=    31    11
 Initial guess from the checkpoint file:  "HNCts6311Gss.chk"
 B after Tr=     0.000000    0.000000    0.000000
         Rot=    1.000000    0.000000    0.000000    0.000125 Ang=   0.01 deg.
 Initial guess orbital symmetries:
       Occupied  (A') (A') (A') (A') (A') (A") (A')
       Virtual   (A') (A') (A') (A') (A') (A') (A') (A') (A') (A')
                 (A') (A') (A') (A') (A') (A') (A') (A') (A') (A')
                 (A') (A') (A') (A') (A') (A") (A") (A") (A") (A")
                 (A") (A") (A") (A") (A")
 Keep R1 ints in memory in symmetry-blocked form, NReq=1267956.
 Requested convergence on RMS density matrix=1.00D-08 within 128 cycles.
 Requested convergence on MAX density matrix=1.00D-06.
 Requested convergence on             energy=1.00D-06.
 No special actions if energy rises.
 SCF Done:  E(RHF) =  -92.8209858382     A.U. after   11 cycles
            NFock= 11  Conv=0.20D-08     -V/T= 1.9998
 Calling FoFJK, ICntrl=      2127 FMM=F ISym2X=1 I1Cent= 0 IOpClX= 0 NMat=1 NMatS=1 NMatT=0.
 ***** Axes restored to original set *****
 -------------------------------------------------------------------
 Center     Atomic                   Forces (Hartrees/Bohr)
 Number     Number              X              Y              Z
 -------------------------------------------------------------------
      1        7          -0.000020014    0.000000000   -0.000916787
      2        6           0.000295224    0.000000000    0.000852250
      3        1          -0.000275209    0.000000000    0.000064538
 -------------------------------------------------------------------
 Cartesian Forces:  Max     0.000916787 RMS     0.000438975

 GradGradGradGradGradGradGradGradGradGradGradGradGradGradGradGradGradGrad
 Berny optimization.
 FormGI is forming the generalized inverse of G from B-inverse, IUseBI=4.
 Internal  Forces:  Max     0.000916991 RMS     0.000554041
 Search for a saddle point.
 Step number   5 out of a maximum of   20
 All quantities printed in internal units (Hartrees-Bohrs-Radians)
 Swapping is turned off.
 Update second derivatives using D2CorX and points    2    3    4    5
 The second derivative matrix:
                          R1        R2        A1
           R1           1.25892
           R2          -0.00236   0.39368
           A1           0.02830   0.11309  -0.16795
 ITU=  0  0  0  0
     Eigenvalues ---   -0.19041   0.41559   1.25948
 Eigenvectors required to have negative eigenvalues:
                          A1        R2        R1
   1                   -0.98157   0.19013   0.01948
 RFO step:  Lambda0=1.177584809D-08 Lambda=-8.54501795D-07.
 Linear search not attempted -- option 19 set.
 Iteration  1 RMS(Cart)=  0.00048202 RMS(Int)=  0.00000009
 Iteration  2 RMS(Cart)=  0.00000007 RMS(Int)=  0.00000000
 ClnCor:  largest displacement from symmetrization is 8.88D-16 for atom     3.
 Variable       Old X    -DE/DX   Delta X   Delta X   Delta X     New X
                                 (Linear)    (Quad)   (Total)
    R1        2.19795   0.00092   0.00000   0.00074   0.00074   2.19869
    R2        2.18308  -0.00028   0.00000  -0.00061  -0.00061   2.18247
    A1        1.37543   0.00001   0.00000  -0.00036  -0.00036   1.37507
         Item               Value     Threshold  Converged?
 Maximum Force            0.000917     0.000015     NO 
 RMS     Force            0.000554     0.000010     NO 
 Maximum Displacement     0.000508     0.000060     NO 
 RMS     Displacement     0.000482     0.000040     NO 
 Predicted change in Energy=-4.213630D-07
 GradGradGradGradGradGradGradGradGradGradGradGradGradGradGradGradGradGrad

                          Input orientation:                          
 ---------------------------------------------------------------------
 Center     Atomic      Atomic             Coordinates (Angstroms)
 Number     Number       Type             X           Y           Z
 ---------------------------------------------------------------------
      1          7           0       -0.027699    0.000000   -0.091661
      2          6           0       -0.009066    0.000000    1.071684
      3          1           0        1.120053    0.000000    0.828964
 ---------------------------------------------------------------------
                    Distance matrix (angstroms):
                    1          2          3
     1  N    0.000000
     2  C    1.163494   0.000000
     3  H    1.471355   1.154913   0.000000
 Stoichiometry    CHN
 Framework group  CS[SG(CHN)]
 Deg. of freedom     3
 Full point group                 CS      NOp   2
 Largest Abelian subgroup         CS      NOp   2
 Largest concise Abelian subgroup C1      NOp   1
                         Standard orientation:                         
 ---------------------------------------------------------------------
 Center     Atomic      Atomic             Coordinates (Angstroms)
 Number     Number       Type             X           Y           Z
 ---------------------------------------------------------------------
      1          7           0        0.080919   -0.565704    0.000000
      2          6           0        0.080919    0.597790    0.000000
      3          1           0       -1.051943    0.373184    0.000000
 ---------------------------------------------------------------------
 Rotational constants (GHZ):    414.3265776     56.5924677     49.7914953
 Standard basis: 6-311G(d,p) (5D, 7F)
 There are    33 symmetry adapted cartesian basis functions of A'  symmetry.
 There are    11 symmetry adapted cartesian basis functions of A"  symmetry.
 There are    31 symmetry adapted basis functions of A'  symmetry.
 There are    11 symmetry adapted basis functions of A"  symmetry.
    42 basis functions,    72 primitive gaussians,    44 cartesian basis functions
     7 alpha electrons        7 beta electrons
       nuclear repulsion energy        24.3690743080 Hartrees.
 NAtoms=    3 NActive=    3 NUniq=    3 SFac= 1.00D+00 NAtFMM=   60 NAOKFM=F Big=F
 Integral buffers will be    131072 words long.
 Raffenetti 1 integral format.
 Two-electron integral symmetry is turned on.
 One-electron integrals computed using PRISM.
 NBasis=    42 RedAO= T EigKep=  8.08D-03  NBF=    31    11
 NBsUse=    42 1.00D-06 EigRej= -1.00D+00 NBFU=    31    11
 Initial guess from the checkpoint file:  "HNCts6311Gss.chk"
 B after Tr=     0.000000    0.000000    0.000000
         Rot=    1.000000    0.000000    0.000000    0.000001 Ang=   0.00 deg.
 Initial guess orbital symmetries:
       Occupied  (A') (A') (A') (A') (A') (A") (A')
       Virtual   (A') (A') (A') (A') (A') (A') (A') (A') (A') (A')
                 (A') (A') (A') (A') (A') (A') (A') (A') (A') (A')
                 (A') (A') (A') (A') (A') (A") (A") (A") (A") (A")
                 (A") (A") (A") (A") (A")
 Keep R1 ints in memory in symmetry-blocked form, NReq=1267956.
 Requested convergence on RMS density matrix=1.00D-08 within 128 cycles.
 Requested convergence on MAX density matrix=1.00D-06.
 Requested convergence on             energy=1.00D-06.
 No special actions if energy rises.
 SCF Done:  E(RHF) =  -92.8209862781     A.U. after    8 cycles
            NFock=  8  Conv=0.92D-08     -V/T= 1.9998
 Calling FoFJK, ICntrl=      2127 FMM=F ISym2X=1 I1Cent= 0 IOpClX= 0 NMat=1 NMatS=1 NMatT=0.
 ***** Axes restored to original set *****
 -------------------------------------------------------------------
 Center     Atomic                   Forces (Hartrees/Bohr)
 Number     Number              X              Y              Z
 -------------------------------------------------------------------
      1        7          -0.000000708    0.000000000   -0.000006568
      2        6           0.000053136    0.000000000   -0.000005318
      3        1          -0.000052428    0.000000000    0.000011886
 -------------------------------------------------------------------
 Cartesian Forces:  Max     0.000053136 RMS     0.000025354

 GradGradGradGradGradGradGradGradGradGradGradGradGradGradGradGradGradGrad
 Berny optimization.
 FormGI is forming the generalized inverse of G from B-inverse, IUseBI=4.
 Internal  Forces:  Max     0.000053757 RMS     0.000031277
 Search for a saddle point.
 Step number   6 out of a maximum of   20
 All quantities printed in internal units (Hartrees-Bohrs-Radians)
 Swapping is turned off.
 Update second derivatives using D2CorX and points    3    4    5    6
 The second derivative matrix:
                          R1        R2        A1
           R1           1.26939
           R2           0.02531   0.34448
           A1           0.02096   0.10369  -0.16327
 ITU=  0  0  0  0
     Eigenvalues ---   -0.18380   0.36392   1.27048
 Eigenvectors required to have negative eigenvalues:
                          A1        R2        R1
   1                   -0.98132   0.19209   0.01081
 RFO step:  Lambda0=7.257801027D-10 Lambda= 0.00000000D+00.
 Linear search not attempted -- option 19 set.
 Iteration  1 RMS(Cart)=  0.00010232 RMS(Int)=  0.00000000
 Iteration  2 RMS(Cart)=  0.00000000 RMS(Int)=  0.00000000
 ClnCor:  largest displacement from symmetrization is 9.16D-16 for atom     3.
 Variable       Old X    -DE/DX   Delta X   Delta X   Delta X     New X
                                 (Linear)    (Quad)   (Total)
    R1        2.19869   0.00001   0.00000   0.00001   0.00001   2.19869
    R2        2.18247  -0.00005   0.00000  -0.00013  -0.00013   2.18234
    A1        1.37507   0.00000   0.00000  -0.00009  -0.00009   1.37498
         Item               Value     Threshold  Converged?
 Maximum Force            0.000054     0.000015     NO 
 RMS     Force            0.000031     0.000010     NO 
 Maximum Displacement     0.000123     0.000060     NO 
 RMS     Displacement     0.000102     0.000040     NO 
 Predicted change in Energy=-3.461224D-09
 GradGradGradGradGradGradGradGradGradGradGradGradGradGradGradGradGradGrad

                          Input orientation:                          
 ---------------------------------------------------------------------
 Center     Atomic      Atomic             Coordinates (Angstroms)
 Number     Number       Type             X           Y           Z
 ---------------------------------------------------------------------
      1          7           0       -0.027651    0.000000   -0.091646
      2          6           0       -0.009049    0.000000    1.071704
      3          1           0        1.119988    0.000000    0.828929
 ---------------------------------------------------------------------
                    Distance matrix (angstroms):
                    1          2          3
     1  N    0.000000
     2  C    1.163499   0.000000
     3  H    1.471235   1.154844   0.000000
 Stoichiometry    CHN
 Framework group  CS[SG(CHN)]
 Deg. of freedom     3
 Full point group                 CS      NOp   2
 Largest Abelian subgroup         CS      NOp   2
 Largest concise Abelian subgroup C1      NOp   1
                         Standard orientation:                         
 ---------------------------------------------------------------------
 Center     Atomic      Atomic             Coordinates (Angstroms)
 Number     Number       Type             X           Y           Z
 ---------------------------------------------------------------------
      1          7           0        0.080912   -0.565700    0.000000
      2          6           0        0.080912    0.597799    0.000000
      3          1           0       -1.051862    0.373105    0.000000
 ---------------------------------------------------------------------
 Rotational constants (GHZ):    414.3866984     56.5925194     49.7924036
 Standard basis: 6-311G(d,p) (5D, 7F)
 There are    33 symmetry adapted cartesian basis functions of A'  symmetry.
 There are    11 symmetry adapted cartesian basis functions of A"  symmetry.
 There are    31 symmetry adapted basis functions of A'  symmetry.
 There are    11 symmetry adapted basis functions of A"  symmetry.
    42 basis functions,    72 primitive gaussians,    44 cartesian basis functions
     7 alpha electrons        7 beta electrons
       nuclear repulsion energy        24.3693633426 Hartrees.
 NAtoms=    3 NActive=    3 NUniq=    3 SFac= 1.00D+00 NAtFMM=   60 NAOKFM=F Big=F
 Integral buffers will be    131072 words long.
 Raffenetti 1 integral format.
 Two-electron integral symmetry is turned on.
 One-electron integrals computed using PRISM.
 NBasis=    42 RedAO= T EigKep=  8.08D-03  NBF=    31    11
 NBsUse=    42 1.00D-06 EigRej= -1.00D+00 NBFU=    31    11
 Initial guess from the checkpoint file:  "HNCts6311Gss.chk"
 B after Tr=     0.000000    0.000000    0.000000
         Rot=    1.000000    0.000000    0.000000   -0.000005 Ang=   0.00 deg.
 Initial guess orbital symmetries:
       Occupied  (A') (A') (A') (A') (A') (A") (A')
       Virtual   (A') (A') (A') (A') (A') (A') (A') (A') (A') (A')
                 (A') (A') (A') (A') (A') (A') (A') (A') (A') (A')
                 (A') (A') (A') (A') (A') (A") (A") (A") (A") (A")
                 (A") (A") (A") (A") (A")
 Keep R1 ints in memory in symmetry-blocked form, NReq=1267956.
 Requested convergence on RMS density matrix=1.00D-08 within 128 cycles.
 Requested convergence on MAX density matrix=1.00D-06.
 Requested convergence on             energy=1.00D-06.
 No special actions if energy rises.
 SCF Done:  E(RHF) =  -92.8209862819     A.U. after    7 cycles
            NFock=  7  Conv=0.50D-08     -V/T= 1.9998
 Calling FoFJK, ICntrl=      2127 FMM=F ISym2X=1 I1Cent= 0 IOpClX= 0 NMat=1 NMatS=1 NMatT=0.
 ***** Axes restored to original set *****
 -------------------------------------------------------------------
 Center     Atomic                   Forces (Hartrees/Bohr)
 Number     Number              X              Y              Z
 -------------------------------------------------------------------
      1        7          -0.000000292    0.000000000    0.000004664
      2        6           0.000006084    0.000000000   -0.000006283
      3        1          -0.000005792    0.000000000    0.000001619
 -------------------------------------------------------------------
 Cartesian Forces:  Max     0.000006283 RMS     0.000003866

 GradGradGradGradGradGradGradGradGradGradGradGradGradGradGradGradGradGrad
 Berny optimization.
 FormGI is forming the generalized inverse of G from B-inverse, IUseBI=4.
 Internal  Forces:  Max     0.000006004 RMS     0.000004411
 Search for a saddle point.
 Step number   7 out of a maximum of   20
 All quantities printed in internal units (Hartrees-Bohrs-Radians)
 Swapping is turned off.
 Update second derivatives using D2CorX and points    4    5    6    7
 The second derivative matrix:
                          R1        R2        A1
           R1           1.26433
           R2          -0.00350   0.29827
           A1           0.01017   0.10068  -0.15104
 ITU=  0  0  0  0
     Eigenvalues ---   -0.17264   0.31979   1.26441
 Eigenvectors required to have negative eigenvalues:
                          A1        R2        R1
   1                   -0.97786   0.20911   0.00743
 RFO step:  Lambda0=2.491248874D-11 Lambda= 0.00000000D+00.
 Linear search not attempted -- option 19 set.
 Iteration  1 RMS(Cart)=  0.00001598 RMS(Int)=  0.00000000
 Iteration  2 RMS(Cart)=  0.00000000 RMS(Int)=  0.00000000
 ClnCor:  largest displacement from symmetrization is 1.40D-15 for atom     3.
 Variable       Old X    -DE/DX   Delta X   Delta X   Delta X     New X
                                 (Linear)    (Quad)   (Total)
    R1        2.19869   0.00000   0.00000   0.00000   0.00000   2.19869
    R2        2.18234  -0.00001   0.00000  -0.00001  -0.00001   2.18232
    A1        1.37498   0.00000   0.00000  -0.00002  -0.00002   1.37497
         Item               Value     Threshold  Converged?
 Maximum Force            0.000006     0.000015     YES
 RMS     Force            0.000004     0.000010     YES
 Maximum Displacement     0.000017     0.000060     YES
 RMS     Displacement     0.000016     0.000040     YES
 Predicted change in Energy=-4.700984D-11
 Optimization completed.
    -- Stationary point found.
                           ----------------------------
                           !   Optimized Parameters   !
                           ! (Angstroms and Degrees)  !
 --------------------------                            --------------------------
 ! Name  Definition              Value          Derivative Info.                !
 --------------------------------------------------------------------------------
 ! R1    R(1,2)                  1.1635         -DE/DX =    0.0                 !
 ! R2    R(2,3)                  1.1548         -DE/DX =    0.0                 !
 ! A1    A(1,2,3)               78.7806         -DE/DX =    0.0                 !
 --------------------------------------------------------------------------------
 GradGradGradGradGradGradGradGradGradGradGradGradGradGradGradGradGradGrad

                          Input orientation:                          
 ---------------------------------------------------------------------
 Center     Atomic      Atomic             Coordinates (Angstroms)
 Number     Number       Type             X           Y           Z
 ---------------------------------------------------------------------
      1          7           0       -0.027651    0.000000   -0.091646
      2          6           0       -0.009049    0.000000    1.071704
      3          1           0        1.119988    0.000000    0.828929
 ---------------------------------------------------------------------
                    Distance matrix (angstroms):
                    1          2          3
     1  N    0.000000
     2  C    1.163499   0.000000
     3  H    1.471235   1.154844   0.000000
 Stoichiometry    CHN
 Framework group  CS[SG(CHN)]
 Deg. of freedom     3
 Full point group                 CS      NOp   2
 Largest Abelian subgroup         CS      NOp   2
 Largest concise Abelian subgroup C1      NOp   1
                         Standard orientation:                         
 ---------------------------------------------------------------------
 Center     Atomic      Atomic             Coordinates (Angstroms)
 Number     Number       Type             X           Y           Z
 ---------------------------------------------------------------------
      1          7           0        0.080912   -0.565700    0.000000
      2          6           0        0.080912    0.597799    0.000000
      3          1           0       -1.051862    0.373105    0.000000
 ---------------------------------------------------------------------
 Rotational constants (GHZ):    414.3866984     56.5925194     49.7924036

 **********************************************************************

            Population analysis using the SCF density.

 **********************************************************************

 Orbital symmetries:
       Occupied  (A') (A') (A') (A') (A') (A") (A')
       Virtual   (A') (A') (A") (A') (A') (A") (A') (A') (A') (A')
                 (A") (A') (A") (A') (A') (A") (A') (A') (A") (A')
                 (A") (A') (A') (A') (A") (A') (A") (A') (A') (A')
                 (A") (A') (A') (A') (A')
 The electronic state is 1-A'.
 Alpha  occ. eigenvalues --  -15.64640 -11.28282  -1.31010  -0.71419  -0.62188
 Alpha  occ. eigenvalues --   -0.53490  -0.49431
 Alpha virt. eigenvalues --    0.09718   0.17426   0.17784   0.35286   0.46058
 Alpha virt. eigenvalues --    0.58350   0.59570   0.71082   0.75307   0.86307
 Alpha virt. eigenvalues --    0.86439   1.02837   1.24863   1.26636   1.47993
 Alpha virt. eigenvalues --    1.64911   1.69927   1.91161   2.02944   2.22356
 Alpha virt. eigenvalues --    2.32887   2.42176   2.59868   2.70779   2.82446
 Alpha virt. eigenvalues --    2.98978   3.13267   3.21728   3.36433   3.65033
 Alpha virt. eigenvalues --    4.20961   4.27438   4.82319  25.12551  36.99562
          Condensed to atoms (all electrons):
               1          2          3
     1  N    6.538892   0.536835   0.062695
     2  C    0.536835   5.258014   0.278294
     3  H    0.062695   0.278294   0.447446
 Mulliken charges:
               1
     1  N   -0.138422
     2  C   -0.073142
     3  H    0.211565
 Sum of Mulliken charges =   0.00000
 Mulliken charges with hydrogens summed into heavy atoms:
               1
     1  N   -0.138422
     2  C    0.138422
 Electronic spatial extent (au):  <R**2>=             47.2488
 Charge=              0.0000 electrons
 Dipole moment (field-independent basis, Debye):
    X=             -1.4276    Y=              0.2199    Z=              0.0000  Tot=              1.4444
 Quadrupole moment (field-independent basis, Debye-Ang):
   XX=             -9.6839   YY=            -14.3062   ZZ=            -12.1107
   XY=             -0.6783   XZ=              0.0000   YZ=              0.0000
 Traceless Quadrupole moment (field-independent basis, Debye-Ang):
   XX=              2.3497   YY=             -2.2727   ZZ=             -0.0771
   XY=             -0.6783   XZ=              0.0000   YZ=              0.0000
 Octapole moment (field-independent basis, Debye-Ang**2):
  XXX=             -2.8193  YYY=             -2.9795  ZZZ=              0.0000  XYY=             -0.5313
  XXY=             -0.5129  XXZ=              0.0000  XZZ=             -0.3454  YZZ=             -0.5132
  YYZ=              0.0000  XYZ=              0.0000
 Hexadecapole moment (field-independent basis, Debye-Ang**3):
 XXXX=            -12.4905 YYYY=            -42.5004 ZZZZ=            -11.8387 XXXY=             -0.4945
 XXXZ=              0.0000 YYYX=              0.2781 YYYZ=              0.0000 ZZZX=              0.0000
 ZZZY=              0.0000 XXYY=             -8.7872 XXZZ=             -4.5249 YYZZ=             -8.5130
 XXYZ=              0.0000 YYXZ=              0.0000 ZZXY=              0.1481
 N-N= 2.436936334259D+01 E-N=-2.660075685057D+02  KE= 9.283608020934D+01
 Symmetry A'   KE= 8.998052213737D+01
 Symmetry A"   KE= 2.855558071968D+00
 B after Tr=     0.035909    0.000000    0.024884
         Rot=    0.999991    0.000000    0.004145    0.000000 Ang=   0.47 deg.
 Final structure in terms of initial Z-matrix:
 N
 C,1,B1
 H,2,B2,1,A1
      Variables:
 B1=1.16349908
 B2=1.15484412
 A1=78.78059145
 1\1\GINC-TC-NODE166\FTS\RHF\6-311G(d,p)\C1H1N1\MAXB2\27-Sep-2016\0\\# 
 opt=(calcfc,ts,tight) RHF/6-311g** gfp\\HNC-HCN\\0,1\N,-0.0315710178,0
 .,-0.0911458092\C,-0.0129693238,0.,1.0722045651\H,1.1160677936,0.,0.82
 94286786\\Version=ES64L-G09RevD.01\State=1-A'\HF=-92.8209863\RMSD=5.01
 8e-09\RMSF=3.866e-06\Dipole=0.562969,0.,0.0775359\Quadrupole=1.7622074
 ,-0.057302,-1.7049054,0.,0.4490781,0.\PG=CS [SG(C1H1N1)]\\@


 When I told the people of Northern Ireland that I was
 an atheist, a woman in the audience stood up and said,
 "Yes, but is it the God of the Catholics or the God
 of the Protestants in whom you don't believe?"
                               -- Quentin Crisp
 Job cpu time:       0 days  0 hours  0 minutes 33.4 seconds.
 File lengths (MBytes):  RWF=     82 Int=      0 D2E=      0 Chk=      2 Scr=      1
 Normal termination of Gaussian 09 at Tue Sep 27 11:41:56 2016.
