 Entering Gaussian System, Link 0=g09
 Initial command:
 /cluster/software/gaussian/gaussian-09-D.01/g09/l1.exe "/local/scratch/maxb2/Gau-1431.inp" -scrdir="/local/scratch/maxb2/"
 Entering Link 1 = /cluster/software/gaussian/gaussian-09-D.01/g09/l1.exe PID=      1432.
  
 Copyright (c) 1988,1990,1992,1993,1995,1998,2003,2009,2013,
            Gaussian, Inc.  All Rights Reserved.
  
 This is part of the Gaussian(R) 09 program.  It is based on
 the Gaussian(R) 03 system (copyright 2003, Gaussian, Inc.),
 the Gaussian(R) 98 system (copyright 1998, Gaussian, Inc.),
 the Gaussian(R) 94 system (copyright 1995, Gaussian, Inc.),
 the Gaussian 92(TM) system (copyright 1992, Gaussian, Inc.),
 the Gaussian 90(TM) system (copyright 1990, Gaussian, Inc.),
 the Gaussian 88(TM) system (copyright 1988, Gaussian, Inc.),
 the Gaussian 86(TM) system (copyright 1986, Carnegie Mellon
 University), and the Gaussian 82(TM) system (copyright 1983,
 Carnegie Mellon University). Gaussian is a federally registered
 trademark of Gaussian, Inc.
  
 This software contains proprietary and confidential information,
 including trade secrets, belonging to Gaussian, Inc.
  
 This software is provided under written license and may be
 used, copied, transmitted, or stored only in accord with that
 written license.
  
 The following legend is applicable only to US Government
 contracts under FAR:
  
                    RESTRICTED RIGHTS LEGEND
  
 Use, reproduction and disclosure by the US Government is
 subject to restrictions as set forth in subparagraphs (a)
 and (c) of the Commercial Computer Software - Restricted
 Rights clause in FAR 52.227-19.
  
 Gaussian, Inc.
 340 Quinnipiac St., Bldg. 40, Wallingford CT 06492
  
  
 ---------------------------------------------------------------
 Warning -- This program may not be used in any manner that
 competes with the business of Gaussian, Inc. or will provide
 assistance to any competitor of Gaussian, Inc.  The licensee
 of this program is prohibited from giving any competitor of
 Gaussian, Inc. access to this program.  By using this program,
 the user acknowledges that Gaussian, Inc. is engaged in the
 business of creating and licensing software in the field of
 computational chemistry and represents and warrants to the
 licensee that it is not a competitor of Gaussian, Inc. and that
 it will not use this program in any manner prohibited above.
 ---------------------------------------------------------------
  

 Cite this work as:
 Gaussian 09, Revision D.01,
 M. J. Frisch, G. W. Trucks, H. B. Schlegel, G. E. Scuseria, 
 M. A. Robb, J. R. Cheeseman, G. Scalmani, V. Barone, B. Mennucci, 
 G. A. Petersson, H. Nakatsuji, M. Caricato, X. Li, H. P. Hratchian, 
 A. F. Izmaylov, J. Bloino, G. Zheng, J. L. Sonnenberg, M. Hada, 
 M. Ehara, K. Toyota, R. Fukuda, J. Hasegawa, M. Ishida, T. Nakajima, 
 Y. Honda, O. Kitao, H. Nakai, T. Vreven, J. A. Montgomery, Jr., 
 J. E. Peralta, F. Ogliaro, M. Bearpark, J. J. Heyd, E. Brothers, 
 K. N. Kudin, V. N. Staroverov, T. Keith, R. Kobayashi, J. Normand, 
 K. Raghavachari, A. Rendell, J. C. Burant, S. S. Iyengar, J. Tomasi, 
 M. Cossi, N. Rega, J. M. Millam, M. Klene, J. E. Knox, J. B. Cross, 
 V. Bakken, C. Adamo, J. Jaramillo, R. Gomperts, R. E. Stratmann, 
 O. Yazyev, A. J. Austin, R. Cammi, C. Pomelli, J. W. Ochterski, 
 R. L. Martin, K. Morokuma, V. G. Zakrzewski, G. A. Voth, 
 P. Salvador, J. J. Dannenberg, S. Dapprich, A. D. Daniels, 
 O. Farkas, J. B. Foresman, J. V. Ortiz, J. Cioslowski, 
 and D. J. Fox, Gaussian, Inc., Wallingford CT, 2013.
 
 ******************************************
 Gaussian 09:  ES64L-G09RevD.01 24-Apr-2013
                 9-Oct-2016 
 ******************************************
 %mem=6GB
 %nprocshared=2
 Will use up to    2 processors via shared memory.
 %chk=Benzenerhf
 ------------------------------------------
 # opt freq rhf/6-311+g** geom=connectivity
 ------------------------------------------
 1/18=20,19=15,38=1,57=2/1,3;
 2/9=110,12=2,17=6,18=5,40=1/2;
 3/5=4,6=6,7=111,11=1,16=1,25=1,30=1,71=1,116=1/1,2,3;
 4//1;
 5/5=2,38=5/2;
 6/7=2,8=2,9=2,10=2,28=1/1;
 7//1,2,3,16;
 1/18=20,19=15/3(2);
 2/9=110/2;
 99//99;
 2/9=110/2;
 3/5=4,6=6,7=111,11=1,16=1,25=1,30=1,71=1,116=1/1,2,3;
 4/5=5,16=3,69=1/1;
 5/5=2,38=5/2;
 7//1,2,3,16;
 1/18=20,19=15/3(-5);
 2/9=110/2;
 6/7=2,8=2,9=2,10=2,19=2,28=1/1;
 99/9=1/99;
 -------------------
 Title Card Required
 -------------------
 Symbolic Z-matrix:
 Charge =  0 Multiplicity = 1
 C
 C                    1    B1
 C                    2    B2       1    A1
 C                    3    B3       2    A2       1    D1       0
 C                    4    B4       3    A3       2    D2       0
 C                    1    B5       2    A4       3    D3       0
 H                    1    B6       6    A5       5    D4       0
 H                    2    B7       1    A6       6    D5       0
 H                    3    B8       2    A7       1    D6       0
 H                    4    B9       3    A8       2    D7       0
 H                    5    B10      4    A9       3    D8       0
 H                    6    B11      1    A10      2    D9       0
       Variables:
  B1                    1.39516                  
  B2                    1.39471                  
  B3                    1.39543                  
  B4                    1.39483                  
  B5                    1.39483                  
  B6                    1.09961                  
  B7                    1.09966                  
  B8                    1.09968                  
  B9                    1.09968                  
  B10                   1.09976                  
  B11                   1.0996                   
  A1                  120.00863                  
  A2                  119.99416                  
  A3                  119.99399                  
  A4                  119.99846                  
  A5                  120.00432                  
  A6                  119.98077                  
  A7                  120.01279                  
  A8                  119.98114                  
  A9                  120.01134                  
  A10                 120.008                    
  D1                   -0.05684                  
  D2                    0.03411                  
  D3                    0.03235                  
  D4                 -179.97984                  
  D5                  179.95325                  
  D6                  179.96185                  
  D7                 -179.99644                  
  D8                 -179.99951                  
  D9                  179.98918                  
 

 GradGradGradGradGradGradGradGradGradGradGradGradGradGradGradGradGradGrad
 Berny optimization.
 Initialization pass.
                           ----------------------------
                           !    Initial Parameters    !
                           ! (Angstroms and Degrees)  !
 --------------------------                            --------------------------
 ! Name  Definition              Value          Derivative Info.                !
 --------------------------------------------------------------------------------
 ! R1    R(1,2)                  1.3952         estimate D2E/DX2                !
 ! R2    R(1,6)                  1.3948         estimate D2E/DX2                !
 ! R3    R(1,7)                  1.0996         estimate D2E/DX2                !
 ! R4    R(2,3)                  1.3947         estimate D2E/DX2                !
 ! R5    R(2,8)                  1.0997         estimate D2E/DX2                !
 ! R6    R(3,4)                  1.3954         estimate D2E/DX2                !
 ! R7    R(3,9)                  1.0997         estimate D2E/DX2                !
 ! R8    R(4,5)                  1.3948         estimate D2E/DX2                !
 ! R9    R(4,10)                 1.0997         estimate D2E/DX2                !
 ! R10   R(5,6)                  1.3951         estimate D2E/DX2                !
 ! R11   R(5,11)                 1.0998         estimate D2E/DX2                !
 ! R12   R(6,12)                 1.0996         estimate D2E/DX2                !
 ! A1    A(2,1,6)              119.9985         estimate D2E/DX2                !
 ! A2    A(2,1,7)              119.9972         estimate D2E/DX2                !
 ! A3    A(6,1,7)              120.0043         estimate D2E/DX2                !
 ! A4    A(1,2,3)              120.0086         estimate D2E/DX2                !
 ! A5    A(1,2,8)              119.9808         estimate D2E/DX2                !
 ! A6    A(3,2,8)              120.0106         estimate D2E/DX2                !
 ! A7    A(2,3,4)              119.9942         estimate D2E/DX2                !
 ! A8    A(2,3,9)              120.0128         estimate D2E/DX2                !
 ! A9    A(4,3,9)              119.993          estimate D2E/DX2                !
 ! A10   A(3,4,5)              119.994          estimate D2E/DX2                !
 ! A11   A(3,4,10)             119.9811         estimate D2E/DX2                !
 ! A12   A(5,4,10)             120.0249         estimate D2E/DX2                !
 ! A13   A(4,5,6)              120.0047         estimate D2E/DX2                !
 ! A14   A(4,5,11)             120.0113         estimate D2E/DX2                !
 ! A15   A(6,5,11)             119.984          estimate D2E/DX2                !
 ! A16   A(1,6,5)              120.0            estimate D2E/DX2                !
 ! A17   A(1,6,12)             120.008          estimate D2E/DX2                !
 ! A18   A(5,6,12)             119.992          estimate D2E/DX2                !
 ! D1    D(6,1,2,3)              0.0323         estimate D2E/DX2                !
 ! D2    D(6,1,2,8)            179.9532         estimate D2E/DX2                !
 ! D3    D(7,1,2,3)           -179.9729         estimate D2E/DX2                !
 ! D4    D(7,1,2,8)             -0.052          estimate D2E/DX2                !
 ! D5    D(2,1,6,5)              0.0149         estimate D2E/DX2                !
 ! D6    D(2,1,6,12)           179.9892         estimate D2E/DX2                !
 ! D7    D(7,1,6,5)           -179.9798         estimate D2E/DX2                !
 ! D8    D(7,1,6,12)            -0.0056         estimate D2E/DX2                !
 ! D9    D(1,2,3,4)             -0.0568         estimate D2E/DX2                !
 ! D10   D(1,2,3,9)            179.9619         estimate D2E/DX2                !
 ! D11   D(8,2,3,4)           -179.9777         estimate D2E/DX2                !
 ! D12   D(8,2,3,9)              0.041          estimate D2E/DX2                !
 ! D13   D(2,3,4,5)              0.0341         estimate D2E/DX2                !
 ! D14   D(2,3,4,10)          -179.9964         estimate D2E/DX2                !
 ! D15   D(9,3,4,5)           -179.9846         estimate D2E/DX2                !
 ! D16   D(9,3,4,10)            -0.0151         estimate D2E/DX2                !
 ! D17   D(3,4,5,6)              0.0131         estimate D2E/DX2                !
 ! D18   D(3,4,5,11)          -179.9995         estimate D2E/DX2                !
 ! D19   D(10,4,5,6)          -179.9563         estimate D2E/DX2                !
 ! D20   D(10,4,5,11)            0.0311         estimate D2E/DX2                !
 ! D21   D(4,5,6,1)             -0.0376         estimate D2E/DX2                !
 ! D22   D(4,5,6,12)           179.9881         estimate D2E/DX2                !
 ! D23   D(11,5,6,1)           179.975          estimate D2E/DX2                !
 ! D24   D(11,5,6,12)            0.0007         estimate D2E/DX2                !
 --------------------------------------------------------------------------------
 Trust Radius=3.00D-01 FncErr=1.00D-07 GrdErr=1.00D-07
 Number of steps in this run=     64 maximum allowed number of steps=    100.
 GradGradGradGradGradGradGradGradGradGradGradGradGradGradGradGradGradGrad

                          Input orientation:                          
 ---------------------------------------------------------------------
 Center     Atomic      Atomic             Coordinates (Angstroms)
 Number     Number       Type             X           Y           Z
 ---------------------------------------------------------------------
      1          6           0        0.000000    0.000000    0.000000
      2          6           0        0.000000    0.000000    1.395160
      3          6           0        1.207751    0.000000    2.092698
      4          6           0        2.416260   -0.001199    1.395044
      5          6           0        2.416182   -0.001678    0.000219
      6          6           0        1.207976   -0.000682   -0.697382
      7          1           0       -0.952317    0.000450   -0.549759
      8          1           0       -0.952513    0.001315    1.944668
      9          1           0        1.207831    0.000634    3.192378
     10          1           0        3.368403   -0.001258    1.945244
     11          1           0        3.368463   -0.002631   -0.549903
     12          1           0        1.208159   -0.000862   -1.796986
 ---------------------------------------------------------------------
                    Distance matrix (angstroms):
                    1          2          3          4          5
     1  C    0.000000
     2  C    1.395160   0.000000
     3  C    2.416205   1.394712   0.000000
     4  C    2.790065   2.416260   1.395427   0.000000
     5  C    2.416183   2.789946   2.416356   1.394825   0.000000
     6  C    1.394829   2.416183   2.790080   2.416236   1.395138
     7  H    1.099610   2.165553   3.412986   3.889675   3.413102
     8  H    2.165414   1.099655   2.165330   3.413316   3.889601
     9  H    3.413229   2.165375   1.099680   2.165806   3.413209
    10  H    3.889745   3.413024   2.165678   1.099680   2.165606
    11  H    3.413055   3.889707   3.413506   2.165528   1.099761
    12  H    2.165365   3.413128   3.889684   3.412999   2.165471
                    6          7          8          9         10
     6  C    0.000000
     7  H    2.165331   0.000000
     8  H    3.412938   2.494427   0.000000
     9  H    3.889760   4.320860   2.494768   0.000000
    10  H    3.413344   4.989355   4.320917   2.494678   0.000000
    11  H    2.165516   4.320781   4.989362   4.321228   2.495147
    12  H    1.099604   2.494641   4.320704   4.989364   4.320988
                   11         12
    11  H    0.000000
    12  H    2.494420   0.000000
 Stoichiometry    C6H6
 Framework group  C1[X(C6H6)]
 Deg. of freedom    30
 Full point group                 C1      NOp   1
 Largest Abelian subgroup         C1      NOp   1
 Largest concise Abelian subgroup C1      NOp   1
                         Standard orientation:                         
 ---------------------------------------------------------------------
 Center     Atomic      Atomic             Coordinates (Angstroms)
 Number     Number       Type             X           Y           Z
 ---------------------------------------------------------------------
      1          6           0       -0.176732   -1.383750    0.000005
      2          6           0        1.110097   -0.844730   -0.000364
      3          6           0        1.286859    0.538735    0.000194
      4          6           0        0.176468    1.383868   -0.000075
      5          6           0       -1.110022    0.844906   -0.000185
      6          6           0       -1.286665   -0.539004    0.000252
      7          1           0       -0.315876   -2.474521    0.000015
      8          1           0        1.984941   -1.510981    0.000218
      9          1           0        2.301120    0.963670    0.000537
     10          1           0        0.316086    2.474649    0.000306
     11          1           0       -1.985342    1.510705   -0.000405
     12          1           0       -2.300958   -0.963667    0.000364
 ---------------------------------------------------------------------
 Rotational constants (GHZ):      5.6865650      5.6862639      2.8432074
 Standard basis: 6-311+G(d,p) (5D, 7F)
 There are   174 symmetry adapted cartesian basis functions of A   symmetry.
 There are   168 symmetry adapted basis functions of A   symmetry.
   168 basis functions,   264 primitive gaussians,   174 cartesian basis functions
    21 alpha electrons       21 beta electrons
       nuclear repulsion energy       203.0307483972 Hartrees.
 NAtoms=   12 NActive=   12 NUniq=   12 SFac= 1.00D+00 NAtFMM=   60 NAOKFM=F Big=F
 Integral buffers will be    131072 words long.
 Raffenetti 1 integral format.
 Two-electron integral symmetry is turned on.
 One-electron integrals computed using PRISM.
 NBasis=   168 RedAO= T EigKep=  4.17D-06  NBF=   168
 NBsUse=   168 1.00D-06 EigRej= -1.00D+00 NBFU=   168
 ExpMin= 4.38D-02 ExpMax= 4.56D+03 ExpMxC= 6.82D+02 IAcc=2 IRadAn=         4 AccDes= 0.00D+00
 Harris functional with IExCor=  205 and IRadAn=       4 diagonalized for initial guess.
 HarFok:  IExCor=  205 AccDes= 0.00D+00 IRadAn=         4 IDoV= 1 UseB2=F ITyADJ=14
 ICtDFT=  3500011 ScaDFX=  1.000000  1.000000  1.000000  1.000000
 FoFCou: FMM=F IPFlag=           0 FMFlag=      100000 FMFlg1=           0
         NFxFlg=           0 DoJE=T BraDBF=F KetDBF=T FulRan=T
         wScrn=  0.000000 ICntrl=     500 IOpCl=  0 I1Cent=   200000004 NGrid=           0
         NMat0=    1 NMatS0=      1 NMatT0=    0 NMatD0=    1 NMtDS0=    0 NMtDT0=    0
 Petite list used in FoFCou.
 Keep R1 ints in memory in canonical form, NReq=103561624.
 Requested convergence on RMS density matrix=1.00D-08 within 128 cycles.
 Requested convergence on MAX density matrix=1.00D-06.
 Requested convergence on             energy=1.00D-06.
 No special actions if energy rises.
 SCF Done:  E(RHF) =  -230.753932392     A.U. after   10 cycles
            NFock= 10  Conv=0.99D-08     -V/T= 2.0019

 **********************************************************************

            Population analysis using the SCF density.

 **********************************************************************

 Orbital symmetries:
       Occupied  (A) (A) (A) (A) (A) (A) (A) (A) (A) (A) (A) (A)
                 (A) (A) (A) (A) (A) (A) (A) (A) (A)
       Virtual   (A) (A) (A) (A) (A) (A) (A) (A) (A) (A) (A) (A)
                 (A) (A) (A) (A) (A) (A) (A) (A) (A) (A) (A) (A)
                 (A) (A) (A) (A) (A) (A) (A) (A) (A) (A) (A) (A)
                 (A) (A) (A) (A) (A) (A) (A) (A) (A) (A) (A) (A)
                 (A) (A) (A) (A) (A) (A) (A) (A) (A) (A) (A) (A)
                 (A) (A) (A) (A) (A) (A) (A) (A) (A) (A) (A) (A)
                 (A) (A) (A) (A) (A) (A) (A) (A) (A) (A) (A) (A)
                 (A) (A) (A) (A) (A) (A) (A) (A) (A) (A) (A) (A)
                 (A) (A) (A) (A) (A) (A) (A) (A) (A) (A) (A) (A)
                 (A) (A) (A) (A) (A) (A) (A) (A) (A) (A) (A) (A)
                 (A) (A) (A) (A) (A) (A) (A) (A) (A) (A) (A) (A)
                 (A) (A) (A) (A) (A) (A) (A) (A) (A) (A) (A) (A)
                 (A) (A) (A)
 The electronic state is 1-A.
 Alpha  occ. eigenvalues --  -11.24159 -11.24103 -11.24102 -11.23980 -11.23979
 Alpha  occ. eigenvalues --  -11.23919  -1.15210  -1.01528  -1.01523  -0.82271
 Alpha  occ. eigenvalues --   -0.82266  -0.70642  -0.63844  -0.62134  -0.58646
 Alpha  occ. eigenvalues --   -0.58644  -0.50258  -0.49401  -0.49392  -0.33765
 Alpha  occ. eigenvalues --   -0.33760
 Alpha virt. eigenvalues --    0.07026   0.07931   0.07932   0.09787   0.09787
 Alpha virt. eigenvalues --    0.10886   0.10890   0.12513   0.12929   0.15252
 Alpha virt. eigenvalues --    0.15252   0.16228   0.16260   0.19862   0.19862
 Alpha virt. eigenvalues --    0.20906   0.21604   0.21606   0.22619   0.22619
 Alpha virt. eigenvalues --    0.24993   0.24993   0.27249   0.27660   0.27660
 Alpha virt. eigenvalues --    0.30296   0.30880   0.31259   0.31260   0.34678
 Alpha virt. eigenvalues --    0.34679   0.36824   0.36948   0.48232   0.48237
 Alpha virt. eigenvalues --    0.48756   0.48764   0.55345   0.60360   0.69007
 Alpha virt. eigenvalues --    0.70578   0.70580   0.71490   0.73519   0.73524
 Alpha virt. eigenvalues --    0.75039   0.75715   0.75717   0.79450   0.81892
 Alpha virt. eigenvalues --    0.81895   0.88502   0.92026   0.92032   0.92082
 Alpha virt. eigenvalues --    0.92088   0.93151   0.97078   1.00429   1.00429
 Alpha virt. eigenvalues --    1.00920   1.00921   1.08085   1.08092   1.09918
 Alpha virt. eigenvalues --    1.12927   1.16811   1.20764   1.20767   1.24829
 Alpha virt. eigenvalues --    1.32190   1.32191   1.38982   1.38985   1.49692
 Alpha virt. eigenvalues --    1.52097   1.71224   1.76384   1.76384   1.77387
 Alpha virt. eigenvalues --    1.82120   1.83983   1.83986   1.90368   1.90370
 Alpha virt. eigenvalues --    1.92808   1.92814   1.97912   2.04287   2.04292
 Alpha virt. eigenvalues --    2.08131   2.08141   2.11404   2.23486   2.23500
 Alpha virt. eigenvalues --    2.23926   2.24249   2.24251   2.26693   2.33436
 Alpha virt. eigenvalues --    2.33446   2.36525   2.36532   2.62213   2.66092
 Alpha virt. eigenvalues --    2.70236   2.71223   2.71229   2.74421   2.74425
 Alpha virt. eigenvalues --    2.93503   2.93516   2.94206   2.98778   3.01717
 Alpha virt. eigenvalues --    3.01717   3.05311   3.05316   3.05578   3.07794
 Alpha virt. eigenvalues --    3.18855   3.18857   3.23851   3.27782   3.27789
 Alpha virt. eigenvalues --    3.29091   3.29092   3.47940   3.54458   3.76940
 Alpha virt. eigenvalues --    3.76962   3.89094   3.89108   3.90066   4.04002
 Alpha virt. eigenvalues --    4.36649   4.36657   4.46979   4.55113   4.55116
 Alpha virt. eigenvalues --    5.27484  24.71274  25.10648  25.10688  25.24246
 Alpha virt. eigenvalues --   25.24290  25.35196
          Condensed to atoms (all electrons):
               1          2          3          4          5          6
     1  C    4.795833   0.560746  -0.045503  -0.056965  -0.045513   0.561298
     2  C    0.560746   4.795699   0.561330  -0.045509  -0.056932  -0.045538
     3  C   -0.045503   0.561330   4.795849   0.560718  -0.045495  -0.056937
     4  C   -0.056965  -0.045509   0.560718   4.795897   0.561311  -0.045507
     5  C   -0.045513  -0.056932  -0.045495   0.561311   4.795785   0.560763
     6  C    0.561298  -0.045538  -0.056937  -0.045507   0.560763   4.795755
     7  H    0.399206  -0.008986  -0.007650   0.002162  -0.007651  -0.008958
     8  H   -0.009010   0.399177  -0.008927  -0.007640   0.002166  -0.007656
     9  H   -0.007662  -0.008925   0.399169  -0.008986  -0.007651   0.002169
    10  H    0.002168  -0.007662  -0.009014   0.399160  -0.008890  -0.007655
    11  H   -0.007670   0.002176  -0.007658  -0.008881   0.399114  -0.008984
    12  H   -0.008963  -0.007645   0.002160  -0.007641  -0.009008   0.399218
               7          8          9         10         11         12
     1  C    0.399206  -0.009010  -0.007662   0.002168  -0.007670  -0.008963
     2  C   -0.008986   0.399177  -0.008925  -0.007662   0.002176  -0.007645
     3  C   -0.007650  -0.008927   0.399169  -0.009014  -0.007658   0.002160
     4  C    0.002162  -0.007640  -0.008986   0.399160  -0.008881  -0.007641
     5  C   -0.007651   0.002166  -0.007651  -0.008890   0.399114  -0.009008
     6  C   -0.008958  -0.007656   0.002169  -0.007655  -0.008984   0.399218
     7  H    0.503670  -0.004792  -0.000115   0.000027  -0.000115  -0.004793
     8  H   -0.004792   0.503694  -0.004794  -0.000115   0.000027  -0.000115
     9  H   -0.000115  -0.004794   0.503656  -0.004785  -0.000115   0.000027
    10  H    0.000027  -0.000115  -0.004785   0.503644  -0.004790  -0.000115
    11  H   -0.000115   0.000027  -0.000115  -0.004790   0.503684  -0.004792
    12  H   -0.004793  -0.000115   0.000027  -0.000115  -0.004792   0.503673
 Mulliken charges:
               1
     1  C   -0.137965
     2  C   -0.137932
     3  C   -0.138041
     4  C   -0.138120
     5  C   -0.137999
     6  C   -0.137966
     7  H    0.137994
     8  H    0.137988
     9  H    0.138014
    10  H    0.138027
    11  H    0.138005
    12  H    0.137995
 Sum of Mulliken charges =   0.00000
 Mulliken charges with hydrogens summed into heavy atoms:
               1
     1  C    0.000030
     2  C    0.000056
     3  C   -0.000027
     4  C   -0.000093
     5  C    0.000006
     6  C    0.000029
 Electronic spatial extent (au):  <R**2>=            461.8986
 Charge=              0.0000 electrons
 Dipole moment (field-independent basis, Debye):
    X=              0.0000    Y=             -0.0002    Z=              0.0009  Tot=              0.0009
 Quadrupole moment (field-independent basis, Debye-Ang):
   XX=            -31.9775   YY=            -31.9779   ZZ=            -41.4547
   XY=              0.0012   XZ=              0.0021   YZ=             -0.0001
 Traceless Quadrupole moment (field-independent basis, Debye-Ang):
   XX=              3.1592   YY=              3.1588   ZZ=             -6.3181
   XY=              0.0012   XZ=              0.0021   YZ=             -0.0001
 Octapole moment (field-independent basis, Debye-Ang**2):
  XXX=             -0.0064  YYY=             -0.0042  ZZZ=              0.0016  XYY=              0.0066
  XXY=              0.0027  XXZ=              0.0049  XZZ=             -0.0003  YZZ=             -0.0015
  YYZ=              0.0035  XYZ=              0.0023
 Hexadecapole moment (field-independent basis, Debye-Ang**3):
 XXXX=           -272.5400 YYYY=           -272.5281 ZZZZ=            -52.3756 XXXY=              0.0045
 XXXZ=              0.0122 YYYX=              0.0073 YYYZ=              0.0032 ZZZX=              0.0032
 ZZZY=             -0.0001 XXYY=            -90.8466 XXZZ=            -66.8006 YYZZ=            -66.7989
 XXYZ=             -0.0038 YYXZ=              0.0060 ZZXY=              0.0000
 N-N= 2.030307483972D+02 E-N=-9.427389354990D+02  KE= 2.303201138274D+02
 Calling FoFJK, ICntrl=      2127 FMM=F ISym2X=0 I1Cent= 0 IOpClX= 0 NMat=1 NMatS=1 NMatT=0.
 ***** Axes restored to original set *****
 -------------------------------------------------------------------
 Center     Atomic                   Forces (Hartrees/Bohr)
 Number     Number              X              Y              Z
 -------------------------------------------------------------------
      1        6          -0.006273271   -0.000021038   -0.003565779
      2        6          -0.006449835    0.000152567    0.003523852
      3        6           0.000354630   -0.000064913    0.007177609
      4        6           0.006040485    0.000044419    0.003844349
      5        6           0.006346391    0.000020289   -0.003725693
      6        6           0.000052885   -0.000069680   -0.007226312
      7        1           0.014606852   -0.000001024    0.008433607
      8        1           0.014641263   -0.000062555   -0.008418868
      9        1          -0.000008012   -0.000011510   -0.016914223
     10        1          -0.014626406   -0.000019236   -0.008495501
     11        1          -0.014672983    0.000023044    0.008505317
     12        1          -0.000012001    0.000009635    0.016861643
 -------------------------------------------------------------------
 Cartesian Forces:  Max     0.016914223 RMS     0.007507950

 GradGradGradGradGradGradGradGradGradGradGradGradGradGradGradGradGradGrad
 Berny optimization.
 FormGI is forming the generalized inverse of G from B-inverse, IUseBI=4.
 Internal  Forces:  Max     0.016959855 RMS     0.006488204
 Search for a local minimum.
 Step number   1 out of a maximum of   64
 All quantities printed in internal units (Hartrees-Bohrs-Radians)
 Mixed Optimization -- RFO/linear search
 Second derivative matrix not updated -- first step.
 ITU=  0
     Eigenvalues ---    0.02152   0.02153   0.02154   0.02155   0.02155
     Eigenvalues ---    0.02155   0.02155   0.02156   0.02157   0.16000
     Eigenvalues ---    0.16000   0.16000   0.16000   0.16000   0.16000
     Eigenvalues ---    0.22000   0.22000   0.22000   0.33709   0.33718
     Eigenvalues ---    0.33718   0.33720   0.33725   0.33726   0.42106
     Eigenvalues ---    0.42123   0.46412   0.46453   0.46466   0.46497
 RFO step:  Lambda=-6.17979862D-03 EMin= 2.15189818D-02
 Linear search not attempted -- first point.
 Iteration  1 RMS(Cart)=  0.02422931 RMS(Int)=  0.00000541
 Iteration  2 RMS(Cart)=  0.00000426 RMS(Int)=  0.00000015
 Iteration  3 RMS(Cart)=  0.00000000 RMS(Int)=  0.00000015
 Variable       Old X    -DE/DX   Delta X   Delta X   Delta X     New X
                                 (Linear)    (Quad)   (Total)
    R1        2.63647  -0.00967   0.00000  -0.02055  -0.02055   2.61592
    R2        2.63584  -0.00960   0.00000  -0.02037  -0.02037   2.61548
    R3        2.07796  -0.01687   0.00000  -0.04911  -0.04911   2.02885
    R4        2.63562  -0.00950   0.00000  -0.02017  -0.02017   2.61546
    R5        2.07805  -0.01689   0.00000  -0.04918  -0.04918   2.02886
    R6        2.63697  -0.00989   0.00000  -0.02106  -0.02106   2.61592
    R7        2.07809  -0.01691   0.00000  -0.04926  -0.04926   2.02883
    R8        2.63584  -0.00961   0.00000  -0.02041  -0.02041   2.61543
    R9        2.07809  -0.01691   0.00000  -0.04926  -0.04926   2.02883
   R10        2.63643  -0.00965   0.00000  -0.02050  -0.02050   2.61593
   R11        2.07825  -0.01696   0.00000  -0.04941  -0.04941   2.02884
   R12        2.07795  -0.01686   0.00000  -0.04910  -0.04910   2.02885
    A1        2.09437  -0.00001   0.00000   0.00000   0.00000   2.09436
    A2        2.09435   0.00000   0.00000   0.00000   0.00000   2.09434
    A3        2.09447   0.00001   0.00000   0.00001   0.00001   2.09448
    A4        2.09455  -0.00003   0.00000  -0.00013  -0.00013   2.09442
    A5        2.09406   0.00004   0.00000   0.00022   0.00022   2.09427
    A6        2.09458  -0.00001   0.00000  -0.00008  -0.00009   2.09449
    A7        2.09429   0.00003   0.00000   0.00011   0.00011   2.09440
    A8        2.09462  -0.00002   0.00000  -0.00010  -0.00010   2.09452
    A9        2.09427  -0.00001   0.00000  -0.00001  -0.00001   2.09426
   A10        2.09429   0.00003   0.00000   0.00008   0.00008   2.09437
   A11        2.09407   0.00002   0.00000   0.00020   0.00020   2.09426
   A12        2.09483  -0.00005   0.00000  -0.00027  -0.00027   2.09455
   A13        2.09448  -0.00001   0.00000  -0.00005  -0.00005   2.09443
   A14        2.09459  -0.00002   0.00000  -0.00013  -0.00013   2.09446
   A15        2.09411   0.00003   0.00000   0.00018   0.00018   2.09430
   A16        2.09440  -0.00001   0.00000   0.00000   0.00000   2.09439
   A17        2.09453  -0.00001   0.00000  -0.00006  -0.00006   2.09448
   A18        2.09426   0.00001   0.00000   0.00006   0.00006   2.09431
    D1        0.00056  -0.00002   0.00000  -0.00066  -0.00066  -0.00009
    D2        3.14078   0.00002   0.00000   0.00084   0.00084  -3.14157
    D3       -3.14112  -0.00002   0.00000  -0.00062  -0.00062   3.14144
    D4       -0.00091   0.00002   0.00000   0.00087   0.00087  -0.00004
    D5        0.00026  -0.00001   0.00000  -0.00033  -0.00033  -0.00007
    D6        3.14140   0.00001   0.00000   0.00026   0.00026  -3.14152
    D7       -3.14124  -0.00001   0.00000  -0.00036  -0.00036   3.14158
    D8       -0.00010   0.00001   0.00000   0.00023   0.00023   0.00013
    D9       -0.00099   0.00003   0.00000   0.00117   0.00117   0.00017
   D10        3.14093   0.00002   0.00000   0.00077   0.00077  -3.14149
   D11       -3.14120  -0.00001   0.00000  -0.00033  -0.00032  -3.14153
   D12        0.00072  -0.00002   0.00000  -0.00072  -0.00072  -0.00001
   D13        0.00060  -0.00002   0.00000  -0.00069  -0.00069  -0.00009
   D14       -3.14153   0.00000   0.00000  -0.00017  -0.00017   3.14149
   D15       -3.14132  -0.00001   0.00000  -0.00029  -0.00029   3.14157
   D16       -0.00026   0.00001   0.00000   0.00023   0.00023  -0.00003
   D17        0.00023  -0.00001   0.00000  -0.00030  -0.00030  -0.00007
   D18       -3.14158   0.00000   0.00000   0.00010   0.00010  -3.14148
   D19       -3.14083  -0.00002   0.00000  -0.00082  -0.00082   3.14153
   D20        0.00054  -0.00001   0.00000  -0.00042  -0.00042   0.00012
   D21       -0.00066   0.00002   0.00000   0.00081   0.00081   0.00015
   D22        3.14138   0.00001   0.00000   0.00022   0.00022  -3.14158
   D23        3.14116   0.00001   0.00000   0.00041   0.00041   3.14156
   D24        0.00001  -0.00001   0.00000  -0.00018  -0.00018  -0.00017
         Item               Value     Threshold  Converged?
 Maximum Force            0.016960     0.000450     NO 
 RMS     Force            0.006488     0.000300     NO 
 Maximum Displacement     0.069914     0.001800     NO 
 RMS     Displacement     0.024229     0.001200     NO 
 Predicted change in Energy=-3.142639D-03
 GradGradGradGradGradGradGradGradGradGradGradGradGradGradGradGradGradGrad

                          Input orientation:                          
 ---------------------------------------------------------------------
 Center     Atomic      Atomic             Coordinates (Angstroms)
 Number     Number       Type             X           Y           Z
 ---------------------------------------------------------------------
      1          6           0        0.009345    0.000063    0.005406
      2          6           0        0.009308    0.000556    1.389691
      3          6           0        1.207889   -0.000093    2.081769
      4          6           0        2.406753   -0.001026    1.389695
      5          6           0        2.406794   -0.001424    0.005670
      6          6           0        1.208008   -0.000970   -0.686549
      7          1           0       -0.920452    0.000426   -0.531381
      8          1           0       -0.920560    0.001340    1.926368
      9          1           0        1.207972    0.000192    3.155381
     10          1           0        3.336426   -0.001433    1.926676
     11          1           0        3.336552   -0.002252   -0.531172
     12          1           0        1.208161   -0.001290   -1.760172
 ---------------------------------------------------------------------
                    Distance matrix (angstroms):
                    1          2          3          4          5
     1  C    0.000000
     2  C    1.384285   0.000000
     3  C    2.397455   1.384041   0.000000
     4  C    2.768361   2.397446   1.384284   0.000000
     5  C    2.397449   2.768295   2.397407   1.384025   0.000000
     6  C    1.384050   2.397427   2.768318   2.397453   1.384288
     7  H    1.073621   2.134238   3.370221   3.841982   3.370310
     8  H    2.134203   1.073628   2.134115   3.370316   3.841923
     9  H    3.370319   2.134118   1.073612   2.134180   3.370142
    10  H    3.841973   3.370174   2.134181   1.073611   2.134123
    11  H    3.370197   3.841911   3.370263   2.134071   1.073616
    12  H    2.134110   3.370295   3.841941   3.370206   2.134225
                    6          7          8          9         10
     6  C    0.000000
     7  H    2.134109   0.000000
     8  H    3.370184   2.457749   0.000000
     9  H    3.841930   4.257042   2.457870   0.000000
    10  H    3.370328   4.915594   4.256987   2.457648   0.000000
    11  H    2.134208   4.257005   4.915538   4.256939   2.457848
    12  H    1.073623   2.457829   4.256998   4.915553   4.257037
                   11         12
    11  H    0.000000
    12  H    2.457741   0.000000
 Stoichiometry    C6H6
 Framework group  C1[X(C6H6)]
 Deg. of freedom    30
 Full point group                 C1      NOp   1
 Largest Abelian subgroup         C1      NOp   1
 Largest concise Abelian subgroup C1      NOp   1
                         Standard orientation:                         
 ---------------------------------------------------------------------
 Center     Atomic      Atomic             Coordinates (Angstroms)
 Number     Number       Type             X           Y           Z
 ---------------------------------------------------------------------
      1          6           0       -1.364873   -0.230406    0.000002
      2          6           0       -0.482760   -1.297234    0.000054
      3          6           0        0.881961   -1.066785   -0.000049
      4          6           0        1.364843    0.230546    0.000006
      5          6           0        0.482898    1.297176    0.000049
      6          6           0       -0.882070    1.066705   -0.000044
      7          1           0       -2.423494   -0.409247   -0.000060
      8          1           0       -0.857366   -2.303388    0.000071
      9          1           0        1.566189   -1.894115   -0.000106
     10          1           0        2.423492    0.409158    0.000024
     11          1           0        0.857315    2.303388   -0.000013
     12          1           0       -1.566123    1.894194   -0.000022
 ---------------------------------------------------------------------
 Rotational constants (GHZ):      5.7933168      5.7931004      2.8966043
 Standard basis: 6-311+G(d,p) (5D, 7F)
 There are   174 symmetry adapted cartesian basis functions of A   symmetry.
 There are   168 symmetry adapted basis functions of A   symmetry.
   168 basis functions,   264 primitive gaussians,   174 cartesian basis functions
    21 alpha electrons       21 beta electrons
       nuclear repulsion energy       205.1212833714 Hartrees.
 NAtoms=   12 NActive=   12 NUniq=   12 SFac= 1.00D+00 NAtFMM=   60 NAOKFM=F Big=F
 Integral buffers will be    131072 words long.
 Raffenetti 1 integral format.
 Two-electron integral symmetry is turned on.
 One-electron integrals computed using PRISM.
 NBasis=   168 RedAO= T EigKep=  3.84D-06  NBF=   168
 NBsUse=   168 1.00D-06 EigRej= -1.00D+00 NBFU=   168
 Initial guess from the checkpoint file:  "Benzenerhf.chk"
 B after Tr=     0.000000    0.000000    0.000000
         Rot=    0.803126    0.000000    0.000000    0.595809 Ang=  73.14 deg.
 ExpMin= 4.38D-02 ExpMax= 4.56D+03 ExpMxC= 6.82D+02 IAcc=2 IRadAn=         4 AccDes= 0.00D+00
 Harris functional with IExCor=  205 and IRadAn=       4 diagonalized for initial guess.
 HarFok:  IExCor=  205 AccDes= 0.00D+00 IRadAn=         4 IDoV= 1 UseB2=F ITyADJ=14
 ICtDFT=  3500011 ScaDFX=  1.000000  1.000000  1.000000  1.000000
 FoFCou: FMM=F IPFlag=           0 FMFlag=      100000 FMFlg1=           0
         NFxFlg=           0 DoJE=T BraDBF=F KetDBF=T FulRan=T
         wScrn=  0.000000 ICntrl=     500 IOpCl=  0 I1Cent=   200000004 NGrid=           0
         NMat0=    1 NMatS0=      1 NMatT0=    0 NMatD0=    1 NMtDS0=    0 NMtDT0=    0
 Petite list used in FoFCou.
 Keep R1 ints in memory in canonical form, NReq=103561624.
 Requested convergence on RMS density matrix=1.00D-08 within 128 cycles.
 Requested convergence on MAX density matrix=1.00D-06.
 Requested convergence on             energy=1.00D-06.
 No special actions if energy rises.
 SCF Done:  E(RHF) =  -230.756730989     A.U. after   11 cycles
            NFock= 11  Conv=0.22D-08     -V/T= 2.0001
 Calling FoFJK, ICntrl=      2127 FMM=F ISym2X=0 I1Cent= 0 IOpClX= 0 NMat=1 NMatS=1 NMatT=0.
 ***** Axes restored to original set *****
 -------------------------------------------------------------------
 Center     Atomic                   Forces (Hartrees/Bohr)
 Number     Number              X              Y              Z
 -------------------------------------------------------------------
      1        6          -0.000639900   -0.000002385   -0.000272273
      2        6          -0.000672197   -0.000013952    0.000273135
      3        6           0.000097943    0.000013523    0.000700296
      4        6           0.000543023    0.000000164    0.000445554
      5        6           0.000569363   -0.000018100   -0.000452266
      6        6           0.000088934    0.000016261   -0.000699249
      7        1          -0.001314737    0.000004594   -0.000762995
      8        1          -0.001308785    0.000001210    0.000766437
      9        1          -0.000012739    0.000001747    0.001527922
     10        1           0.001329823   -0.000002841    0.000751936
     11        1           0.001323714    0.000005285   -0.000759388
     12        1          -0.000004441   -0.000005505   -0.001519109
 -------------------------------------------------------------------
 Cartesian Forces:  Max     0.001527922 RMS     0.000686098

 GradGradGradGradGradGradGradGradGradGradGradGradGradGradGradGradGradGrad
 Berny optimization.
 Using GEDIIS/GDIIS optimizer.
 FormGI is forming the generalized inverse of G from B-inverse, IUseBI=4.
 Internal  Forces:  Max     0.002290864 RMS     0.000899328
 Search for a local minimum.
 Step number   2 out of a maximum of   64
 All quantities printed in internal units (Hartrees-Bohrs-Radians)
 Mixed Optimization -- En-DIIS/RFO-DIIS
 Update second derivatives using D2CorX and points    1    2
 DE= -2.80D-03 DEPred=-3.14D-03 R= 8.91D-01
 TightC=F SS=  1.41D+00  RLast= 1.31D-01 DXNew= 5.0454D-01 3.9194D-01
 Trust test= 8.91D-01 RLast= 1.31D-01 DXMaxT set to 3.92D-01
 ITU=  1  0
 Use linear search instead of GDIIS.
     Eigenvalues ---    0.02152   0.02153   0.02154   0.02155   0.02155
     Eigenvalues ---    0.02155   0.02155   0.02156   0.02157   0.16000
     Eigenvalues ---    0.16000   0.16000   0.16000   0.16000   0.16000
     Eigenvalues ---    0.22000   0.22000   0.22000   0.33710   0.33718
     Eigenvalues ---    0.33719   0.33723   0.33726   0.35215   0.42050
     Eigenvalues ---    0.42067   0.46440   0.46460   0.46467   0.50558
 RFO step:  Lambda=-1.60792358D-05 EMin= 2.15189890D-02
 Quartic linear search produced a step of -0.09930.
 Iteration  1 RMS(Cart)=  0.00290637 RMS(Int)=  0.00000011
 Iteration  2 RMS(Cart)=  0.00000009 RMS(Int)=  0.00000001
 Variable       Old X    -DE/DX   Delta X   Delta X   Delta X     New X
                                 (Linear)    (Quad)   (Total)
    R1        2.61592   0.00217   0.00204   0.00200   0.00404   2.61996
    R2        2.61548   0.00227   0.00202   0.00220   0.00423   2.61970
    R3        2.02885   0.00152   0.00488  -0.00135   0.00352   2.03237
    R4        2.61546   0.00227   0.00200   0.00223   0.00423   2.61969
    R5        2.02886   0.00152   0.00488  -0.00137   0.00352   2.03238
    R6        2.61592   0.00218   0.00209   0.00196   0.00405   2.61997
    R7        2.02883   0.00153   0.00489  -0.00135   0.00354   2.03238
    R8        2.61543   0.00229   0.00203   0.00224   0.00426   2.61969
    R9        2.02883   0.00153   0.00489  -0.00135   0.00354   2.03238
   R10        2.61593   0.00217   0.00204   0.00199   0.00403   2.61996
   R11        2.02884   0.00153   0.00491  -0.00137   0.00354   2.03238
   R12        2.02885   0.00152   0.00488  -0.00135   0.00352   2.03238
    A1        2.09436   0.00001   0.00000   0.00003   0.00003   2.09440
    A2        2.09434   0.00000   0.00000   0.00000   0.00000   2.09434
    A3        2.09448  -0.00001   0.00000  -0.00004  -0.00004   2.09444
    A4        2.09442   0.00000   0.00001  -0.00004  -0.00002   2.09439
    A5        2.09427   0.00001  -0.00002   0.00009   0.00007   2.09434
    A6        2.09449  -0.00001   0.00001  -0.00005  -0.00005   2.09445
    A7        2.09440   0.00000  -0.00001   0.00000  -0.00001   2.09440
    A8        2.09452  -0.00001   0.00001  -0.00008  -0.00007   2.09445
    A9        2.09426   0.00001   0.00000   0.00008   0.00008   2.09434
   A10        2.09437   0.00001  -0.00001   0.00004   0.00003   2.09440
   A11        2.09426   0.00001  -0.00002   0.00009   0.00007   2.09433
   A12        2.09455  -0.00002   0.00003  -0.00013  -0.00010   2.09446
   A13        2.09443  -0.00001   0.00000  -0.00004  -0.00004   2.09439
   A14        2.09446   0.00000   0.00001  -0.00002  -0.00001   2.09445
   A15        2.09430   0.00001  -0.00002   0.00006   0.00005   2.09434
   A16        2.09439   0.00000   0.00000   0.00000   0.00000   2.09440
   A17        2.09448  -0.00001   0.00001  -0.00004  -0.00003   2.09445
   A18        2.09431   0.00000  -0.00001   0.00003   0.00003   2.09434
    D1       -0.00009   0.00000   0.00007  -0.00002   0.00005  -0.00005
    D2       -3.14157   0.00000  -0.00008   0.00015   0.00007  -3.14151
    D3        3.14144   0.00000   0.00006   0.00005   0.00011   3.14155
    D4       -0.00004   0.00000  -0.00009   0.00022   0.00013   0.00009
    D5       -0.00007   0.00000   0.00003   0.00002   0.00006  -0.00002
    D6       -3.14152   0.00000  -0.00003  -0.00002  -0.00004  -3.14157
    D7        3.14158   0.00000   0.00004  -0.00004  -0.00001   3.14157
    D8        0.00013   0.00000  -0.00002  -0.00008  -0.00011   0.00002
    D9        0.00017  -0.00001  -0.00012   0.00002  -0.00010   0.00008
   D10       -3.14149   0.00000  -0.00008   0.00005  -0.00002  -3.14151
   D11       -3.14153   0.00000   0.00003  -0.00015  -0.00012   3.14154
   D12       -0.00001   0.00000   0.00007  -0.00012  -0.00005  -0.00005
   D13       -0.00009   0.00000   0.00007  -0.00002   0.00005  -0.00005
   D14        3.14149   0.00000   0.00002   0.00009   0.00011  -3.14159
   D15        3.14157   0.00000   0.00003  -0.00006  -0.00003   3.14154
   D16       -0.00003   0.00000  -0.00002   0.00006   0.00004   0.00000
   D17       -0.00007   0.00000   0.00003   0.00003   0.00006  -0.00001
   D18       -3.14148   0.00000  -0.00001  -0.00011  -0.00012   3.14158
   D19        3.14153   0.00000   0.00008  -0.00009  -0.00001   3.14153
   D20        0.00012   0.00000   0.00004  -0.00023  -0.00019  -0.00006
   D21        0.00015  -0.00001  -0.00008  -0.00003  -0.00011   0.00004
   D22       -3.14158   0.00000  -0.00002   0.00001  -0.00001  -3.14159
   D23        3.14156   0.00000  -0.00004   0.00011   0.00007  -3.14155
   D24       -0.00017   0.00000   0.00002   0.00015   0.00017   0.00000
         Item               Value     Threshold  Converged?
 Maximum Force            0.002291     0.000450     NO 
 RMS     Force            0.000899     0.000300     NO 
 Maximum Displacement     0.007699     0.001800     NO 
 RMS     Displacement     0.002906     0.001200     NO 
 Predicted change in Energy=-4.554627D-05
 GradGradGradGradGradGradGradGradGradGradGradGradGradGradGradGradGradGrad

                          Input orientation:                          
 ---------------------------------------------------------------------
 Center     Atomic      Atomic             Coordinates (Angstroms)
 Number     Number       Type             X           Y           Z
 ---------------------------------------------------------------------
      1          6           0        0.007455    0.000062    0.004346
      2          6           0        0.007383    0.000546    1.390769
      3          6           0        1.207903   -0.000043    2.083967
      4          6           0        2.408619   -0.001023    1.390813
      5          6           0        2.408689   -0.001472    0.004531
      6          6           0        1.208047   -0.000956   -0.688738
      7          1           0       -0.923943    0.000479   -0.533398
      8          1           0       -0.924071    0.001255    1.928418
      9          1           0        1.207910    0.000257    3.159455
     10          1           0        3.339958   -0.001486    1.928660
     11          1           0        3.340087   -0.002223   -0.533218
     12          1           0        1.208158   -0.001307   -1.764225
 ---------------------------------------------------------------------
                    Distance matrix (angstroms):
                    1          2          3          4          5
     1  C    0.000000
     2  C    1.386423   0.000000
     3  C    2.401229   1.386279   0.000000
     4  C    2.772703   2.401236   1.386428   0.000000
     5  C    2.401235   2.772712   2.401238   1.386282   0.000000
     6  C    1.386286   2.401238   2.772705   2.401229   1.386421
     7  H    1.075486   2.137707   3.375703   3.848189   3.375768
     8  H    2.137708   1.075488   2.137641   3.375773   3.848200
     9  H    3.375768   2.137642   1.075488   2.137708   3.375710
    10  H    3.848189   3.375704   2.137704   1.075487   2.137646
    11  H    3.375710   3.848201   3.375777   2.137646   1.075488
    12  H    2.137647   3.375774   3.848192   3.375702   2.137702
                    6          7          8          9         10
     6  C    0.000000
     7  H    2.137643   0.000000
     8  H    3.375713   2.461817   0.000000
     9  H    3.848193   4.264031   2.461869   0.000000
    10  H    3.375768   4.923676   4.264029   2.461805   0.000000
    11  H    2.137704   4.264031   4.923688   4.264037   2.461878
    12  H    1.075487   2.461868   4.264038   4.923680   4.264031
                   11         12
    11  H    0.000000
    12  H    2.461808   0.000000
 Stoichiometry    C6H6
 Framework group  C1[X(C6H6)]
 Deg. of freedom    30
 Full point group                 C1      NOp   1
 Largest Abelian subgroup         C1      NOp   1
 Largest concise Abelian subgroup C1      NOp   1
                         Standard orientation:                         
 ---------------------------------------------------------------------
 Center     Atomic      Atomic             Coordinates (Angstroms)
 Number     Number       Type             X           Y           Z
 ---------------------------------------------------------------------
      1          6           0       -0.396672    1.328391    0.000000
      2          6           0       -1.348779    0.320590    0.000032
      3          6           0       -0.952089   -1.007720   -0.000010
      4          6           0        0.396750   -1.328367    0.000008
      5          6           0        1.348760   -0.320670    0.000011
      6          6           0        0.952030    1.007776   -0.000020
      7          1           0       -0.704475    2.358889   -0.000007
      8          1           0       -2.395096    0.569380   -0.000033
      9          1           0       -1.690620   -1.789542   -0.000060
     10          1           0        0.704441   -2.358900   -0.000031
     11          1           0        2.395104   -0.569347    0.000034
     12          1           0        1.690647    1.789516   -0.000021
 ---------------------------------------------------------------------
 Rotational constants (GHZ):      5.7747686      5.7747230      2.8873729
 Standard basis: 6-311+G(d,p) (5D, 7F)
 There are   174 symmetry adapted cartesian basis functions of A   symmetry.
 There are   168 symmetry adapted basis functions of A   symmetry.
   168 basis functions,   264 primitive gaussians,   174 cartesian basis functions
    21 alpha electrons       21 beta electrons
       nuclear repulsion energy       204.7922460262 Hartrees.
 NAtoms=   12 NActive=   12 NUniq=   12 SFac= 1.00D+00 NAtFMM=   60 NAOKFM=F Big=F
 Integral buffers will be    131072 words long.
 Raffenetti 1 integral format.
 Two-electron integral symmetry is turned on.
 One-electron integrals computed using PRISM.
 NBasis=   168 RedAO= T EigKep=  3.90D-06  NBF=   168
 NBsUse=   168 1.00D-06 EigRej= -1.00D+00 NBFU=   168
 Initial guess from the checkpoint file:  "Benzenerhf.chk"
 B after Tr=     0.000000    0.000000    0.000000
         Rot=    0.749205    0.000000    0.000000    0.662338 Ang=  82.96 deg.
 Keep R1 ints in memory in canonical form, NReq=103561624.
 Requested convergence on RMS density matrix=1.00D-08 within 128 cycles.
 Requested convergence on MAX density matrix=1.00D-06.
 Requested convergence on             energy=1.00D-06.
 No special actions if energy rises.
 SCF Done:  E(RHF) =  -230.756773631     A.U. after    9 cycles
            NFock=  9  Conv=0.21D-08     -V/T= 2.0003
 Calling FoFJK, ICntrl=      2127 FMM=F ISym2X=0 I1Cent= 0 IOpClX= 0 NMat=1 NMatS=1 NMatT=0.
 ***** Axes restored to original set *****
 -------------------------------------------------------------------
 Center     Atomic                   Forces (Hartrees/Bohr)
 Number     Number              X              Y              Z
 -------------------------------------------------------------------
      1        6           0.000192907    0.000002091    0.000170588
      2        6           0.000188512   -0.000012649   -0.000174284
      3        6           0.000060216    0.000003315   -0.000251520
      4        6          -0.000248171   -0.000003961   -0.000074877
      5        6          -0.000242831    0.000000122    0.000079026
      6        6           0.000050213    0.000005840    0.000251912
      7        1          -0.000075040   -0.000000241   -0.000047435
      8        1          -0.000073993    0.000004549    0.000046875
      9        1          -0.000003941    0.000001448    0.000087627
     10        1           0.000078946    0.000001979    0.000040127
     11        1           0.000077543   -0.000001331   -0.000039885
     12        1          -0.000004360   -0.000001161   -0.000088153
 -------------------------------------------------------------------
 Cartesian Forces:  Max     0.000251912 RMS     0.000111086

 GradGradGradGradGradGradGradGradGradGradGradGradGradGradGradGradGradGrad
 Berny optimization.
 Using GEDIIS/GDIIS optimizer.
 FormGI is forming the generalized inverse of G from B-inverse, IUseBI=4.
 Internal  Forces:  Max     0.000196520 RMS     0.000062692
 Search for a local minimum.
 Step number   3 out of a maximum of   64
 All quantities printed in internal units (Hartrees-Bohrs-Radians)
 Mixed Optimization -- En-DIIS/RFO-DIIS
 Swapping is turned off.
 Update second derivatives using D2CorX and points    1    2    3
 DE= -4.26D-05 DEPred=-4.55D-05 R= 9.36D-01
 TightC=F SS=  1.41D+00  RLast= 1.33D-02 DXNew= 6.5916D-01 4.0023D-02
 Trust test= 9.36D-01 RLast= 1.33D-02 DXMaxT set to 3.92D-01
 ITU=  1  1  0
     Eigenvalues ---    0.02152   0.02153   0.02154   0.02155   0.02155
     Eigenvalues ---    0.02155   0.02155   0.02156   0.02157   0.15999
     Eigenvalues ---    0.16000   0.16000   0.16000   0.16000   0.16000
     Eigenvalues ---    0.22000   0.22000   0.22000   0.33710   0.33718
     Eigenvalues ---    0.33719   0.33723   0.33726   0.34742   0.42062
     Eigenvalues ---    0.42079   0.46413   0.46451   0.46467   0.55065
 En-DIIS/RFO-DIIS IScMMF=        0 using points:     3    2
 RFO step:  Lambda=-3.17550477D-07.
 DidBck=F Rises=F RFO-DIIS coefs:    0.97574    0.02426
 Iteration  1 RMS(Cart)=  0.00011356 RMS(Int)=  0.00000001
 Iteration  2 RMS(Cart)=  0.00000000 RMS(Int)=  0.00000000
 Variable       Old X    -DE/DX   Delta X   Delta X   Delta X     New X
                                 (Linear)    (Quad)   (Total)
    R1        2.61996  -0.00019  -0.00010  -0.00029  -0.00039   2.61958
    R2        2.61970  -0.00014  -0.00010  -0.00017  -0.00027   2.61943
    R3        2.03237   0.00009  -0.00009   0.00037   0.00029   2.03266
    R4        2.61969  -0.00013  -0.00010  -0.00015  -0.00026   2.61943
    R5        2.03238   0.00009  -0.00009   0.00037   0.00028   2.03266
    R6        2.61997  -0.00020  -0.00010  -0.00030  -0.00039   2.61958
    R7        2.03238   0.00009  -0.00009   0.00037   0.00028   2.03266
    R8        2.61969  -0.00013  -0.00010  -0.00016  -0.00026   2.61943
    R9        2.03238   0.00009  -0.00009   0.00037   0.00029   2.03266
   R10        2.61996  -0.00019  -0.00010  -0.00028  -0.00038   2.61958
   R11        2.03238   0.00009  -0.00009   0.00037   0.00028   2.03266
   R12        2.03238   0.00009  -0.00009   0.00037   0.00029   2.03266
    A1        2.09440   0.00000   0.00000   0.00000   0.00000   2.09439
    A2        2.09434   0.00000   0.00000   0.00002   0.00002   2.09437
    A3        2.09444   0.00000   0.00000  -0.00002  -0.00002   2.09442
    A4        2.09439   0.00000   0.00000   0.00000   0.00000   2.09440
    A5        2.09434   0.00000   0.00000   0.00002   0.00002   2.09437
    A6        2.09445   0.00000   0.00000  -0.00003  -0.00002   2.09442
    A7        2.09440   0.00000   0.00000   0.00000   0.00000   2.09440
    A8        2.09445   0.00000   0.00000  -0.00003  -0.00002   2.09443
    A9        2.09434   0.00000   0.00000   0.00003   0.00002   2.09436
   A10        2.09440   0.00000   0.00000   0.00000   0.00000   2.09439
   A11        2.09433   0.00001   0.00000   0.00003   0.00003   2.09436
   A12        2.09446   0.00000   0.00000  -0.00003  -0.00003   2.09443
   A13        2.09439   0.00000   0.00000   0.00000   0.00000   2.09440
   A14        2.09445   0.00000   0.00000  -0.00003  -0.00003   2.09442
   A15        2.09434   0.00000   0.00000   0.00003   0.00002   2.09437
   A16        2.09440   0.00000   0.00000   0.00000   0.00000   2.09440
   A17        2.09445   0.00000   0.00000  -0.00003  -0.00003   2.09442
   A18        2.09434   0.00000   0.00000   0.00003   0.00003   2.09437
    D1       -0.00005   0.00000   0.00000   0.00007   0.00007   0.00002
    D2       -3.14151   0.00000   0.00000  -0.00011  -0.00012   3.14156
    D3        3.14155   0.00000   0.00000   0.00007   0.00007  -3.14156
    D4        0.00009   0.00000   0.00000  -0.00011  -0.00011  -0.00002
    D5       -0.00002   0.00000   0.00000   0.00003   0.00003   0.00001
    D6       -3.14157   0.00000   0.00000  -0.00004  -0.00004   3.14158
    D7        3.14157   0.00000   0.00000   0.00002   0.00002  -3.14159
    D8        0.00002   0.00000   0.00000  -0.00004  -0.00004  -0.00002
    D9        0.00008   0.00000   0.00000  -0.00012  -0.00012  -0.00004
   D10       -3.14151   0.00000   0.00000  -0.00012  -0.00012   3.14156
   D11        3.14154   0.00000   0.00000   0.00006   0.00007  -3.14158
   D12       -0.00005   0.00000   0.00000   0.00007   0.00007   0.00002
   D13       -0.00005   0.00000   0.00000   0.00007   0.00007   0.00003
   D14       -3.14159   0.00000   0.00000   0.00000   0.00000  -3.14158
   D15        3.14154   0.00000   0.00000   0.00007   0.00007  -3.14157
   D16        0.00000   0.00000   0.00000   0.00000   0.00000   0.00000
   D17       -0.00001   0.00000   0.00000   0.00002   0.00002   0.00001
   D18        3.14158   0.00000   0.00000   0.00000   0.00000   3.14158
   D19        3.14153   0.00000   0.00000   0.00009   0.00009  -3.14157
   D20       -0.00006   0.00000   0.00000   0.00007   0.00007   0.00001
   D21        0.00004   0.00000   0.00000  -0.00007  -0.00007  -0.00003
   D22       -3.14159   0.00000   0.00000  -0.00001  -0.00001   3.14159
   D23       -3.14155   0.00000   0.00000  -0.00005  -0.00005   3.14158
   D24        0.00000   0.00000   0.00000   0.00002   0.00002   0.00002
         Item               Value     Threshold  Converged?
 Maximum Force            0.000197     0.000450     YES
 RMS     Force            0.000063     0.000300     YES
 Maximum Displacement     0.000324     0.001800     YES
 RMS     Displacement     0.000114     0.001200     YES
 Predicted change in Energy=-2.414839D-07
 Optimization completed.
    -- Stationary point found.
                           ----------------------------
                           !   Optimized Parameters   !
                           ! (Angstroms and Degrees)  !
 --------------------------                            --------------------------
 ! Name  Definition              Value          Derivative Info.                !
 --------------------------------------------------------------------------------
 ! R1    R(1,2)                  1.3864         -DE/DX =   -0.0002              !
 ! R2    R(1,6)                  1.3863         -DE/DX =   -0.0001              !
 ! R3    R(1,7)                  1.0755         -DE/DX =    0.0001              !
 ! R4    R(2,3)                  1.3863         -DE/DX =   -0.0001              !
 ! R5    R(2,8)                  1.0755         -DE/DX =    0.0001              !
 ! R6    R(3,4)                  1.3864         -DE/DX =   -0.0002              !
 ! R7    R(3,9)                  1.0755         -DE/DX =    0.0001              !
 ! R8    R(4,5)                  1.3863         -DE/DX =   -0.0001              !
 ! R9    R(4,10)                 1.0755         -DE/DX =    0.0001              !
 ! R10   R(5,6)                  1.3864         -DE/DX =   -0.0002              !
 ! R11   R(5,11)                 1.0755         -DE/DX =    0.0001              !
 ! R12   R(6,12)                 1.0755         -DE/DX =    0.0001              !
 ! A1    A(2,1,6)              120.0001         -DE/DX =    0.0                 !
 ! A2    A(2,1,7)              119.9971         -DE/DX =    0.0                 !
 ! A3    A(6,1,7)              120.0028         -DE/DX =    0.0                 !
 ! A4    A(1,2,3)              119.9998         -DE/DX =    0.0                 !
 ! A5    A(1,2,8)              119.9971         -DE/DX =    0.0                 !
 ! A6    A(3,2,8)              120.0031         -DE/DX =    0.0                 !
 ! A7    A(2,3,4)              120.0001         -DE/DX =    0.0                 !
 ! A8    A(2,3,9)              120.0032         -DE/DX =    0.0                 !
 ! A9    A(4,3,9)              119.9968         -DE/DX =    0.0                 !
 ! A10   A(3,4,5)              120.0001         -DE/DX =    0.0                 !
 ! A11   A(3,4,10)             119.9965         -DE/DX =    0.0                 !
 ! A12   A(5,4,10)             120.0034         -DE/DX =    0.0                 !
 ! A13   A(4,5,6)              119.9998         -DE/DX =    0.0                 !
 ! A14   A(4,5,11)             120.0032         -DE/DX =    0.0                 !
 ! A15   A(6,5,11)             119.9969         -DE/DX =    0.0                 !
 ! A16   A(1,6,5)              120.0001         -DE/DX =    0.0                 !
 ! A17   A(1,6,12)             120.0031         -DE/DX =    0.0                 !
 ! A18   A(5,6,12)             119.9968         -DE/DX =    0.0                 !
 ! D1    D(6,1,2,3)             -0.0026         -DE/DX =    0.0                 !
 ! D2    D(6,1,2,8)            180.005          -DE/DX =    0.0                 !
 ! D3    D(7,1,2,3)           -180.0024         -DE/DX =    0.0                 !
 ! D4    D(7,1,2,8)              0.0051         -DE/DX =    0.0                 !
 ! D5    D(2,1,6,5)             -0.0009         -DE/DX =    0.0                 !
 ! D6    D(2,1,6,12)           180.0015         -DE/DX =    0.0                 !
 ! D7    D(7,1,6,5)           -180.001          -DE/DX =    0.0                 !
 ! D8    D(7,1,6,12)             0.0013         -DE/DX =    0.0                 !
 ! D9    D(1,2,3,4)              0.0044         -DE/DX =    0.0                 !
 ! D10   D(1,2,3,9)            180.0046         -DE/DX =    0.0                 !
 ! D11   D(8,2,3,4)           -180.0032         -DE/DX =    0.0                 !
 ! D12   D(8,2,3,9)             -0.003          -DE/DX =    0.0                 !
 ! D13   D(2,3,4,5)             -0.0027         -DE/DX =    0.0                 !
 ! D14   D(2,3,4,10)          -179.9996         -DE/DX =    0.0                 !
 ! D15   D(9,3,4,5)           -180.0029         -DE/DX =    0.0                 !
 ! D16   D(9,3,4,10)             0.0002         -DE/DX =    0.0                 !
 ! D17   D(3,4,5,6)             -0.0007         -DE/DX =    0.0                 !
 ! D18   D(3,4,5,11)           179.9994         -DE/DX =    0.0                 !
 ! D19   D(10,4,5,6)          -180.0038         -DE/DX =    0.0                 !
 ! D20   D(10,4,5,11)           -0.0036         -DE/DX =    0.0                 !
 ! D21   D(4,5,6,1)              0.0025         -DE/DX =    0.0                 !
 ! D22   D(4,5,6,12)           180.0002         -DE/DX =    0.0                 !
 ! D23   D(11,5,6,1)           180.0024         -DE/DX =    0.0                 !
 ! D24   D(11,5,6,12)            0.0            -DE/DX =    0.0                 !
 --------------------------------------------------------------------------------
 GradGradGradGradGradGradGradGradGradGradGradGradGradGradGradGradGradGrad

                          Input orientation:                          
 ---------------------------------------------------------------------
 Center     Atomic      Atomic             Coordinates (Angstroms)
 Number     Number       Type             X           Y           Z
 ---------------------------------------------------------------------
      1          6           0        0.007455    0.000062    0.004346
      2          6           0        0.007383    0.000546    1.390769
      3          6           0        1.207903   -0.000043    2.083967
      4          6           0        2.408619   -0.001023    1.390813
      5          6           0        2.408689   -0.001472    0.004531
      6          6           0        1.208047   -0.000956   -0.688738
      7          1           0       -0.923943    0.000479   -0.533398
      8          1           0       -0.924071    0.001255    1.928418
      9          1           0        1.207910    0.000257    3.159455
     10          1           0        3.339958   -0.001486    1.928660
     11          1           0        3.340087   -0.002223   -0.533218
     12          1           0        1.208158   -0.001307   -1.764225
 ---------------------------------------------------------------------
                    Distance matrix (angstroms):
                    1          2          3          4          5
     1  C    0.000000
     2  C    1.386423   0.000000
     3  C    2.401229   1.386279   0.000000
     4  C    2.772703   2.401236   1.386428   0.000000
     5  C    2.401235   2.772712   2.401238   1.386282   0.000000
     6  C    1.386286   2.401238   2.772705   2.401229   1.386421
     7  H    1.075486   2.137707   3.375703   3.848189   3.375768
     8  H    2.137708   1.075488   2.137641   3.375773   3.848200
     9  H    3.375768   2.137642   1.075488   2.137708   3.375710
    10  H    3.848189   3.375704   2.137704   1.075487   2.137646
    11  H    3.375710   3.848201   3.375777   2.137646   1.075488
    12  H    2.137647   3.375774   3.848192   3.375702   2.137702
                    6          7          8          9         10
     6  C    0.000000
     7  H    2.137643   0.000000
     8  H    3.375713   2.461817   0.000000
     9  H    3.848193   4.264031   2.461869   0.000000
    10  H    3.375768   4.923676   4.264029   2.461805   0.000000
    11  H    2.137704   4.264031   4.923688   4.264037   2.461878
    12  H    1.075487   2.461868   4.264038   4.923680   4.264031
                   11         12
    11  H    0.000000
    12  H    2.461808   0.000000
 Stoichiometry    C6H6
 Framework group  C1[X(C6H6)]
 Deg. of freedom    30
 Full point group                 C1      NOp   1
 Largest Abelian subgroup         C1      NOp   1
 Largest concise Abelian subgroup C1      NOp   1
                         Standard orientation:                         
 ---------------------------------------------------------------------
 Center     Atomic      Atomic             Coordinates (Angstroms)
 Number     Number       Type             X           Y           Z
 ---------------------------------------------------------------------
      1          6           0       -0.396672    1.328391    0.000000
      2          6           0       -1.348779    0.320590    0.000032
      3          6           0       -0.952089   -1.007720   -0.000010
      4          6           0        0.396750   -1.328367    0.000008
      5          6           0        1.348760   -0.320670    0.000011
      6          6           0        0.952030    1.007776   -0.000020
      7          1           0       -0.704475    2.358889   -0.000007
      8          1           0       -2.395096    0.569380   -0.000033
      9          1           0       -1.690620   -1.789542   -0.000060
     10          1           0        0.704441   -2.358900   -0.000031
     11          1           0        2.395104   -0.569347    0.000034
     12          1           0        1.690647    1.789516   -0.000021
 ---------------------------------------------------------------------
 Rotational constants (GHZ):      5.7747686      5.7747230      2.8873729

 **********************************************************************

            Population analysis using the SCF density.

 **********************************************************************

 Orbital symmetries:
       Occupied  (A) (A) (A) (A) (A) (A) (A) (A) (A) (A) (A) (A)
                 (A) (A) (A) (A) (A) (A) (A) (A) (A)
       Virtual   (A) (A) (A) (A) (A) (A) (A) (A) (A) (A) (A) (A)
                 (A) (A) (A) (A) (A) (A) (A) (A) (A) (A) (A) (A)
                 (A) (A) (A) (A) (A) (A) (A) (A) (A) (A) (A) (A)
                 (A) (A) (A) (A) (A) (A) (A) (A) (A) (A) (A) (A)
                 (A) (A) (A) (A) (A) (A) (A) (A) (A) (A) (A) (A)
                 (A) (A) (A) (A) (A) (A) (A) (A) (A) (A) (A) (A)
                 (A) (A) (A) (A) (A) (A) (A) (A) (A) (A) (A) (A)
                 (A) (A) (A) (A) (A) (A) (A) (A) (A) (A) (A) (A)
                 (A) (A) (A) (A) (A) (A) (A) (A) (A) (A) (A) (A)
                 (A) (A) (A) (A) (A) (A) (A) (A) (A) (A) (A) (A)
                 (A) (A) (A) (A) (A) (A) (A) (A) (A) (A) (A) (A)
                 (A) (A) (A) (A) (A) (A) (A) (A) (A) (A) (A) (A)
                 (A) (A) (A)
 The electronic state is 1-A.
 Alpha  occ. eigenvalues --  -11.23501 -11.23441 -11.23441 -11.23313 -11.23313
 Alpha  occ. eigenvalues --  -11.23250  -1.15716  -1.01955  -1.01955  -0.82783
 Alpha  occ. eigenvalues --   -0.82783  -0.71531  -0.64561  -0.62373  -0.59191
 Alpha  occ. eigenvalues --   -0.59190  -0.50515  -0.49695  -0.49695  -0.33827
 Alpha  occ. eigenvalues --   -0.33827
 Alpha virt. eigenvalues --    0.07004   0.07925   0.07925   0.09809   0.09809
 Alpha virt. eigenvalues --    0.11087   0.11087   0.12556   0.12893   0.15244
 Alpha virt. eigenvalues --    0.15244   0.16294   0.16314   0.19939   0.19939
 Alpha virt. eigenvalues --    0.20975   0.21696   0.21696   0.22628   0.22628
 Alpha virt. eigenvalues --    0.25082   0.25082   0.27580   0.27580   0.27767
 Alpha virt. eigenvalues --    0.30344   0.30835   0.31604   0.31604   0.35125
 Alpha virt. eigenvalues --    0.35125   0.37274   0.37511   0.48673   0.48673
 Alpha virt. eigenvalues --    0.49293   0.49293   0.55860   0.60327   0.70390
 Alpha virt. eigenvalues --    0.71166   0.71166   0.71479   0.74535   0.74535
 Alpha virt. eigenvalues --    0.75637   0.75637   0.75689   0.79633   0.82030
 Alpha virt. eigenvalues --    0.82030   0.88838   0.92504   0.92505   0.92542
 Alpha virt. eigenvalues --    0.92998   0.92998   0.97654   1.00311   1.00311
 Alpha virt. eigenvalues --    1.00514   1.00514   1.09128   1.09128   1.11959
 Alpha virt. eigenvalues --    1.13849   1.16840   1.21926   1.21927   1.25211
 Alpha virt. eigenvalues --    1.32673   1.32673   1.39617   1.39617   1.50542
 Alpha virt. eigenvalues --    1.52724   1.71407   1.77772   1.77773   1.78115
 Alpha virt. eigenvalues --    1.83207   1.85147   1.85147   1.91522   1.91522
 Alpha virt. eigenvalues --    1.93900   1.93900   1.99455   2.06082   2.06083
 Alpha virt. eigenvalues --    2.09575   2.09576   2.14150   2.24143   2.24569
 Alpha virt. eigenvalues --    2.24569   2.25074   2.25075   2.29445   2.35278
 Alpha virt. eigenvalues --    2.35278   2.38874   2.38874   2.65449   2.67653
 Alpha virt. eigenvalues --    2.72523   2.74180   2.74180   2.76910   2.76911
 Alpha virt. eigenvalues --    2.94925   2.97416   2.97416   2.99725   3.02297
 Alpha virt. eigenvalues --    3.02297   3.04455   3.04455   3.06230   3.06726
 Alpha virt. eigenvalues --    3.19509   3.19509   3.28990   3.29715   3.29715
 Alpha virt. eigenvalues --    3.32930   3.32931   3.49034   3.56820   3.79441
 Alpha virt. eigenvalues --    3.79442   3.92464   3.92465   3.93304   4.11965
 Alpha virt. eigenvalues --    4.40744   4.40744   4.51222   4.57616   4.57617
 Alpha virt. eigenvalues --    5.29239  24.75061  25.14781  25.14782  25.28963
 Alpha virt. eigenvalues --   25.28965  25.40334
          Condensed to atoms (all electrons):
               1          2          3          4          5          6
     1  C    4.783986   0.563371  -0.044562  -0.060176  -0.044559   0.563556
     2  C    0.563371   4.783988   0.563555  -0.044559  -0.060175  -0.044559
     3  C   -0.044562   0.563555   4.783983   0.563373  -0.044559  -0.060174
     4  C   -0.060176  -0.044559   0.563373   4.783986   0.563554  -0.044561
     5  C   -0.044559  -0.060175  -0.044559   0.563554   4.783988   0.563371
     6  C    0.563556  -0.044559  -0.060174  -0.044561   0.563371   4.783984
     7  H    0.405649  -0.009928  -0.008504   0.002673  -0.008503  -0.009911
     8  H   -0.009928   0.405648  -0.009911  -0.008503   0.002673  -0.008504
     9  H   -0.008503  -0.009911   0.405649  -0.009929  -0.008503   0.002673
    10  H    0.002673  -0.008504  -0.009929   0.405649  -0.009910  -0.008503
    11  H   -0.008504   0.002673  -0.008503  -0.009910   0.405648  -0.009929
    12  H   -0.009911  -0.008503   0.002673  -0.008504  -0.009929   0.405649
               7          8          9         10         11         12
     1  C    0.405649  -0.009928  -0.008503   0.002673  -0.008504  -0.009911
     2  C   -0.009928   0.405648  -0.009911  -0.008504   0.002673  -0.008503
     3  C   -0.008504  -0.009911   0.405649  -0.009929  -0.008503   0.002673
     4  C    0.002673  -0.008503  -0.009929   0.405649  -0.009910  -0.008504
     5  C   -0.008503   0.002673  -0.008503  -0.009910   0.405648  -0.009929
     6  C   -0.009911  -0.008504   0.002673  -0.008503  -0.009929   0.405649
     7  H    0.505880  -0.005115  -0.000124   0.000030  -0.000124  -0.005116
     8  H   -0.005115   0.505880  -0.005116  -0.000124   0.000030  -0.000124
     9  H   -0.000124  -0.005116   0.505881  -0.005115  -0.000124   0.000030
    10  H    0.000030  -0.000124  -0.005115   0.505880  -0.005116  -0.000124
    11  H   -0.000124   0.000030  -0.000124  -0.005116   0.505880  -0.005115
    12  H   -0.005116  -0.000124   0.000030  -0.000124  -0.005115   0.505880
 Mulliken charges:
               1
     1  C   -0.133093
     2  C   -0.133095
     3  C   -0.133090
     4  C   -0.133093
     5  C   -0.133094
     6  C   -0.133092
     7  H    0.133093
     8  H    0.133093
     9  H    0.133093
    10  H    0.133093
    11  H    0.133093
    12  H    0.133093
 Sum of Mulliken charges =   0.00000
 Mulliken charges with hydrogens summed into heavy atoms:
               1
     1  C    0.000000
     2  C   -0.000002
     3  C    0.000003
     4  C    0.000000
     5  C   -0.000001
     6  C    0.000001
 Electronic spatial extent (au):  <R**2>=            455.0062
 Charge=              0.0000 electrons
 Dipole moment (field-independent basis, Debye):
    X=              0.0000    Y=              0.0000    Z=             -0.0001  Tot=              0.0001
 Quadrupole moment (field-independent basis, Debye-Ang):
   XX=            -31.9350   YY=            -31.9351   ZZ=            -41.1262
   XY=              0.0000   XZ=              0.0003   YZ=              0.0001
 Traceless Quadrupole moment (field-independent basis, Debye-Ang):
   XX=              3.0637   YY=              3.0637   ZZ=             -6.1274
   XY=              0.0000   XZ=              0.0003   YZ=              0.0001
 Octapole moment (field-independent basis, Debye-Ang**2):
  XXX=              0.0012  YYY=             -0.0014  ZZZ=             -0.0002  XYY=             -0.0012
  XXY=              0.0014  XXZ=             -0.0004  XZZ=              0.0000  YZZ=              0.0000
  YYZ=             -0.0006  XYZ=             -0.0002
 Hexadecapole moment (field-independent basis, Debye-Ang**3):
 XXXX=           -267.8689 YYYY=           -267.8676 ZZZZ=            -51.6946 XXXY=              0.0001
 XXXZ=              0.0018 YYYX=              0.0001 YYYZ=              0.0008 ZZZX=              0.0004
 ZZZY=              0.0002 XXYY=            -89.2896 XXZZ=            -65.1979 YYZZ=            -65.1977
 XXYZ=              0.0000 YYXZ=              0.0003 ZZXY=              0.0000
 N-N= 2.047922460262D+02 E-N=-9.465791133304D+02  KE= 2.306782137210D+02
 B after Tr=     0.000004   -0.000135    0.000032
         Rot=    1.000000   -0.000030   -0.000005   -0.000014 Ang=   0.00 deg.
 Final structure in terms of initial Z-matrix:
 C
 C,1,B1
 C,2,B2,1,A1
 C,3,B3,2,A2,1,D1,0
 C,4,B4,3,A3,2,D2,0
 C,1,B5,2,A4,3,D3,0
 H,1,B6,6,A5,5,D4,0
 H,2,B7,1,A6,6,D5,0
 H,3,B8,2,A7,1,D6,0
 H,4,B9,3,A8,2,D7,0
 H,5,B10,4,A9,3,D8,0
 H,6,B11,1,A10,2,D9,0
      Variables:
 B1=1.38642346
 B2=1.38627948
 B3=1.38642785
 B4=1.3862818
 B5=1.3862861
 B6=1.07548636
 B7=1.07548791
 B8=1.07548779
 B9=1.07548671
 B10=1.07548849
 B11=1.07548706
 A1=119.99981806
 A2=120.00006241
 A3=120.0001052
 A4=120.00012425
 A5=120.00276614
 A6=119.99711678
 A7=120.00316224
 A8=119.99646216
 A9=120.0032356
 A10=120.00310088
 D1=0.00440982
 D2=-0.0027339
 D3=-0.00260916
 D4=179.99896713
 D5=-179.99504797
 D6=-179.99540879
 D7=-179.99964523
 D8=179.99944304
 D9=-179.9985429
 1\1\GINC-TC-NODE166\FOpt\RHF\6-311+G(d,p)\C6H6\MAXB2\09-Oct-2016\0\\# 
 opt freq rhf/6-311+g** geom=connectivity\\Title Card Required\\0,1\C,0
 .0074608989,0.0000531598,0.0043350074\C,0.0073897461,0.0005368737,1.39
 07583859\C,1.2079093327,-0.0000519842,2.0839561747\C,2.4086249786,-0.0
 010322061,1.3908016668\C,2.4086958029,-0.0014807535,0.0045199396\C,1.2
 080536925,-0.0009646923,-0.6887487161\H,-0.9239369421,0.0004703053,-0.
 5334091643\H,-0.924064609,0.0012460273,1.9284074513\H,1.2079168601,0.0
 002485706,3.1594439186\H,3.3399638795,-0.0014947755,1.9286485811\H,3.3
 40093087,-0.0022320818,-0.5332291057\H,1.2081647769,-0.0013162729,-1.7
 642357163\\Version=ES64L-G09RevD.01\State=1-A\HF=-230.7567736\RMSD=2.1
 26e-09\RMSF=1.111e-04\Dipole=0.,-0.0000404,0.0000003\Quadrupole=2.2777
 752,-4.5555807,2.2778056,-0.0043126,-0.0000227,0.0020402\PG=C01 [X(C6H
 6)]\\@


 EVERYBODY NEEDS BEAUTY AS WELL AS BREAD, PLACES TO PLAY IN AND PRAY IN,
 WHERE NATURE MAY HEAL AND CHEER AND GIVE STRENGTH TO BODY AND SOUL ALIKE.

                                    -- JOHN MUIR
 Job cpu time:       0 days  0 hours  1 minutes 13.0 seconds.
 File lengths (MBytes):  RWF=     15 Int=      0 D2E=      0 Chk=      4 Scr=      1
 Normal termination of Gaussian 09 at Sun Oct  9 16:39:59 2016.
 Link1:  Proceeding to internal job step number  2.
 ---------------------------------------------------------------------
 #N Geom=AllCheck Guess=TCheck SCRF=Check GenChk RHF/6-311+G(d,p) Freq
 ---------------------------------------------------------------------
 1/10=4,29=7,30=1,38=1,40=1/1,3;
 2/12=2,40=1/2;
 3/5=4,6=6,7=111,11=1,14=-4,16=1,25=1,30=1,70=2,71=2,116=1,140=1/1,2,3;
 4/5=101/1;
 5/5=2,98=1/2;
 8/6=4,10=90,11=11/1;
 10/13=10,15=4/2;
 11/6=3,8=1,9=11,15=111,16=1/1,2,10;
 10/6=1/2;
 6/7=2,8=2,9=2,10=2,18=1,28=1/1;
 7/8=1,10=1,25=1/1,2,3,16;
 1/10=4,30=1/3;
 99//99;
 Structure from the checkpoint file:  "Benzenerhf.chk"
 -------------------
 Title Card Required
 -------------------
 Charge =  0 Multiplicity = 1
 Redundant internal coordinates found in file.
 C,0,0.0074545224,0.0000620622,0.0043460557
 C,0,0.0073833695,0.0005457761,1.3907694342
 C,0,1.2079029561,-0.0000430817,2.083967223
 C,0,2.408618602,-0.0010233036,1.3908127151
 C,0,2.4086894263,-0.0014718511,0.0045309879
 C,0,1.2080473159,-0.0009557899,-0.6887376678
 H,0,-0.9239433187,0.0004792078,-0.533398116
 H,0,-0.9240709856,0.0012549298,1.9284184996
 H,0,1.2079104836,0.000257473,3.1594549669
 H,0,3.3399575029,-0.001485873,1.9286596294
 H,0,3.3400867104,-0.0022231794,-0.5332180574
 H,0,1.2081584003,-0.0013073705,-1.764224668
 Recover connectivity data from disk.

 GradGradGradGradGradGradGradGradGradGradGradGradGradGradGradGradGradGrad
 Berny optimization.
 Initialization pass.
                           ----------------------------
                           !    Initial Parameters    !
                           ! (Angstroms and Degrees)  !
 --------------------------                            --------------------------
 ! Name  Definition              Value          Derivative Info.                !
[...]
    D4        0.00009   0.00000   0.00000  -0.00009  -0.00009   0.00000
    D5       -0.00002   0.00000   0.00000   0.00002   0.00002   0.00000
    D6       -3.14157   0.00000   0.00000  -0.00003  -0.00003  -3.14159
    D7        3.14157   0.00000   0.00000   0.00002   0.00002  -3.14159
    D8        0.00002   0.00000   0.00000  -0.00002  -0.00002   0.00000
    D9        0.00008   0.00000   0.00000  -0.00008  -0.00008   0.00000
   D10       -3.14151   0.00000   0.00000  -0.00008  -0.00008   3.14159
   D11        3.14154   0.00000   0.00000   0.00005   0.00005   3.14159
   D12       -0.00005   0.00000   0.00000   0.00005   0.00005   0.00000
   D13       -0.00005   0.00000   0.00000   0.00005   0.00005   0.00000
   D14       -3.14159   0.00000   0.00000  -0.00001  -0.00001  -3.14159
   D15        3.14154   0.00000   0.00000   0.00005   0.00005  -3.14159
   D16        0.00000   0.00000   0.00000   0.00000   0.00000   0.00000
   D17       -0.00001   0.00000   0.00000   0.00001   0.00001   0.00000
   D18        3.14158   0.00000   0.00000   0.00001   0.00001   3.14159
   D19        3.14153   0.00000   0.00000   0.00007   0.00007  -3.14159
   D20       -0.00006   0.00000   0.00000   0.00006   0.00006   0.00000
   D21        0.00004   0.00000   0.00000  -0.00004  -0.00004   0.00000
   D22       -3.14159   0.00000   0.00000   0.00000   0.00000   3.14159
   D23       -3.14155   0.00000   0.00000  -0.00004  -0.00004   3.14159
   D24        0.00000   0.00000   0.00000   0.00000   0.00000   0.00000
         Item               Value     Threshold  Converged?
 Maximum Force            0.000197     0.000450     YES
 RMS     Force            0.000063     0.000300     YES
 Maximum Displacement     0.000294     0.001800     YES
 RMS     Displacement     0.000106     0.001200     YES
 Predicted change in Energy=-2.183503D-07
 Optimization completed.
    -- Stationary point found.
                           ----------------------------
                           !   Optimized Parameters   !
                           ! (Angstroms and Degrees)  !
 --------------------------                            --------------------------
 ! Name  Definition              Value          Derivative Info.                !
 --------------------------------------------------------------------------------
 ! R1    R(1,2)                  1.3864         -DE/DX =   -0.0002              !
 ! R2    R(1,6)                  1.3863         -DE/DX =   -0.0001              !
 ! R3    R(1,7)                  1.0755         -DE/DX =    0.0001              !
 ! R4    R(2,3)                  1.3863         -DE/DX =   -0.0001              !
 ! R5    R(2,8)                  1.0755         -DE/DX =    0.0001              !
 ! R6    R(3,4)                  1.3864         -DE/DX =   -0.0002              !
 ! R7    R(3,9)                  1.0755         -DE/DX =    0.0001              !
 ! R8    R(4,5)                  1.3863         -DE/DX =   -0.0001              !
 ! R9    R(4,10)                 1.0755         -DE/DX =    0.0001              !
 ! R10   R(5,6)                  1.3864         -DE/DX =   -0.0002              !
 ! R11   R(5,11)                 1.0755         -DE/DX =    0.0001              !
 ! R12   R(6,12)                 1.0755         -DE/DX =    0.0001              !
 ! A1    A(2,1,6)              120.0001         -DE/DX =    0.0                 !
 ! A2    A(2,1,7)              119.9971         -DE/DX =    0.0                 !
 ! A3    A(6,1,7)              120.0028         -DE/DX =    0.0                 !
 ! A4    A(1,2,3)              119.9998         -DE/DX =    0.0                 !
 ! A5    A(1,2,8)              119.9971         -DE/DX =    0.0                 !
 ! A6    A(3,2,8)              120.0031         -DE/DX =    0.0                 !
 ! A7    A(2,3,4)              120.0001         -DE/DX =    0.0                 !
 ! A8    A(2,3,9)              120.0032         -DE/DX =    0.0                 !
 ! A9    A(4,3,9)              119.9968         -DE/DX =    0.0                 !
 ! A10   A(3,4,5)              120.0001         -DE/DX =    0.0                 !
 ! A11   A(3,4,10)             119.9965         -DE/DX =    0.0                 !
 ! A12   A(5,4,10)             120.0034         -DE/DX =    0.0                 !
 ! A13   A(4,5,6)              119.9998         -DE/DX =    0.0                 !
 ! A14   A(4,5,11)             120.0032         -DE/DX =    0.0                 !
 ! A15   A(6,5,11)             119.9969         -DE/DX =    0.0                 !
 ! A16   A(1,6,5)              120.0001         -DE/DX =    0.0                 !
 ! A17   A(1,6,12)             120.0031         -DE/DX =    0.0                 !
 ! A18   A(5,6,12)             119.9968         -DE/DX =    0.0                 !
 ! D1    D(6,1,2,3)             -0.0026         -DE/DX =    0.0                 !
 ! D2    D(6,1,2,8)            180.005          -DE/DX =    0.0                 !
 ! D3    D(7,1,2,3)           -180.0024         -DE/DX =    0.0                 !
 ! D4    D(7,1,2,8)              0.0051         -DE/DX =    0.0                 !
 ! D5    D(2,1,6,5)             -0.0009         -DE/DX =    0.0                 !
 ! D6    D(2,1,6,12)          -179.9985         -DE/DX =    0.0                 !
 ! D7    D(7,1,6,5)           -180.001          -DE/DX =    0.0                 !
 ! D8    D(7,1,6,12)             0.0013         -DE/DX =    0.0                 !
 ! D9    D(1,2,3,4)              0.0044         -DE/DX =    0.0                 !
 ! D10   D(1,2,3,9)            180.0046         -DE/DX =    0.0                 !
 ! D11   D(8,2,3,4)            179.9968         -DE/DX =    0.0                 !
 ! D12   D(8,2,3,9)             -0.003          -DE/DX =    0.0                 !
 ! D13   D(2,3,4,5)             -0.0027         -DE/DX =    0.0                 !
 ! D14   D(2,3,4,10)          -179.9996         -DE/DX =    0.0                 !
 ! D15   D(9,3,4,5)           -180.0029         -DE/DX =    0.0                 !
 ! D16   D(9,3,4,10)             0.0002         -DE/DX =    0.0                 !
 ! D17   D(3,4,5,6)             -0.0007         -DE/DX =    0.0                 !
 ! D18   D(3,4,5,11)           179.9994         -DE/DX =    0.0                 !
 ! D19   D(10,4,5,6)          -180.0038         -DE/DX =    0.0                 !
 ! D20   D(10,4,5,11)           -0.0036         -DE/DX =    0.0                 !
 ! D21   D(4,5,6,1)              0.0025         -DE/DX =    0.0                 !
 ! D22   D(4,5,6,12)           180.0002         -DE/DX =    0.0                 !
 ! D23   D(11,5,6,1)           180.0024         -DE/DX =    0.0                 !
 ! D24   D(11,5,6,12)            0.0            -DE/DX =    0.0                 !
 --------------------------------------------------------------------------------
 GradGradGradGradGradGradGradGradGradGradGradGradGradGradGradGradGradGrad

 1\1\GINC-TC-NODE166\Freq\RHF\6-311+G(d,p)\C6H6\MAXB2\09-Oct-2016\0\\#N
  Geom=AllCheck Guess=TCheck SCRF=Check GenChk RHF/6-311+G(d,p) Freq\\T
 itle Card Required\\0,1\C,0.0074545224,0.0000620622,0.0043460557\C,0.0
 073833695,0.0005457761,1.3907694342\C,1.2079029561,-0.0000430817,2.083
 967223\C,2.408618602,-0.0010233036,1.3908127151\C,2.4086894263,-0.0014
 718511,0.0045309879\C,1.2080473159,-0.0009557899,-0.6887376678\H,-0.92
 39433187,0.0004792078,-0.533398116\H,-0.9240709856,0.0012549298,1.9284
 184996\H,1.2079104836,0.000257473,3.1594549669\H,3.3399575029,-0.00148
 5873,1.9286596294\H,3.3400867104,-0.0022231794,-0.5332180574\H,1.20815
 84003,-0.0013073705,-1.764224668\\Version=ES64L-G09RevD.01\State=1-A\H
 F=-230.7567736\RMSD=2.495e-10\RMSF=1.111e-04\ZeroPoint=0.1065086\Therm
 al=0.1106361\Dipole=0.,-0.0000404,0.0000003\DipoleDeriv=0.0740142,-0.0
 001192,0.0870717,-0.0001299,-0.1542356,-0.0000082,0.0870604,-0.000012,
 -0.0264263,0.0740412,-0.0001645,-0.0870598,-0.0001256,-0.1542349,0.000
 0758,-0.0870559,0.0000967,-0.0264397,-0.0767173,-0.0000508,-0.0000386,
 -0.0000546,-0.1542361,0.0000787,-0.0000372,0.0000729,0.1243097,0.07406
 51,-0.0001329,0.087036,-0.0001467,-0.1542358,-0.0000192,0.0870382,-0.0
 000134,-0.0264782,0.0740931,-0.0001628,-0.0870241,-0.0001568,-0.154234
 8,0.0000943,-0.087033,0.0000922,-0.0264903,-0.0767174,-0.0000534,0.000
 0137,-0.0000539,-0.154236,0.000083,0.0000287,0.0001031,0.1243087,-0.07
 11042,0.0001176,-0.0819544,0.0001217,0.1542358,0.0000028,-0.081945,0.0
 00008,0.02351,-0.0711205,0.0001695,0.0819452,0.0001376,0.1542353,-0.00
 00756,0.0819358,-0.0000932,0.0235277,0.0708272,0.0000544,-0.0000008,0.
 0000573,0.1542355,-0.0000761,0.0000096,-0.0000808,-0.1184217,-0.071096
 ,0.0001207,-0.0819483,0.0001332,0.1542358,0.0000193,-0.0819607,0.00001
 32,0.0235017,-0.0711129,0.0001684,0.0819395,0.0001645,0.1542351,-0.000
 0963,0.081951,-0.0000943,0.0235196,0.0708273,0.000053,0.0000198,0.0000
 532,0.1542356,-0.0000785,0.0000082,-0.0000924,-0.1184211\Polar=74.3931
 561,-0.0212379,41.541474,-0.0000677,0.0109142,74.393195\PolarDeriv=-1.
 0407799,-0.0048399,-3.6187094,-1.1804615,-0.0004624,-2.5952914,-0.0077
 801,-3.7746455,0.004218,0.0010907,-2.1773506,0.0017218,-3.1209838,0.00
 28279,-2.0849104,0.7763207,0.0013009,1.0403878,-1.0408914,-0.0031905,-
 3.6189147,1.1806414,0.0007072,-2.5950263,0.0013605,-3.7747434,0.011305
 1,0.0013556,2.1769485,0.0034369,3.120912,0.0003302,2.0845615,0.777172,
 -0.0020367,-1.0404646,0.0093728,-0.0009227,0.0037506,-2.5284774,0.0047
 767,0.006187,-0.0024735,0.0016247,0.0028891,0.0046551,4.3575716,-0.004
 4738,1.3618482,0.0017644,4.1763556,0.0007436,-0.0014889,2.8272981,1.03
 19001,0.0047494,3.6147428,1.1826619,0.0002183,2.5880702,0.0080051,3.77
 2774,-0.0040774,-0.0005138,2.1805946,-0.001153,3.1327307,-0.0017933,2.
 0917803,-0.7780403,-0.0008549,-1.0242277,1.0319734,0.0032198,3.6149465
 ,-1.1828398,-0.0009012,2.587794,0.0014436,3.7728613,-0.009661,-0.00219
 75,-2.1801967,-0.0010823,-3.1326726,-0.0011795,-2.0914369,-0.7788833,0
 .001972,1.024293,0.0097252,0.0013718,0.0041831,2.5284767,-0.0042554,0.
 0069322,0.0005744,0.002121,-0.0043712,-0.0044438,-4.3575731,0.0025124,
 -1.3618459,-0.0018666,-4.1763513,0.0013596,0.0018139,-2.8273185,-7.876
 9094,0.003814,-0.1832635,-3.6136887,0.0016531,-2.2792382,0.0043183,0.0
 867982,0.0001167,0.0013713,0.04982,0.0007415,-3.3134821,0.0010721,-0.1
 058089,-2.7990393,0.000951,-2.5496339,-7.8780043,0.0058615,-0.1832864,
 3.6134173,-0.0028793,-2.2787755,0.0050318,0.0867542,-0.0004185,-0.0028
 915,-0.0497964,0.0016311,3.3132467,-0.0028463,0.1057943,-2.7986002,0.0
 024462,2.5488413,0.0004303,0.0003596,0.0000032,1.2340908,-0.0008787,0.
 0001328,0.0003606,-0.0002334,0.0000552,-0.000883,-0.1000568,0.0033771,
 0.6338208,-0.0002782,0.2116167,0.0000056,0.0031803,11.0932419,7.875663
 8,-0.0040192,0.1832517,3.6141025,-0.0017915,2.2793568,-0.0048031,-0.08
 65494,-0.0002197,-0.0016345,-0.0502467,-0.0009521,3.3140447,-0.0012369
 ,0.1058301,2.7992462,-0.0011009,2.5510262,7.8767881,-0.0060149,0.18327
 5,-3.6138356,0.0029652,2.2788946,-0.0058594,-0.0865008,0.0001218,0.003
 2142,0.0502242,-0.0021023,-3.3137975,0.0029457,-0.1058134,2.7987993,-0
 .002556,-2.5502188,0.0007313,-0.0003888,0.000021,-1.2340876,0.0008479,
 0.0009638,-0.0001782,-0.0002607,0.0000419,0.0008772,0.1000614,-0.00365
 73,-0.6338212,0.0002604,-0.2116176,0.0009161,-0.0036268,-11.0932248\Hy
 perPolar=-0.0206349,0.0012167,-0.0000402,0.0041115,0.0000212,0.002066,
 -0.0000057,0.0207259,0.0087987,0.0000469\PG=C01 [X(C6H6)]\NImag=0\\0.8
 0378040,-0.00039740,0.16425731,0.04655094,0.00017171,0.74966502,-0.163
 24322,0.00007173,0.05262626,0.80380058,0.00003643,-0.07676908,-0.00013
 068,-0.00041650,0.16425649,-0.05260569,-0.00006581,-0.35840836,-0.0465
 3576,0.00021079,0.74965640,0.06213140,-0.00007319,-0.11778948,-0.30987
 335,0.00014489,-0.03205253,0.72288448,-0.00004523,0.00821864,0.0000647
 0,0.00011341,-0.07674824,-0.00001556,-0.00036414,0.16425725,-0.0328517
 9,0.00001136,-0.02486180,-0.13728657,0.00005069,-0.21212665,0.00017344
 ,0.00019159,0.83056366,-0.03234327,0.00003341,0.05052570,-0.06834215,0
 .00003400,-0.04247736,-0.30961692,0.00019165,0.13711491,0.80348553,0.0
 0003198,-0.00716393,-0.00005883,0.00006446,0.00821848,0.00005718,0.000
 15855,-0.07677043,-0.00012869,-0.00040314,0.16425740,0.05052624,-0.000
 06087,-0.09067222,0.04246038,0.00000264,0.10561274,0.03188263,-0.00005
 948,-0.21202394,0.04672047,0.00014888,0.74995912,-0.06834223,0.0000626
 1,0.04246005,-0.03233304,0.00000069,-0.05052020,0.06211653,-0.00002516
 ,0.03286012,-0.16323789,0.00007354,0.05262705,0.80350643,0.00003545,0.
 00821848,0.00000467,-0.00000032,-0.00716394,0.00000452,0.00000384,0.00
 821840,-0.00003108,0.00003846,-0.07674859,-0.00012465,-0.00041382,0.16
 425662,-0.04247773,0.00006009,0.10561275,-0.05052069,0.00000540,-0.090
 68238,0.11779787,-0.00008676,-0.02484555,-0.05260654,-0.00005557,-0.35
 875674,-0.04670429,0.00021961,0.74994970,-0.30987703,0.00016404,0.0320
 3507,0.06211681,0.00000403,0.11779768,-0.11984691,0.00007317,-0.000006
 08,0.06213110,-0.00007310,-0.11778963,-0.30961361,0.00013257,-0.031900
 42,0.72288457,0.00019852,-0.07674986,-0.00006743,-0.00002304,0.0082183
 7,-0.00008645,0.00007196,-0.00716401,0.00000062,-0.00004512,0.00821864
 ,0.00006533,0.00009847,-0.07676868,-0.00002712,-0.00035621,0.16425700,
 0.13726899,-0.00013607,-0.21210713,0.03285994,-0.00003105,-0.02484586,
 -0.00000555,0.00000062,-0.00316865,-0.03285194,0.00001009,-0.02486150,
 -0.13713280,0.00004015,-0.21204365,-0.00016618,0.00022462,0.83056542,-
 0.29555018,0.00011706,-0.12891801,0.00513434,0.00000098,0.00305739,0.0
 0201993,0.00000444,0.00059964,0.00022750,-0.00000041,0.00107018,-0.003
 87808,0.00000953,0.00456026,-0.01897553,0.00000871,-0.01955074,0.31021
 936,0.00011703,-0.04596325,0.00004896,-0.00001227,0.00491381,-0.000007
 53,0.00000486,0.00854043,-0.00000547,-0.00000032,-0.00096622,-0.000000
 77,0.00000936,0.00854654,-0.00000614,0.00002127,0.00491728,0.00001601,
 -0.00013229,0.03104698,-0.12891869,0.00004792,-0.14669043,-0.03346732,
 0.00001663,-0.00945385,0.00115479,-0.00000595,-0.00685828,0.00107086,-
 0.00000070,-0.00100802,0.00400453,-0.00000591,-0.00095776,0.01697449,-
 0.00000755,0.01465567,0.14012424,-0.00004970,0.14842146,0.00513121,-0.
 00000137,-0.00305583,-0.29557418,0.00018830,0.12890082,-0.01897583,0.0
 0002011,0.01954744,-0.00387714,0.00000645,-0.00456058,0.00022770,-0.00
 000109,-0.00107001,0.00202009,0.00000353,-0.00059877,0.00083729,-0.000
 00311,0.00066865,0.31024566,0.00001199,0.00491377,-0.00000497,0.000184
 62,-0.04596396,-0.00010377,0.00001082,0.00491740,-0.00000991,0.0000074
 9,0.00854659,0.00000021,-0.00000115,-0.00096622,0.00000144,0.00000273,
 0.00854044,-0.00000525,-0.00000390,-0.00488718,0.00000167,-0.00020930,
 0.03104763,0.03346874,-0.00002470,-0.00945078,0.12890167,-0.00010709,-
 0.14666334,-0.01697778,0.00001341,0.01465594,-0.00400480,0.,-0.0009585
 7,-0.00107074,0.00000069,-0.00100822,-0.00115393,-0.00000422,-0.006858
 36,-0.00066868,0.00000221,0.00116509,-0.14010594,0.00011894,0.14839191
 ,-0.00539649,0.00000820,-0.00312787,0.00736339,-0.00001101,-0.03218125
 ,-0.07225916,0.00001746,-0.00000109,0.00736102,0.00000781,0.03218161,-
 0.00539839,0.00000995,0.00312815,-0.00162622,0.00000043,-0.00000065,0.
 00007641,-0.00000073,-0.00161788,0.00108319,-0.00000367,0.00081062,0.0
 6752014,0.00000801,0.00854655,-0.00000066,-0.00000039,0.00491737,0.000
 01665,0.00001710,-0.04596364,-0.00009083,-0.00000278,0.00491372,-0.000
 02559,0.00001006,0.00854037,-0.00000465,0.00000051,-0.00096623,0.00000
 048,-0.00000005,-0.00005012,0.00000088,-0.00000371,-0.00489215,0.00000
 110,-0.00002397,0.03104742,-0.00368363,0.00000030,0.00056072,0.0043439
 3,-0.00000775,-0.01168317,-0.00000185,-0.00009079,-0.36997868,-0.00434
 303,-0.00000209,-0.01168077,0.00368332,-0.00000444,0.00056003,0.000000
 13,0.00000055,0.00084571,0.00017355,-0.00000037,-0.00075765,-0.0005267
 0,0.00000190,0.00091929,0.00000098,0.00010131,0.39111793,0.00022773,-0
 .00000046,0.00107078,-0.00387994,0.00000941,0.00456024,-0.01897481,0.0
 0001011,-0.01955153,-0.29552246,0.00012719,-0.12893382,0.00513561,0.00
 000093,0.00305735,0.00202070,0.00000468,0.00059972,-0.00001968,-0.0000
 0080,-0.00007870,-0.00117457,0.00000053,-0.00089581,0.00108316,-0.0000
 0382,0.00052673,0.31019055,-0.00000093,-0.00096622,0.00000036,0.000008
 44,0.00854039,-0.00000668,0.00002175,0.00491384,0.00001530,0.00012802,
 -0.04596333,0.00005848,-0.00001147,0.00491722,-0.00000864,0.00000568,0
 .00854657,-0.00000535,-0.00000077,-0.00115602,0.00000050,0.00000101,-0
 .00005014,0.00000076,-0.00000413,-0.00488715,0.00000123,-0.00014368,0.
 03104709,0.00107000,-0.00000068,-0.00100824,0.00400507,-0.00000528,-0.
 00095847,0.01697337,-0.00000833,0.01465480,-0.12893352,0.00005592,-0.1
 4671747,-0.03346766,0.00001767,-0.00945497,0.00115546,-0.00000552,-0.0
 0685647,-0.00007877,0.00000043,0.00007122,0.00089562,-0.00000045,0.000
 49330,-0.00081054,0.00000221,0.00091925,0.14014017,-0.00005799,0.14844
 957,-0.00387898,0.00000613,-0.00456055,0.00022793,-0.00000111,-0.00107
 060,0.00202087,0.00000377,-0.00059884,0.00513239,-0.00000118,-0.003055
 74,-0.29554678,0.00019673,0.12891603,-0.01897496,0.00002149,0.01954814
 ,-0.00117456,0.00000106,0.00089565,-0.00001969,-0.00000067,0.00007869,
 0.00007628,-0.00000014,-0.00017347,0.00083728,-0.00000335,0.00066867,0
 .31021710,0.00000652,0.00854044,-0.00000036,-0.00000111,-0.00096622,0.
 00000064,0.00000366,0.00854659,-0.00000447,0.00001110,0.00491726,-0.00
 000332,0.00019661,-0.04596416,-0.00011237,0.00000950,0.00491392,-0.000
 00894,0.00000041,-0.00005013,-0.00000038,-0.00000065,-0.00115608,0.000
 00032,0.00000051,-0.00005012,-0.00000013,-0.00000409,-0.00489213,0.000
 00139,-0.00021890,0.03104783,-0.00400535,-0.00000062,-0.00095928,-0.00
 106988,0.00000067,-0.00100845,-0.00115458,-0.00000407,-0.00685657,0.03
 346923,-0.00002586,-0.00945202,0.12891570,-0.00011308,-0.14668954,-0.0
 1697664,0.00001394,0.01465509,-0.00089578,0.00000080,0.00049330,0.0000
 7877,0.00000036,0.00007124,0.00161795,-0.00000128,-0.00075753,-0.00066
 871,0.00000235,0.00116516,-0.14012127,0.00012539,0.14841932,0.00736067
 ,0.00000924,0.03218294,-0.00539717,0.00000989,0.00312724,-0.00162623,0
 .00000041,0.00000035,-0.00539771,0.00000785,-0.00312879,0.00736375,-0.
 00001221,-0.03217999,-0.07225899,0.00001658,0.00002985,0.00108321,-0.0
 0000406,-0.00081062,0.00007626,0.00000051,0.00161796,0.00011668,-0.000
 00082,0.00000005,0.00007643,-0.00000056,-0.00161787,0.00108313,-0.0000
 0356,0.00081056,0.06751997,-0.00000236,0.00491715,-0.00002748,0.000010
 98,0.00854653,-0.00000398,-0.00000011,-0.00096623,0.00000088,0.0000072
 4,0.00854041,-0.00000086,0.00000025,0.00491395,0.00001471,0.00001581,-
 0.04596345,-0.00010532,-0.00000370,-0.00489212,0.00000256,-0.00000016,
 -0.00005012,-0.00000143,-0.00000084,-0.00115603,0.00000029,0.,-0.00005
 012,0.00000063,-0.00000384,-0.00488719,0.00000141,-0.00002327,0.031047
 21,-0.00434204,-0.00000265,-0.01168024,0.00368296,-0.00000497,0.000561
 39,-0.00000034,0.00000062,0.00084571,-0.00368397,-0.00000033,0.0005593
 7,0.00434492,-0.00000814,-0.01168368,0.00003005,-0.00010678,-0.3699802
 7,0.00052673,0.00000155,0.00091925,-0.00017346,-0.00000017,-0.00075750
 ,-0.00000003,0.00000038,-0.00006514,0.00017356,-0.00000034,-0.00075767
 ,-0.00052670,0.00000223,0.00091929,-0.00003167,0.00011859,0.39111950\\
 -0.00019291,-0.00000209,-0.00017059,-0.00018851,0.00001265,0.00017429,
 -0.00006022,-0.00000331,0.00025152,0.00024817,0.00000396,0.00007488,0.
 00024283,-0.00000012,-0.00007903,-0.00005021,-0.00000584,-0.00025191,0
 .00007504,0.00000024,0.00004743,0.00007399,-0.00000455,-0.00004687,0.0
 0000394,-0.00000145,-0.00008763,-0.00007895,-0.00000198,-0.00004013,-0
 .00007754,0.00000133,0.00003989,0.00000436,0.00000116,0.00008815\\\@


 THE CAUTIOUS SELDOM ERR...CONFUCIUS                   
 Job cpu time:       0 days  0 hours  2 minutes 24.0 seconds.
 File lengths (MBytes):  RWF=     35 Int=      0 D2E=      0 Chk=      4 Scr=      1
 Normal termination of Gaussian 09 at Sun Oct  9 16:41:11 2016.
