 Entering Gaussian System, Link 0=g09
 Initial command:
 /cluster/software/gaussian/gaussian-09-D.01/g09/l1.exe "/local/scratch/maxb2/Gau-31183.inp" -scrdir="/local/scratch/maxb2/"
 Entering Link 1 = /cluster/software/gaussian/gaussian-09-D.01/g09/l1.exe PID=     31184.
  
 Copyright (c) 1988,1990,1992,1993,1995,1998,2003,2009,2013,
            Gaussian, Inc.  All Rights Reserved.
  
 This is part of the Gaussian(R) 09 program.  It is based on
 the Gaussian(R) 03 system (copyright 2003, Gaussian, Inc.),
 the Gaussian(R) 98 system (copyright 1998, Gaussian, Inc.),
 the Gaussian(R) 94 system (copyright 1995, Gaussian, Inc.),
 the Gaussian 92(TM) system (copyright 1992, Gaussian, Inc.),
 the Gaussian 90(TM) system (copyright 1990, Gaussian, Inc.),
 the Gaussian 88(TM) system (copyright 1988, Gaussian, Inc.),
 the Gaussian 86(TM) system (copyright 1986, Carnegie Mellon
 University), and the Gaussian 82(TM) system (copyright 1983,
 Carnegie Mellon University). Gaussian is a federally registered
 trademark of Gaussian, Inc.
  
 This software contains proprietary and confidential information,
 including trade secrets, belonging to Gaussian, Inc.
  
 This software is provided under written license and may be
 used, copied, transmitted, or stored only in accord with that
 written license.
  
 The following legend is applicable only to US Government
 contracts under FAR:
  
                    RESTRICTED RIGHTS LEGEND
  
 Use, reproduction and disclosure by the US Government is
 subject to restrictions as set forth in subparagraphs (a)
 and (c) of the Commercial Computer Software - Restricted
 Rights clause in FAR 52.227-19.
  
 Gaussian, Inc.
 340 Quinnipiac St., Bldg. 40, Wallingford CT 06492
  
  
 ---------------------------------------------------------------
 Warning -- This program may not be used in any manner that
 competes with the business of Gaussian, Inc. or will provide
 assistance to any competitor of Gaussian, Inc.  The licensee
 of this program is prohibited from giving any competitor of
 Gaussian, Inc. access to this program.  By using this program,
 the user acknowledges that Gaussian, Inc. is engaged in the
 business of creating and licensing software in the field of
 computational chemistry and represents and warrants to the
 licensee that it is not a competitor of Gaussian, Inc. and that
 it will not use this program in any manner prohibited above.
 ---------------------------------------------------------------
  

 Cite this work as:
 Gaussian 09, Revision D.01,
 M. J. Frisch, G. W. Trucks, H. B. Schlegel, G. E. Scuseria, 
 M. A. Robb, J. R. Cheeseman, G. Scalmani, V. Barone, B. Mennucci, 
 G. A. Petersson, H. Nakatsuji, M. Caricato, X. Li, H. P. Hratchian, 
 A. F. Izmaylov, J. Bloino, G. Zheng, J. L. Sonnenberg, M. Hada, 
 M. Ehara, K. Toyota, R. Fukuda, J. Hasegawa, M. Ishida, T. Nakajima, 
 Y. Honda, O. Kitao, H. Nakai, T. Vreven, J. A. Montgomery, Jr., 
 J. E. Peralta, F. Ogliaro, M. Bearpark, J. J. Heyd, E. Brothers, 
 K. N. Kudin, V. N. Staroverov, T. Keith, R. Kobayashi, J. Normand, 
 K. Raghavachari, A. Rendell, J. C. Burant, S. S. Iyengar, J. Tomasi, 
 M. Cossi, N. Rega, J. M. Millam, M. Klene, J. E. Knox, J. B. Cross, 
 V. Bakken, C. Adamo, J. Jaramillo, R. Gomperts, R. E. Stratmann, 
 O. Yazyev, A. J. Austin, R. Cammi, C. Pomelli, J. W. Ochterski, 
 R. L. Martin, K. Morokuma, V. G. Zakrzewski, G. A. Voth, 
 P. Salvador, J. J. Dannenberg, S. Dapprich, A. D. Daniels, 
 O. Farkas, J. B. Foresman, J. V. Ortiz, J. Cioslowski, 
 and D. J. Fox, Gaussian, Inc., Wallingford CT, 2013.
 
 ******************************************
 Gaussian 09:  ES64L-G09RevD.01 24-Apr-2013
                 9-Oct-2016 
 ******************************************
 %mem=6GB
 %nprocshared=2
 Will use up to    2 processors via shared memory.
 %chk=Benzeneb3lyp
 --------------------------------------------
 # opt freq b3lyp/6-311+g** geom=connectivity
 --------------------------------------------
 1/14=-1,18=20,19=15,26=3,38=1,57=2/1,3;
 2/9=110,12=2,17=6,18=5,40=1/2;
 3/5=4,6=6,7=111,11=2,16=1,25=1,30=1,71=1,74=-5/1,2,3;
 4//1;
 5/5=2,38=5/2;
 6/7=2,8=2,9=2,10=2,28=1/1;
 7//1,2,3,16;
 1/14=-1,18=20,19=15,26=3/3(2);
 2/9=110/2;
 99//99;
 2/9=110/2;
 3/5=4,6=6,7=111,11=2,16=1,25=1,30=1,71=1,74=-5/1,2,3;
 4/5=5,16=3,69=1/1;
 5/5=2,38=5/2;
 7//1,2,3,16;
 1/14=-1,18=20,19=15,26=3/3(-5);
 2/9=110/2;
 6/7=2,8=2,9=2,10=2,19=2,28=1/1;
 99/9=1/99;
 -------------------
 Title Card Required
 -------------------
 Symbolic Z-matrix:
 Charge =  0 Multiplicity = 1
 C
 C                    1    B1
 C                    2    B2       1    A1
 C                    3    B3       2    A2       1    D1       0
 C                    4    B4       3    A3       2    D2       0
 C                    1    B5       2    A4       3    D3       0
 H                    1    B6       6    A5       5    D4       0
 H                    2    B7       1    A6       6    D5       0
 H                    3    B8       2    A7       1    D6       0
 H                    4    B9       3    A8       2    D7       0
 H                    5    B10      4    A9       3    D8       0
 H                    6    B11      1    A10      2    D9       0
       Variables:
  B1                    1.39516                  
  B2                    1.39471                  
  B3                    1.39543                  
  B4                    1.39483                  
  B5                    1.39483                  
  B6                    1.09961                  
  B7                    1.09966                  
  B8                    1.09968                  
  B9                    1.09968                  
  B10                   1.09976                  
  B11                   1.0996                   
  A1                  120.00863                  
  A2                  119.99416                  
  A3                  119.99399                  
  A4                  119.99846                  
  A5                  120.00432                  
  A6                  119.98077                  
  A7                  120.01279                  
  A8                  119.98114                  
  A9                  120.01134                  
  A10                 120.008                    
  D1                   -0.05684                  
  D2                    0.03411                  
  D3                    0.03235                  
  D4                 -179.97984                  
  D5                  179.95325                  
  D6                  179.96185                  
  D7                 -179.99644                  
  D8                 -179.99951                  
  D9                  179.98918                  
 

 GradGradGradGradGradGradGradGradGradGradGradGradGradGradGradGradGradGrad
 Berny optimization.
 Initialization pass.
                           ----------------------------
                           !    Initial Parameters    !
                           ! (Angstroms and Degrees)  !
 --------------------------                            --------------------------
 ! Name  Definition              Value          Derivative Info.                !
 --------------------------------------------------------------------------------
 ! R1    R(1,2)                  1.3952         estimate D2E/DX2                !
 ! R2    R(1,6)                  1.3948         estimate D2E/DX2                !
 ! R3    R(1,7)                  1.0996         estimate D2E/DX2                !
 ! R4    R(2,3)                  1.3947         estimate D2E/DX2                !
 ! R5    R(2,8)                  1.0997         estimate D2E/DX2                !
 ! R6    R(3,4)                  1.3954         estimate D2E/DX2                !
 ! R7    R(3,9)                  1.0997         estimate D2E/DX2                !
 ! R8    R(4,5)                  1.3948         estimate D2E/DX2                !
 ! R9    R(4,10)                 1.0997         estimate D2E/DX2                !
 ! R10   R(5,6)                  1.3951         estimate D2E/DX2                !
 ! R11   R(5,11)                 1.0998         estimate D2E/DX2                !
 ! R12   R(6,12)                 1.0996         estimate D2E/DX2                !
 ! A1    A(2,1,6)              119.9985         estimate D2E/DX2                !
 ! A2    A(2,1,7)              119.9972         estimate D2E/DX2                !
 ! A3    A(6,1,7)              120.0043         estimate D2E/DX2                !
 ! A4    A(1,2,3)              120.0086         estimate D2E/DX2                !
 ! A5    A(1,2,8)              119.9808         estimate D2E/DX2                !
 ! A6    A(3,2,8)              120.0106         estimate D2E/DX2                !
 ! A7    A(2,3,4)              119.9942         estimate D2E/DX2                !
 ! A8    A(2,3,9)              120.0128         estimate D2E/DX2                !
 ! A9    A(4,3,9)              119.993          estimate D2E/DX2                !
 ! A10   A(3,4,5)              119.994          estimate D2E/DX2                !
 ! A11   A(3,4,10)             119.9811         estimate D2E/DX2                !
 ! A12   A(5,4,10)             120.0249         estimate D2E/DX2                !
 ! A13   A(4,5,6)              120.0047         estimate D2E/DX2                !
 ! A14   A(4,5,11)             120.0113         estimate D2E/DX2                !
 ! A15   A(6,5,11)             119.984          estimate D2E/DX2                !
 ! A16   A(1,6,5)              120.0            estimate D2E/DX2                !
 ! A17   A(1,6,12)             120.008          estimate D2E/DX2                !
 ! A18   A(5,6,12)             119.992          estimate D2E/DX2                !
 ! D1    D(6,1,2,3)              0.0323         estimate D2E/DX2                !
 ! D2    D(6,1,2,8)            179.9532         estimate D2E/DX2                !
 ! D3    D(7,1,2,3)           -179.9729         estimate D2E/DX2                !
 ! D4    D(7,1,2,8)             -0.052          estimate D2E/DX2                !
 ! D5    D(2,1,6,5)              0.0149         estimate D2E/DX2                !
 ! D6    D(2,1,6,12)           179.9892         estimate D2E/DX2                !
 ! D7    D(7,1,6,5)           -179.9798         estimate D2E/DX2                !
 ! D8    D(7,1,6,12)            -0.0056         estimate D2E/DX2                !
 ! D9    D(1,2,3,4)             -0.0568         estimate D2E/DX2                !
 ! D10   D(1,2,3,9)            179.9619         estimate D2E/DX2                !
 ! D11   D(8,2,3,4)           -179.9777         estimate D2E/DX2                !
 ! D12   D(8,2,3,9)              0.041          estimate D2E/DX2                !
 ! D13   D(2,3,4,5)              0.0341         estimate D2E/DX2                !
 ! D14   D(2,3,4,10)          -179.9964         estimate D2E/DX2                !
 ! D15   D(9,3,4,5)           -179.9846         estimate D2E/DX2                !
 ! D16   D(9,3,4,10)            -0.0151         estimate D2E/DX2                !
 ! D17   D(3,4,5,6)              0.0131         estimate D2E/DX2                !
 ! D18   D(3,4,5,11)          -179.9995         estimate D2E/DX2                !
 ! D19   D(10,4,5,6)          -179.9563         estimate D2E/DX2                !
 ! D20   D(10,4,5,11)            0.0311         estimate D2E/DX2                !
 ! D21   D(4,5,6,1)             -0.0376         estimate D2E/DX2                !
 ! D22   D(4,5,6,12)           179.9881         estimate D2E/DX2                !
 ! D23   D(11,5,6,1)           179.975          estimate D2E/DX2                !
 ! D24   D(11,5,6,12)            0.0007         estimate D2E/DX2                !
 --------------------------------------------------------------------------------
 Trust Radius=3.00D-01 FncErr=1.00D-07 GrdErr=1.00D-06
 Number of steps in this run=     64 maximum allowed number of steps=    100.
 GradGradGradGradGradGradGradGradGradGradGradGradGradGradGradGradGradGrad

                          Input orientation:                          
 ---------------------------------------------------------------------
 Center     Atomic      Atomic             Coordinates (Angstroms)
 Number     Number       Type             X           Y           Z
 ---------------------------------------------------------------------
      1          6           0        0.000000    0.000000    0.000000
      2          6           0        0.000000    0.000000    1.395160
      3          6           0        1.207751    0.000000    2.092698
      4          6           0        2.416260   -0.001199    1.395044
      5          6           0        2.416182   -0.001678    0.000219
      6          6           0        1.207976   -0.000682   -0.697382
      7          1           0       -0.952317    0.000450   -0.549759
      8          1           0       -0.952513    0.001315    1.944668
      9          1           0        1.207831    0.000634    3.192378
     10          1           0        3.368403   -0.001258    1.945244
     11          1           0        3.368463   -0.002631   -0.549903
     12          1           0        1.208159   -0.000862   -1.796986
 ---------------------------------------------------------------------
                    Distance matrix (angstroms):
                    1          2          3          4          5
     1  C    0.000000
     2  C    1.395160   0.000000
     3  C    2.416205   1.394712   0.000000
     4  C    2.790065   2.416260   1.395427   0.000000
     5  C    2.416183   2.789946   2.416356   1.394825   0.000000
     6  C    1.394829   2.416183   2.790080   2.416236   1.395138
     7  H    1.099610   2.165553   3.412986   3.889675   3.413102
     8  H    2.165414   1.099655   2.165330   3.413316   3.889601
     9  H    3.413229   2.165375   1.099680   2.165806   3.413209
    10  H    3.889745   3.413024   2.165678   1.099680   2.165606
    11  H    3.413055   3.889707   3.413506   2.165528   1.099761
    12  H    2.165365   3.413128   3.889684   3.412999   2.165471
                    6          7          8          9         10
     6  C    0.000000
     7  H    2.165331   0.000000
     8  H    3.412938   2.494427   0.000000
     9  H    3.889760   4.320860   2.494768   0.000000
    10  H    3.413344   4.989355   4.320917   2.494678   0.000000
    11  H    2.165516   4.320781   4.989362   4.321228   2.495147
    12  H    1.099604   2.494641   4.320704   4.989364   4.320988
                   11         12
    11  H    0.000000
    12  H    2.494420   0.000000
 Stoichiometry    C6H6
 Framework group  C1[X(C6H6)]
 Deg. of freedom    30
 Full point group                 C1      NOp   1
 Largest Abelian subgroup         C1      NOp   1
 Largest concise Abelian subgroup C1      NOp   1
                         Standard orientation:                         
 ---------------------------------------------------------------------
 Center     Atomic      Atomic             Coordinates (Angstroms)
 Number     Number       Type             X           Y           Z
 ---------------------------------------------------------------------
      1          6           0       -0.176732   -1.383750    0.000005
      2          6           0        1.110097   -0.844730   -0.000364
      3          6           0        1.286859    0.538735    0.000194
      4          6           0        0.176468    1.383868   -0.000075
      5          6           0       -1.110022    0.844906   -0.000185
      6          6           0       -1.286665   -0.539004    0.000252
      7          1           0       -0.315876   -2.474521    0.000015
      8          1           0        1.984941   -1.510981    0.000218
      9          1           0        2.301120    0.963670    0.000537
     10          1           0        0.316086    2.474649    0.000306
     11          1           0       -1.985342    1.510705   -0.000405
     12          1           0       -2.300958   -0.963667    0.000364
 ---------------------------------------------------------------------
 Rotational constants (GHZ):      5.6865650      5.6862639      2.8432074
 Standard basis: 6-311+G(d,p) (5D, 7F)
 There are   174 symmetry adapted cartesian basis functions of A   symmetry.
 There are   168 symmetry adapted basis functions of A   symmetry.
   168 basis functions,   264 primitive gaussians,   174 cartesian basis functions
    21 alpha electrons       21 beta electrons
       nuclear repulsion energy       203.0307483972 Hartrees.
 NAtoms=   12 NActive=   12 NUniq=   12 SFac= 1.00D+00 NAtFMM=   60 NAOKFM=F Big=F
 Integral buffers will be    131072 words long.
 Raffenetti 2 integral format.
 Two-electron integral symmetry is turned on.
 One-electron integrals computed using PRISM.
 NBasis=   168 RedAO= T EigKep=  4.17D-06  NBF=   168
 NBsUse=   168 1.00D-06 EigRej= -1.00D+00 NBFU=   168
 ExpMin= 4.38D-02 ExpMax= 4.56D+03 ExpMxC= 6.82D+02 IAcc=2 IRadAn=         4 AccDes= 0.00D+00
 Harris functional with IExCor=  402 and IRadAn=       4 diagonalized for initial guess.
 HarFok:  IExCor=  402 AccDes= 0.00D+00 IRadAn=         4 IDoV= 1 UseB2=F ITyADJ=14
 ICtDFT=  3500011 ScaDFX=  1.000000  1.000000  1.000000  1.000000
 FoFCou: FMM=F IPFlag=           0 FMFlag=      100000 FMFlg1=           0
         NFxFlg=           0 DoJE=T BraDBF=F KetDBF=T FulRan=T
         wScrn=  0.000000 ICntrl=     500 IOpCl=  0 I1Cent=   200000004 NGrid=           0
         NMat0=    1 NMatS0=      1 NMatT0=    0 NMatD0=    1 NMtDS0=    0 NMtDT0=    0
 Petite list used in FoFCou.
 Keep R1 ints in memory in canonical form, NReq=103561624.
 Requested convergence on RMS density matrix=1.00D-08 within 128 cycles.
 Requested convergence on MAX density matrix=1.00D-06.
 Requested convergence on             energy=1.00D-06.
 No special actions if energy rises.
 SCF Done:  E(RB3LYP) =  -232.310370076     A.U. after   10 cycles
            NFock= 10  Conv=0.99D-09     -V/T= 2.0053

 **********************************************************************

            Population analysis using the SCF density.

 **********************************************************************

 Orbital symmetries:
       Occupied  (A) (A) (A) (A) (A) (A) (A) (A) (A) (A) (A) (A)
                 (A) (A) (A) (A) (A) (A) (A) (A) (A)
       Virtual   (A) (A) (A) (A) (A) (A) (A) (A) (A) (A) (A) (A)
                 (A) (A) (A) (A) (A) (A) (A) (A) (A) (A) (A) (A)
                 (A) (A) (A) (A) (A) (A) (A) (A) (A) (A) (A) (A)
                 (A) (A) (A) (A) (A) (A) (A) (A) (A) (A) (A) (A)
                 (A) (A) (A) (A) (A) (A) (A) (A) (A) (A) (A) (A)
                 (A) (A) (A) (A) (A) (A) (A) (A) (A) (A) (A) (A)
                 (A) (A) (A) (A) (A) (A) (A) (A) (A) (A) (A) (A)
                 (A) (A) (A) (A) (A) (A) (A) (A) (A) (A) (A) (A)
                 (A) (A) (A) (A) (A) (A) (A) (A) (A) (A) (A) (A)
                 (A) (A) (A) (A) (A) (A) (A) (A) (A) (A) (A) (A)
                 (A) (A) (A) (A) (A) (A) (A) (A) (A) (A) (A) (A)
                 (A) (A) (A) (A) (A) (A) (A) (A) (A) (A) (A) (A)
                 (A) (A) (A)
 The electronic state is 1-A.
 Alpha  occ. eigenvalues --  -10.18140 -10.18116 -10.18116 -10.18061 -10.18060
 Alpha  occ. eigenvalues --  -10.18034  -0.85996  -0.75077  -0.75073  -0.60650
 Alpha  occ. eigenvalues --   -0.60646  -0.52692  -0.46240  -0.45372  -0.42620
 Alpha  occ. eigenvalues --   -0.42618  -0.37343  -0.34978  -0.34971  -0.26049
 Alpha  occ. eigenvalues --   -0.26045
 Alpha virt. eigenvalues --   -0.01798  -0.01792   0.00364   0.02295   0.02296
 Alpha virt. eigenvalues --    0.04483   0.04483   0.06261   0.07025   0.07718
 Alpha virt. eigenvalues --    0.08936   0.08955   0.09816   0.12416   0.13969
 Alpha virt. eigenvalues --    0.13980   0.14162   0.14164   0.14384   0.14416
 Alpha virt. eigenvalues --    0.16614   0.19292   0.19298   0.19968   0.20570
 Alpha virt. eigenvalues --    0.20570   0.20586   0.20602   0.22226   0.23164
 Alpha virt. eigenvalues --    0.23179   0.26537   0.28170   0.32216   0.32223
 Alpha virt. eigenvalues --    0.32343   0.32349   0.40565   0.45074   0.50219
 Alpha virt. eigenvalues --    0.52172   0.52182   0.52957   0.54470   0.54479
 Alpha virt. eigenvalues --    0.54800   0.57343   0.57345   0.60467   0.61722
 Alpha virt. eigenvalues --    0.61723   0.67286   0.68773   0.68778   0.71790
 Alpha virt. eigenvalues --    0.71797   0.72736   0.77362   0.82400   0.82412
 Alpha virt. eigenvalues --    0.82565   0.82566   0.85363   0.85368   0.85491
 Alpha virt. eigenvalues --    0.86878   0.93619   1.00983   1.00990   1.01001
 Alpha virt. eigenvalues --    1.07666   1.07668   1.13756   1.13759   1.27094
 Alpha virt. eigenvalues --    1.29075   1.45813   1.49023   1.49025   1.50353
 Alpha virt. eigenvalues --    1.56235   1.56554   1.56557   1.63710   1.63712
 Alpha virt. eigenvalues --    1.65873   1.65880   1.70437   1.76189   1.76193
 Alpha virt. eigenvalues --    1.79559   1.79569   1.83412   1.92525   1.92538
 Alpha virt. eigenvalues --    1.94079   1.94081   1.95692   1.95947   2.00822
 Alpha virt. eigenvalues --    2.00830   2.06797   2.06803   2.30652   2.34180
 Alpha virt. eigenvalues --    2.34196   2.37426   2.37427   2.38919   2.38924
 Alpha virt. eigenvalues --    2.60024   2.60038   2.63500   2.64752   2.66354
 Alpha virt. eigenvalues --    2.71164   2.71167   2.75053   2.75058   2.77198
 Alpha virt. eigenvalues --    2.78785   2.78787   2.88444   2.88448   2.88570
 Alpha virt. eigenvalues --    2.90496   2.90504   3.07377   3.10120   3.33385
 Alpha virt. eigenvalues --    3.33406   3.46627   3.46642   3.48199   3.64781
 Alpha virt. eigenvalues --    3.95526   3.95533   4.05486   4.13050   4.13052
 Alpha virt. eigenvalues --    4.83980  23.55322  23.94397  23.94438  24.07823
 Alpha virt. eigenvalues --   24.07866  24.18702
          Condensed to atoms (all electrons):
               1          2          3          4          5          6
     1  C    4.790259   0.569531  -0.047397  -0.055459  -0.047468   0.569686
     2  C    0.569531   4.789551   0.570034  -0.047469  -0.055279  -0.047680
     3  C   -0.047397   0.570034   4.789987   0.569306  -0.047647  -0.055307
     4  C   -0.055459  -0.047469   0.569306   4.790358   0.569866  -0.047409
     5  C   -0.047468  -0.055279  -0.047647   0.569866   4.789619   0.569687
     6  C    0.569686  -0.047680  -0.055307  -0.047409   0.569687   4.789902
     7  H    0.381379  -0.011856  -0.005803   0.001512  -0.005759  -0.011784
     8  H   -0.011815   0.381147  -0.011668  -0.005785   0.001525  -0.005772
     9  H   -0.005768  -0.011818   0.381343  -0.011833  -0.005747   0.001504
    10  H    0.001515  -0.005766  -0.011857   0.381369  -0.011780  -0.005805
    11  H   -0.005818   0.001533  -0.005770  -0.011699   0.381104  -0.011731
    12  H   -0.011801  -0.005744   0.001498  -0.005745  -0.011888   0.381370
               7          8          9         10         11         12
     1  C    0.381379  -0.011815  -0.005768   0.001515  -0.005818  -0.011801
     2  C   -0.011856   0.381147  -0.011818  -0.005766   0.001533  -0.005744
     3  C   -0.005803  -0.011668   0.381343  -0.011857  -0.005770   0.001498
     4  C    0.001512  -0.005785  -0.011833   0.381369  -0.011699  -0.005745
     5  C   -0.005759   0.001525  -0.005747  -0.011780   0.381104  -0.011888
     6  C   -0.011784  -0.005772   0.001504  -0.005805  -0.011731   0.381370
     7  H    0.542203  -0.008023  -0.000260   0.000067  -0.000261  -0.008029
     8  H   -0.008023   0.542283  -0.008027  -0.000261   0.000067  -0.000261
     9  H   -0.000260  -0.008027   0.542199  -0.008017  -0.000261   0.000067
    10  H    0.000067  -0.000261  -0.008017   0.542182  -0.008022  -0.000260
    11  H   -0.000261   0.000067  -0.000261  -0.008022   0.542282  -0.008023
    12  H   -0.008029  -0.000261   0.000067  -0.000260  -0.008023   0.542210
 Mulliken charges:
               1
     1  C   -0.126845
     2  C   -0.126184
     3  C   -0.126720
     4  C   -0.127012
     5  C   -0.126234
     6  C   -0.126662
     7  H    0.126612
     8  H    0.126589
     9  H    0.126618
    10  H    0.126635
    11  H    0.126596
    12  H    0.126607
 Sum of Mulliken charges =   0.00000
 Mulliken charges with hydrogens summed into heavy atoms:
               1
     1  C   -0.000233
     2  C    0.000405
     3  C   -0.000102
     4  C   -0.000377
     5  C    0.000363
     6  C   -0.000055
 Electronic spatial extent (au):  <R**2>=            461.4621
 Charge=              0.0000 electrons
 Dipole moment (field-independent basis, Debye):
    X=              0.0000    Y=             -0.0002    Z=              0.0008  Tot=              0.0008
 Quadrupole moment (field-independent basis, Debye-Ang):
   XX=            -32.1939   YY=            -32.1941   ZZ=            -40.4349
   XY=              0.0012   XZ=              0.0019   YZ=             -0.0001
 Traceless Quadrupole moment (field-independent basis, Debye-Ang):
   XX=              2.7470   YY=              2.7469   ZZ=             -5.4939
   XY=              0.0012   XZ=              0.0019   YZ=             -0.0001
 Octapole moment (field-independent basis, Debye-Ang**2):
  XXX=             -0.0047  YYY=             -0.0036  ZZZ=              0.0013  XYY=              0.0049
  XXY=              0.0020  XXZ=              0.0043  XZZ=             -0.0003  YZZ=             -0.0013
  YYZ=              0.0032  XYZ=              0.0018
 Hexadecapole moment (field-independent basis, Debye-Ang**3):
 XXXX=           -277.9336 YYYY=           -277.9163 ZZZZ=            -50.1839 XXXY=              0.0054
 XXXZ=              0.0110 YYYX=              0.0079 YYYZ=              0.0031 ZZZX=              0.0027
 ZZZY=             -0.0001 XXYY=            -92.6435 XXZZ=            -65.8836 YYZZ=            -65.8801
 XXYZ=             -0.0036 YYXZ=              0.0055 ZZXY=              0.0006
 N-N= 2.030307483972D+02 E-N=-9.444206805203D+02  KE= 2.310869047961D+02
 Calling FoFJK, ICntrl=      2127 FMM=F ISym2X=0 I1Cent= 0 IOpClX= 0 NMat=1 NMatS=1 NMatT=0.
 ***** Axes restored to original set *****
 -------------------------------------------------------------------
 Center     Atomic                   Forces (Hartrees/Bohr)
 Number     Number              X              Y              Z
 -------------------------------------------------------------------
      1        6          -0.007999192   -0.000015804   -0.004533591
      2        6          -0.008108261    0.000123968    0.004484090
      3        6           0.000368774   -0.000051461    0.009173487
      4        6           0.007738805    0.000034016    0.004872706
      5        6           0.007967836    0.000013597   -0.004752674
      6        6           0.000103215   -0.000056847   -0.009215683
      7        1           0.008504413    0.000000947    0.004919325
      8        1           0.008526631   -0.000047327   -0.004901726
      9        1          -0.000015218   -0.000007367   -0.009873833
     10        1          -0.008527554   -0.000016625   -0.004971234
     11        1          -0.008561660    0.000015871    0.004975608
     12        1           0.000002211    0.000007031    0.009823524
 -------------------------------------------------------------------
 Cartesian Forces:  Max     0.009873833 RMS     0.005507805

 GradGradGradGradGradGradGradGradGradGradGradGradGradGradGradGradGradGrad
 Berny optimization.
 FormGI is forming the generalized inverse of G from B-inverse, IUseBI=4.
 Internal  Forces:  Max     0.009902435 RMS     0.003292389
 Search for a local minimum.
 Step number   1 out of a maximum of   64
 All quantities printed in internal units (Hartrees-Bohrs-Radians)
 Mixed Optimization -- RFO/linear search
 Second derivative matrix not updated -- first step.
 ITU=  0
     Eigenvalues ---    0.02152   0.02153   0.02154   0.02155   0.02155
     Eigenvalues ---    0.02155   0.02155   0.02156   0.02157   0.16000
     Eigenvalues ---    0.16000   0.16000   0.16000   0.16000   0.16000
     Eigenvalues ---    0.22000   0.22000   0.22000   0.33709   0.33718
     Eigenvalues ---    0.33718   0.33720   0.33725   0.33726   0.42106
     Eigenvalues ---    0.42123   0.46412   0.46453   0.46466   0.46497
 RFO step:  Lambda=-1.72522397D-03 EMin= 2.15189818D-02
 Linear search not attempted -- first point.
 Iteration  1 RMS(Cart)=  0.01016825 RMS(Int)=  0.00000279
 Iteration  2 RMS(Cart)=  0.00000239 RMS(Int)=  0.00000009
 Iteration  3 RMS(Cart)=  0.00000000 RMS(Int)=  0.00000009
 Variable       Old X    -DE/DX   Delta X   Delta X   Delta X     New X
                                 (Linear)    (Quad)   (Total)
    R1        2.63647  -0.00067   0.00000  -0.00142  -0.00142   2.63505
    R2        2.63584  -0.00057   0.00000  -0.00121  -0.00121   2.63463
    R3        2.07796  -0.00982   0.00000  -0.02898  -0.02898   2.04898
    R4        2.63562  -0.00049   0.00000  -0.00106  -0.00106   2.63457
    R5        2.07805  -0.00984   0.00000  -0.02902  -0.02902   2.04903
    R6        2.63697  -0.00090   0.00000  -0.00194  -0.00194   2.63503
    R7        2.07809  -0.00987   0.00000  -0.02913  -0.02913   2.04896
    R8        2.63584  -0.00055   0.00000  -0.00119  -0.00119   2.63465
    R9        2.07809  -0.00987   0.00000  -0.02913  -0.02913   2.04897
   R10        2.63643  -0.00069   0.00000  -0.00147  -0.00147   2.63496
   R11        2.07825  -0.00990   0.00000  -0.02923  -0.02923   2.04902
   R12        2.07795  -0.00982   0.00000  -0.02898  -0.02898   2.04897
    A1        2.09437  -0.00001   0.00000  -0.00001  -0.00001   2.09435
    A2        2.09435   0.00000   0.00000  -0.00005  -0.00005   2.09429
    A3        2.09447   0.00002   0.00000   0.00007   0.00007   2.09454
    A4        2.09455   0.00000   0.00000   0.00000   0.00000   2.09454
    A5        2.09406   0.00002   0.00000   0.00011   0.00011   2.09417
    A6        2.09458  -0.00001   0.00000  -0.00010  -0.00010   2.09448
    A7        2.09429   0.00001   0.00000   0.00000   0.00000   2.09429
    A8        2.09462  -0.00002   0.00000  -0.00008  -0.00008   2.09453
    A9        2.09427   0.00001   0.00000   0.00009   0.00009   2.09436
   A10        2.09429   0.00002   0.00000   0.00006   0.00006   2.09435
   A11        2.09407   0.00003   0.00000   0.00022   0.00022   2.09428
   A12        2.09483  -0.00005   0.00000  -0.00028  -0.00028   2.09455
   A13        2.09448   0.00002   0.00000   0.00007   0.00007   2.09455
   A14        2.09459  -0.00004   0.00000  -0.00019  -0.00019   2.09440
   A15        2.09411   0.00002   0.00000   0.00012   0.00012   2.09424
   A16        2.09440  -0.00003   0.00000  -0.00011  -0.00011   2.09429
   A17        2.09453   0.00002   0.00000   0.00007   0.00007   2.09461
   A18        2.09426   0.00001   0.00000   0.00004   0.00004   2.09429
    D1        0.00056  -0.00002   0.00000  -0.00067  -0.00067  -0.00010
    D2        3.14078   0.00002   0.00000   0.00084   0.00084  -3.14157
    D3       -3.14112  -0.00001   0.00000  -0.00064  -0.00064   3.14143
    D4       -0.00091   0.00002   0.00000   0.00087   0.00087  -0.00004
    D5        0.00026  -0.00001   0.00000  -0.00034  -0.00034  -0.00008
    D6        3.14140   0.00001   0.00000   0.00025   0.00025  -3.14153
    D7       -3.14124  -0.00001   0.00000  -0.00037  -0.00037   3.14157
    D8       -0.00010   0.00001   0.00000   0.00022   0.00022   0.00013
    D9       -0.00099   0.00003   0.00000   0.00119   0.00119   0.00020
   D10        3.14093   0.00002   0.00000   0.00079   0.00079  -3.14147
   D11       -3.14120  -0.00001   0.00000  -0.00032  -0.00032  -3.14152
   D12        0.00072  -0.00002   0.00000  -0.00072  -0.00072  -0.00001
   D13        0.00060  -0.00002   0.00000  -0.00070  -0.00070  -0.00011
   D14       -3.14153   0.00000   0.00000  -0.00017  -0.00017   3.14148
   D15       -3.14132  -0.00001   0.00000  -0.00030  -0.00030   3.14156
   D16       -0.00026   0.00001   0.00000   0.00023   0.00023  -0.00003
   D17        0.00023  -0.00001   0.00000  -0.00031  -0.00031  -0.00008
   D18       -3.14158   0.00000   0.00000   0.00010   0.00010  -3.14148
   D19       -3.14083  -0.00002   0.00000  -0.00084  -0.00084   3.14152
   D20        0.00054  -0.00001   0.00000  -0.00043  -0.00043   0.00012
   D21       -0.00066   0.00002   0.00000   0.00083   0.00083   0.00018
   D22        3.14138   0.00001   0.00000   0.00023   0.00023  -3.14157
   D23        3.14116   0.00001   0.00000   0.00042   0.00042   3.14158
   D24        0.00001   0.00000   0.00000  -0.00018  -0.00018  -0.00016
         Item               Value     Threshold  Converged?
 Maximum Force            0.009902     0.000450     NO 
 RMS     Force            0.003292     0.000300     NO 
 Maximum Displacement     0.030516     0.001800     NO 
 RMS     Displacement     0.010168     0.001200     NO 
 Predicted change in Energy=-8.670055D-04
 GradGradGradGradGradGradGradGradGradGradGradGradGradGradGradGradGradGrad

                          Input orientation:                          
 ---------------------------------------------------------------------
 Center     Atomic      Atomic             Coordinates (Angstroms)
 Number     Number       Type             X           Y           Z
 ---------------------------------------------------------------------
      1          6           0        0.000594    0.000069    0.000331
      2          6           0        0.000623    0.000573    1.394739
      3          6           0        1.207906   -0.000095    2.091967
      4          6           0        2.415503   -0.001028    1.394792
      5          6           0        2.415470   -0.001423    0.000596
      6          6           0        1.208008   -0.000980   -0.696738
      7          1           0       -0.938481    0.000434   -0.541689
      8          1           0       -0.938521    0.001365    1.936692
      9          1           0        1.207920    0.000184    3.176230
     10          1           0        3.354436   -0.001444    1.937048
     11          1           0        3.354481   -0.002254   -0.541579
     12          1           0        1.208259   -0.001312   -1.781007
 ---------------------------------------------------------------------
                    Distance matrix (angstroms):
                    1          2          3          4          5
     1  C    0.000000
     2  C    1.394408   0.000000
     3  C    2.415066   1.394152   0.000000
     4  C    2.788604   2.414881   1.394398   0.000000
     5  C    2.414877   2.788392   2.414963   1.394197   0.000000
     6  C    1.394186   2.414966   2.788705   2.415066   1.394360
     7  H    1.084273   2.152131   3.397517   3.872877   3.397509
     8  H    2.152076   1.084299   2.152037   3.397520   3.872691
     9  H    3.397642   2.152040   1.084263   2.152157   3.397474
    10  H    3.872871   3.397376   2.152113   1.084267   2.152093
    11  H    3.397386   3.872686   3.397551   2.152025   1.084295
    12  H    2.152120   3.397610   3.872974   3.397520   2.152084
                    6          7          8          9         10
     6  C    0.000000
     7  H    2.152082   0.000000
     8  H    3.397433   2.478381   0.000000
     9  H    3.872968   4.293013   2.478642   0.000000
    10  H    3.397644   4.957144   4.292958   2.478528   0.000000
    11  H    2.152074   4.292963   4.956986   4.292998   2.478628
    12  H    1.084269   2.478791   4.293013   4.957237   4.293019
                   11         12
    11  H    0.000000
    12  H    2.478397   0.000000
 Stoichiometry    C6H6
 Framework group  C1[X(C6H6)]
 Deg. of freedom    30
 Full point group                 C1      NOp   1
 Largest Abelian subgroup         C1      NOp   1
 Largest concise Abelian subgroup C1      NOp   1
                         Standard orientation:                         
 ---------------------------------------------------------------------
 Center     Atomic      Atomic             Coordinates (Angstroms)
 Number     Number       Type             X           Y           Z
 ---------------------------------------------------------------------
      1          6           0       -0.994800   -0.976959    0.000002
      2          6           0        0.348823   -1.349854    0.000062
      3          6           0        1.343532   -0.373015   -0.000055
      4          6           0        0.994715    0.977048    0.000007
      5          6           0       -0.348706    1.349883    0.000057
      6          6           0       -1.343565    0.372900   -0.000051
      7          1           0       -1.768224   -1.736869   -0.000062
      8          1           0        0.619868   -2.399730    0.000080
      9          1           0        2.388303   -0.662979   -0.000121
     10          1           0        1.768328    1.736757    0.000020
     11          1           0       -0.620001    2.399689    0.000000
     12          1           0       -2.388271    0.663120   -0.000038
 ---------------------------------------------------------------------
 Rotational constants (GHZ):      5.7071168      5.7062737      2.8533476
 Standard basis: 6-311+G(d,p) (5D, 7F)
 There are   174 symmetry adapted cartesian basis functions of A   symmetry.
 There are   168 symmetry adapted basis functions of A   symmetry.
   168 basis functions,   264 primitive gaussians,   174 cartesian basis functions
    21 alpha electrons       21 beta electrons
       nuclear repulsion energy       203.5526310494 Hartrees.
 NAtoms=   12 NActive=   12 NUniq=   12 SFac= 1.00D+00 NAtFMM=   60 NAOKFM=F Big=F
 Integral buffers will be    131072 words long.
 Raffenetti 2 integral format.
 Two-electron integral symmetry is turned on.
 One-electron integrals computed using PRISM.
 NBasis=   168 RedAO= T EigKep=  4.13D-06  NBF=   168
 NBsUse=   168 1.00D-06 EigRej= -1.00D+00 NBFU=   168
 Initial guess from the checkpoint file:  "Benzeneb3lyp.chk"
 B after Tr=     0.000000    0.000000    0.000000
         Rot=    0.944835    0.000000    0.000000    0.327547 Ang=  38.24 deg.
 ExpMin= 4.38D-02 ExpMax= 4.56D+03 ExpMxC= 6.82D+02 IAcc=2 IRadAn=         4 AccDes= 0.00D+00
 Harris functional with IExCor=  402 and IRadAn=       4 diagonalized for initial guess.
 HarFok:  IExCor=  402 AccDes= 0.00D+00 IRadAn=         4 IDoV= 1 UseB2=F ITyADJ=14
 ICtDFT=  3500011 ScaDFX=  1.000000  1.000000  1.000000  1.000000
 FoFCou: FMM=F IPFlag=           0 FMFlag=      100000 FMFlg1=           0
         NFxFlg=           0 DoJE=T BraDBF=F KetDBF=T FulRan=T
         wScrn=  0.000000 ICntrl=     500 IOpCl=  0 I1Cent=   200000004 NGrid=           0
         NMat0=    1 NMatS0=      1 NMatT0=    0 NMatD0=    1 NMtDS0=    0 NMtDT0=    0
 Petite list used in FoFCou.
 Keep R1 ints in memory in canonical form, NReq=103561624.
 Requested convergence on RMS density matrix=1.00D-08 within 128 cycles.
 Requested convergence on MAX density matrix=1.00D-06.
 Requested convergence on             energy=1.00D-06.
 No special actions if energy rises.
 SCF Done:  E(RB3LYP) =  -232.311271124     A.U. after    8 cycles
            NFock=  8  Conv=0.65D-08     -V/T= 2.0047
 Calling FoFJK, ICntrl=      2127 FMM=F ISym2X=0 I1Cent= 0 IOpClX= 0 NMat=1 NMatS=1 NMatT=0.
 ***** Axes restored to original set *****
 -------------------------------------------------------------------
 Center     Atomic                   Forces (Hartrees/Bohr)
 Number     Number              X              Y              Z
 -------------------------------------------------------------------
      1        6          -0.000316383   -0.000001870   -0.000055431
      2        6          -0.000301441   -0.000013613    0.000020574
      3        6           0.000121681    0.000012536    0.000186293
      4        6           0.000216710   -0.000000304    0.000217692
      5        6           0.000209537   -0.000015741   -0.000180432
      6        6           0.000063597    0.000014542   -0.000191209
      7        1          -0.000078503    0.000003491   -0.000051886
      8        1          -0.000073414    0.000000155    0.000057340
      9        1          -0.000009099    0.000001409    0.000112643
     10        1           0.000091383   -0.000001763    0.000036814
     11        1           0.000084922    0.000005132   -0.000043985
     12        1          -0.000008990   -0.000003973   -0.000108413
 -------------------------------------------------------------------
 Cartesian Forces:  Max     0.000316383 RMS     0.000119866

 GradGradGradGradGradGradGradGradGradGradGradGradGradGradGradGradGradGrad
 Berny optimization.
 Using GEDIIS/GDIIS optimizer.
 FormGI is forming the generalized inverse of G from B-inverse, IUseBI=4.
 Internal  Forces:  Max     0.000439658 RMS     0.000124935
 Search for a local minimum.
 Step number   2 out of a maximum of   64
 All quantities printed in internal units (Hartrees-Bohrs-Radians)
 Mixed Optimization -- En-DIIS/RFO-DIIS
 Update second derivatives using D2CorX and points    1    2
 DE= -9.01D-04 DEPred=-8.67D-04 R= 1.04D+00
 TightC=F SS=  1.41D+00  RLast= 7.14D-02 DXNew= 5.0454D-01 2.1411D-01
 Trust test= 1.04D+00 RLast= 7.14D-02 DXMaxT set to 3.00D-01
 ITU=  1  0
 Use linear search instead of GDIIS.
     Eigenvalues ---    0.02152   0.02153   0.02154   0.02155   0.02155
     Eigenvalues ---    0.02155   0.02156   0.02156   0.02157   0.16000
     Eigenvalues ---    0.16000   0.16000   0.16000   0.16000   0.16000
     Eigenvalues ---    0.21999   0.22000   0.22000   0.33710   0.33717
     Eigenvalues ---    0.33719   0.33723   0.33725   0.34063   0.42103
     Eigenvalues ---    0.42119   0.46436   0.46457   0.46466   0.46784
 RFO step:  Lambda=-1.63335728D-06 EMin= 2.15190125D-02
 Quartic linear search produced a step of -0.00996.
 Iteration  1 RMS(Cart)=  0.00042438 RMS(Int)=  0.00000003
 Iteration  2 RMS(Cart)=  0.00000003 RMS(Int)=  0.00000001
 Variable       Old X    -DE/DX   Delta X   Delta X   Delta X     New X
                                 (Linear)    (Quad)   (Total)
    R1        2.63505   0.00027   0.00001   0.00055   0.00057   2.63561
    R2        2.63463   0.00040   0.00001   0.00084   0.00085   2.63548
    R3        2.04898   0.00009   0.00029  -0.00009   0.00020   2.04918
    R4        2.63457   0.00044   0.00001   0.00092   0.00093   2.63550
    R5        2.04903   0.00009   0.00029  -0.00010   0.00019   2.04922
    R6        2.63503   0.00030   0.00002   0.00062   0.00064   2.63567
    R7        2.04896   0.00011   0.00029  -0.00004   0.00025   2.04921
    R8        2.63465   0.00036   0.00001   0.00076   0.00077   2.63542
    R9        2.04897   0.00010   0.00029  -0.00008   0.00021   2.04918
   R10        2.63496   0.00034   0.00001   0.00072   0.00073   2.63569
   R11        2.04902   0.00010   0.00029  -0.00009   0.00020   2.04922
   R12        2.04897   0.00011   0.00029  -0.00005   0.00024   2.04921
    A1        2.09435  -0.00004   0.00000  -0.00019  -0.00019   2.09416
    A2        2.09429   0.00003   0.00000   0.00015   0.00015   2.09444
    A3        2.09454   0.00001   0.00000   0.00004   0.00004   2.09458
    A4        2.09454  -0.00001   0.00000  -0.00003  -0.00003   2.09451
    A5        2.09417   0.00001   0.00000   0.00008   0.00008   2.09425
    A6        2.09448  -0.00001   0.00000  -0.00005  -0.00005   2.09443
    A7        2.09429   0.00005   0.00000   0.00022   0.00022   2.09451
    A8        2.09453  -0.00004   0.00000  -0.00019  -0.00018   2.09435
    A9        2.09436  -0.00001   0.00000  -0.00003  -0.00004   2.09433
   A10        2.09435  -0.00004   0.00000  -0.00019  -0.00019   2.09416
   A11        2.09428   0.00003   0.00000   0.00017   0.00017   2.09445
   A12        2.09455   0.00001   0.00000   0.00002   0.00002   2.09457
   A13        2.09455  -0.00001   0.00000  -0.00003  -0.00003   2.09451
   A14        2.09440   0.00000   0.00000  -0.00003  -0.00003   2.09437
   A15        2.09424   0.00001   0.00000   0.00006   0.00006   2.09430
   A16        2.09429   0.00005   0.00000   0.00022   0.00022   2.09451
   A17        2.09461  -0.00003   0.00000  -0.00015  -0.00015   2.09446
   A18        2.09429  -0.00002   0.00000  -0.00007  -0.00007   2.09422
    D1       -0.00010   0.00000   0.00001   0.00012   0.00012   0.00002
    D2       -3.14157   0.00000  -0.00001  -0.00001  -0.00002  -3.14159
    D3        3.14143   0.00000   0.00001   0.00017   0.00018  -3.14158
    D4       -0.00004   0.00000  -0.00001   0.00004   0.00003   0.00000
    D5       -0.00008   0.00000   0.00000   0.00009   0.00010   0.00001
    D6       -3.14153   0.00000   0.00000  -0.00006  -0.00006  -3.14159
    D7        3.14157   0.00000   0.00000   0.00003   0.00004  -3.14158
    D8        0.00013   0.00000   0.00000  -0.00012  -0.00012   0.00001
    D9        0.00020  -0.00001  -0.00001  -0.00022  -0.00023  -0.00004
   D10       -3.14147   0.00000  -0.00001  -0.00011  -0.00012  -3.14159
   D11       -3.14152   0.00000   0.00000  -0.00009  -0.00009   3.14157
   D12       -0.00001   0.00000   0.00001   0.00002   0.00003   0.00002
   D13       -0.00011   0.00000   0.00001   0.00012   0.00013   0.00002
   D14        3.14148   0.00000   0.00000   0.00013   0.00013  -3.14157
   D15        3.14156   0.00000   0.00000   0.00001   0.00001   3.14157
   D16       -0.00003   0.00000   0.00000   0.00001   0.00001  -0.00002
   D17       -0.00008   0.00000   0.00000   0.00009   0.00009   0.00001
   D18       -3.14148   0.00000   0.00000  -0.00013  -0.00013   3.14158
   D19        3.14152   0.00000   0.00001   0.00008   0.00009  -3.14158
   D20        0.00012   0.00000   0.00000  -0.00013  -0.00013  -0.00001
   D21        0.00018   0.00000  -0.00001  -0.00019  -0.00020  -0.00003
   D22       -3.14157   0.00000   0.00000  -0.00004  -0.00004   3.14158
   D23        3.14158   0.00000   0.00000   0.00002   0.00001   3.14159
   D24       -0.00016   0.00000   0.00000   0.00017   0.00017   0.00001
         Item               Value     Threshold  Converged?
 Maximum Force            0.000440     0.000450     YES
 RMS     Force            0.000125     0.000300     YES
 Maximum Displacement     0.001075     0.001800     YES
 RMS     Displacement     0.000424     0.001200     YES
 Predicted change in Energy=-9.291302D-07
 Optimization completed.
    -- Stationary point found.
                           ----------------------------
                           !   Optimized Parameters   !
                           ! (Angstroms and Degrees)  !
 --------------------------                            --------------------------
 ! Name  Definition              Value          Derivative Info.                !
 --------------------------------------------------------------------------------
 ! R1    R(1,2)                  1.3944         -DE/DX =    0.0003              !
 ! R2    R(1,6)                  1.3942         -DE/DX =    0.0004              !
 ! R3    R(1,7)                  1.0843         -DE/DX =    0.0001              !
 ! R4    R(2,3)                  1.3942         -DE/DX =    0.0004              !
 ! R5    R(2,8)                  1.0843         -DE/DX =    0.0001              !
 ! R6    R(3,4)                  1.3944         -DE/DX =    0.0003              !
 ! R7    R(3,9)                  1.0843         -DE/DX =    0.0001              !
 ! R8    R(4,5)                  1.3942         -DE/DX =    0.0004              !
 ! R9    R(4,10)                 1.0843         -DE/DX =    0.0001              !
 ! R10   R(5,6)                  1.3944         -DE/DX =    0.0003              !
 ! R11   R(5,11)                 1.0843         -DE/DX =    0.0001              !
 ! R12   R(6,12)                 1.0843         -DE/DX =    0.0001              !
 ! A1    A(2,1,6)              119.9977         -DE/DX =    0.0                 !
 ! A2    A(2,1,7)              119.9941         -DE/DX =    0.0                 !
 ! A3    A(6,1,7)              120.0082         -DE/DX =    0.0                 !
 ! A4    A(1,2,3)              120.0084         -DE/DX =    0.0                 !
 ! A5    A(1,2,8)              119.9868         -DE/DX =    0.0                 !
 ! A6    A(3,2,8)              120.0048         -DE/DX =    0.0                 !
 ! A7    A(2,3,4)              119.9939         -DE/DX =    0.0                 !
 ! A8    A(2,3,9)              120.008          -DE/DX =    0.0                 !
 ! A9    A(4,3,9)              119.9981         -DE/DX =    0.0                 !
 ! A10   A(3,4,5)              119.9975         -DE/DX =    0.0                 !
 ! A11   A(3,4,10)             119.9937         -DE/DX =    0.0                 !
 ! A12   A(5,4,10)             120.0088         -DE/DX =    0.0                 !
 ! A13   A(4,5,6)              120.0087         -DE/DX =    0.0                 !
 ! A14   A(4,5,11)             120.0003         -DE/DX =    0.0                 !
 ! A15   A(6,5,11)             119.991          -DE/DX =    0.0                 !
 ! A16   A(1,6,5)              119.9938         -DE/DX =    0.0                 !
 ! A17   A(1,6,12)             120.0121         -DE/DX =    0.0                 !
 ! A18   A(5,6,12)             119.994          -DE/DX =    0.0                 !
 ! D1    D(6,1,2,3)             -0.0059         -DE/DX =    0.0                 !
 ! D2    D(6,1,2,8)           -179.9986         -DE/DX =    0.0                 !
 ! D3    D(7,1,2,3)           -180.0094         -DE/DX =    0.0                 !
 ! D4    D(7,1,2,8)             -0.0022         -DE/DX =    0.0                 !
 ! D5    D(2,1,6,5)             -0.0048         -DE/DX =    0.0                 !
 ! D6    D(2,1,6,12)          -179.9963         -DE/DX =    0.0                 !
 ! D7    D(7,1,6,5)           -180.0013         -DE/DX =    0.0                 !
 ! D8    D(7,1,6,12)             0.0072         -DE/DX =    0.0                 !
 ! D9    D(1,2,3,4)              0.0113         -DE/DX =    0.0                 !
 ! D10   D(1,2,3,9)           -179.9931         -DE/DX =    0.0                 !
 ! D11   D(8,2,3,4)            180.0041         -DE/DX =    0.0                 !
 ! D12   D(8,2,3,9)             -0.0004         -DE/DX =    0.0                 !
 ! D13   D(2,3,4,5)             -0.0061         -DE/DX =    0.0                 !
 ! D14   D(2,3,4,10)          -180.0064         -DE/DX =    0.0                 !
 ! D15   D(9,3,4,5)            179.9984         -DE/DX =    0.0                 !
 ! D16   D(9,3,4,10)            -0.0019         -DE/DX =    0.0                 !
 ! D17   D(3,4,5,6)             -0.0046         -DE/DX =    0.0                 !
 ! D18   D(3,4,5,11)           180.0064         -DE/DX =    0.0                 !
 ! D19   D(10,4,5,6)          -180.0043         -DE/DX =    0.0                 !
 ! D20   D(10,4,5,11)            0.0066         -DE/DX =    0.0                 !
 ! D21   D(4,5,6,1)              0.01           -DE/DX =    0.0                 !
 ! D22   D(4,5,6,12)           180.0016         -DE/DX =    0.0                 !
 ! D23   D(11,5,6,1)           179.9991         -DE/DX =    0.0                 !
 ! D24   D(11,5,6,12)           -0.0094         -DE/DX =    0.0                 !
 --------------------------------------------------------------------------------
 GradGradGradGradGradGradGradGradGradGradGradGradGradGradGradGradGradGrad

                          Input orientation:                          
 ---------------------------------------------------------------------
 Center     Atomic      Atomic             Coordinates (Angstroms)
 Number     Number       Type             X           Y           Z
 ---------------------------------------------------------------------
      1          6           0        0.000594    0.000069    0.000331
      2          6           0        0.000623    0.000573    1.394739
      3          6           0        1.207906   -0.000095    2.091967
      4          6           0        2.415503   -0.001028    1.394792
      5          6           0        2.415470   -0.001423    0.000596
      6          6           0        1.208008   -0.000980   -0.696738
      7          1           0       -0.938481    0.000434   -0.541689
      8          1           0       -0.938521    0.001365    1.936692
      9          1           0        1.207920    0.000184    3.176230
     10          1           0        3.354436   -0.001444    1.937048
     11          1           0        3.354481   -0.002254   -0.541579
     12          1           0        1.208259   -0.001312   -1.781007
 ---------------------------------------------------------------------
                    Distance matrix (angstroms):
                    1          2          3          4          5
     1  C    0.000000
     2  C    1.394408   0.000000
     3  C    2.415066   1.394152   0.000000
     4  C    2.788604   2.414881   1.394398   0.000000
     5  C    2.414877   2.788392   2.414963   1.394197   0.000000
     6  C    1.394186   2.414966   2.788705   2.415066   1.394360
     7  H    1.084273   2.152131   3.397517   3.872877   3.397509
     8  H    2.152076   1.084299   2.152037   3.397520   3.872691
     9  H    3.397642   2.152040   1.084263   2.152157   3.397474
    10  H    3.872871   3.397376   2.152113   1.084267   2.152093
    11  H    3.397386   3.872686   3.397551   2.152025   1.084295
    12  H    2.152120   3.397610   3.872974   3.397520   2.152084
                    6          7          8          9         10
     6  C    0.000000
     7  H    2.152082   0.000000
     8  H    3.397433   2.478381   0.000000
     9  H    3.872968   4.293013   2.478642   0.000000
    10  H    3.397644   4.957144   4.292958   2.478528   0.000000
    11  H    2.152074   4.292963   4.956986   4.292998   2.478628
    12  H    1.084269   2.478791   4.293013   4.957237   4.293019
                   11         12
    11  H    0.000000
    12  H    2.478397   0.000000
 Stoichiometry    C6H6
 Framework group  C1[X(C6H6)]
 Deg. of freedom    30
 Full point group                 C1      NOp   1
 Largest Abelian subgroup         C1      NOp   1
 Largest concise Abelian subgroup C1      NOp   1
                         Standard orientation:                         
 ---------------------------------------------------------------------
 Center     Atomic      Atomic             Coordinates (Angstroms)
 Number     Number       Type             X           Y           Z
 ---------------------------------------------------------------------
      1          6           0       -0.994800   -0.976959    0.000002
      2          6           0        0.348823   -1.349854    0.000062
      3          6           0        1.343532   -0.373015   -0.000055
      4          6           0        0.994715    0.977048    0.000007
      5          6           0       -0.348706    1.349883    0.000057
      6          6           0       -1.343565    0.372900   -0.000051
      7          1           0       -1.768224   -1.736869   -0.000062
      8          1           0        0.619868   -2.399730    0.000080
      9          1           0        2.388303   -0.662979   -0.000121
     10          1           0        1.768328    1.736757    0.000020
     11          1           0       -0.620001    2.399689    0.000000
     12          1           0       -2.388271    0.663120   -0.000038
 ---------------------------------------------------------------------
 Rotational constants (GHZ):      5.7071168      5.7062737      2.8533476

 **********************************************************************

            Population analysis using the SCF density.

 **********************************************************************

 Orbital symmetries:
       Occupied  (A) (A) (A) (A) (A) (A) (A) (A) (A) (A) (A) (A)
                 (A) (A) (A) (A) (A) (A) (A) (A) (A)
       Virtual   (A) (A) (A) (A) (A) (A) (A) (A) (A) (A) (A) (A)
                 (A) (A) (A) (A) (A) (A) (A) (A) (A) (A) (A) (A)
                 (A) (A) (A) (A) (A) (A) (A) (A) (A) (A) (A) (A)
                 (A) (A) (A) (A) (A) (A) (A) (A) (A) (A) (A) (A)
                 (A) (A) (A) (A) (A) (A) (A) (A) (A) (A) (A) (A)
                 (A) (A) (A) (A) (A) (A) (A) (A) (A) (A) (A) (A)
                 (A) (A) (A) (A) (A) (A) (A) (A) (A) (A) (A) (A)
                 (A) (A) (A) (A) (A) (A) (A) (A) (A) (A) (A) (A)
                 (A) (A) (A) (A) (A) (A) (A) (A) (A) (A) (A) (A)
                 (A) (A) (A) (A) (A) (A) (A) (A) (A) (A) (A) (A)
                 (A) (A) (A) (A) (A) (A) (A) (A) (A) (A) (A) (A)
                 (A) (A) (A) (A) (A) (A) (A) (A) (A) (A) (A) (A)
                 (A) (A) (A)
 The electronic state is 1-A.
 Alpha  occ. eigenvalues --  -10.17908 -10.17884 -10.17883 -10.17828 -10.17828
 Alpha  occ. eigenvalues --  -10.17801  -0.86008  -0.75167  -0.75165  -0.60837
 Alpha  occ. eigenvalues --   -0.60835  -0.52989  -0.46652  -0.45336  -0.42805
 Alpha  occ. eigenvalues --   -0.42801  -0.37317  -0.35094  -0.35090  -0.26014
 Alpha  occ. eigenvalues --   -0.26013
 Alpha virt. eigenvalues --   -0.01756  -0.01756   0.00459   0.02349   0.02351
 Alpha virt. eigenvalues --    0.04536   0.04537   0.06257   0.07135   0.07827
 Alpha virt. eigenvalues --    0.08957   0.08969   0.09881   0.12466   0.13999
 Alpha virt. eigenvalues --    0.14007   0.14250   0.14251   0.14480   0.14510
 Alpha virt. eigenvalues --    0.16924   0.19538   0.19541   0.20010   0.20603
 Alpha virt. eigenvalues --    0.20619   0.20714   0.20715   0.22511   0.23448
 Alpha virt. eigenvalues --    0.23459   0.26606   0.28321   0.32330   0.32332
 Alpha virt. eigenvalues --    0.32370   0.32372   0.40659   0.45106   0.50542
 Alpha virt. eigenvalues --    0.52570   0.52576   0.52982   0.54885   0.54915
 Alpha virt. eigenvalues --    0.54917   0.57381   0.57382   0.60592   0.61781
 Alpha virt. eigenvalues --    0.61781   0.67382   0.69238   0.69241   0.72011
 Alpha virt. eigenvalues --    0.72012   0.72924   0.77757   0.82309   0.82312
 Alpha virt. eigenvalues --    0.82314   0.82324   0.85721   0.85787   0.85792
 Alpha virt. eigenvalues --    0.87041   0.93714   1.01071   1.01530   1.01533
 Alpha virt. eigenvalues --    1.07769   1.07774   1.13861   1.13864   1.27770
 Alpha virt. eigenvalues --    1.29446   1.45706   1.49542   1.49550   1.50415
 Alpha virt. eigenvalues --    1.56570   1.56936   1.56938   1.63981   1.63985
 Alpha virt. eigenvalues --    1.66161   1.66168   1.71435   1.77263   1.77265
 Alpha virt. eigenvalues --    1.80134   1.80138   1.84779   1.92651   1.92659
 Alpha virt. eigenvalues --    1.94172   1.94178   1.95734   1.97087   2.01527
 Alpha virt. eigenvalues --    2.01530   2.07984   2.07988   2.32158   2.34327
 Alpha virt. eigenvalues --    2.35815   2.38941   2.38945   2.40093   2.40095
 Alpha virt. eigenvalues --    2.61950   2.61958   2.63686   2.64927   2.66767
 Alpha virt. eigenvalues --    2.71048   2.71053   2.74562   2.74564   2.76187
 Alpha virt. eigenvalues --    2.79041   2.79043   2.88628   2.88629   2.90945
 Alpha virt. eigenvalues --    2.92615   2.92623   3.07550   3.10423   3.33914
 Alpha virt. eigenvalues --    3.33919   3.47968   3.47973   3.49549   3.67889
 Alpha virt. eigenvalues --    3.98028   3.98033   4.07708   4.14590   4.14597
 Alpha virt. eigenvalues --    4.84256  23.57958  23.95987  23.95997  24.09084
 Alpha virt. eigenvalues --   24.09094  24.20019
          Condensed to atoms (all electrons):
               1          2          3          4          5          6
     1  C    4.786711   0.568003  -0.043290  -0.059878  -0.043334   0.568106
     2  C    0.568003   4.787078   0.567848  -0.043331  -0.060075  -0.043211
     3  C   -0.043290   0.567848   4.787169   0.567954  -0.043213  -0.060070
     4  C   -0.059878  -0.043331   0.567954   4.786712   0.568155  -0.043288
     5  C   -0.043334  -0.060075  -0.043213   0.568155   4.787076   0.567695
     6  C    0.568106  -0.043211  -0.060070  -0.043288   0.567695   4.787175
     7  H    0.383234  -0.011184  -0.006689   0.002123  -0.006691  -0.011153
     8  H   -0.011252   0.383339  -0.011266  -0.006675   0.002121  -0.006674
     9  H   -0.006676  -0.011262   0.383358  -0.011257  -0.006663   0.002109
    10  H    0.002124  -0.006692  -0.011194   0.383234  -0.011141  -0.006689
    11  H   -0.006675   0.002121  -0.006673  -0.011212   0.383340  -0.011306
    12  H   -0.011213  -0.006664   0.002110  -0.006678  -0.011300   0.383354
               7          8          9         10         11         12
     1  C    0.383234  -0.011252  -0.006676   0.002124  -0.006675  -0.011213
     2  C   -0.011184   0.383339  -0.011262  -0.006692   0.002121  -0.006664
     3  C   -0.006689  -0.011266   0.383358  -0.011194  -0.006673   0.002110
     4  C    0.002123  -0.006675  -0.011257   0.383234  -0.011212  -0.006678
     5  C   -0.006691   0.002121  -0.006663  -0.011141   0.383340  -0.011300
     6  C   -0.011153  -0.006674   0.002109  -0.006689  -0.011306   0.383354
     7  H    0.541009  -0.008066  -0.000271   0.000071  -0.000272  -0.008063
     8  H   -0.008066   0.541046  -0.008064  -0.000272   0.000071  -0.000271
     9  H   -0.000271  -0.008064   0.541020  -0.008062  -0.000271   0.000071
    10  H    0.000071  -0.000272  -0.008062   0.541009  -0.008067  -0.000271
    11  H   -0.000272   0.000071  -0.000271  -0.008067   0.541046  -0.008063
    12  H   -0.008063  -0.000271   0.000071  -0.000271  -0.008063   0.541020
 Mulliken charges:
               1
     1  C   -0.125860
     2  C   -0.125971
     3  C   -0.126045
     4  C   -0.125859
     5  C   -0.125971
     6  C   -0.126050
     7  H    0.125950
     8  H    0.125960
     9  H    0.125968
    10  H    0.125949
    11  H    0.125960
    12  H    0.125968
 Sum of Mulliken charges =   0.00000
 Mulliken charges with hydrogens summed into heavy atoms:
               1
     1  C    0.000090
     2  C   -0.000010
     3  C   -0.000077
     4  C    0.000090
     5  C   -0.000011
     6  C   -0.000082
 Electronic spatial extent (au):  <R**2>=            459.3233
 Charge=              0.0000 electrons
 Dipole moment (field-independent basis, Debye):
    X=              0.0000    Y=              0.0000    Z=             -0.0001  Tot=              0.0001
 Quadrupole moment (field-independent basis, Debye-Ang):
   XX=            -32.1399   YY=            -32.1417   ZZ=            -40.3279
   XY=             -0.0001   XZ=              0.0000   YZ=              0.0000
 Traceless Quadrupole moment (field-independent basis, Debye-Ang):
   XX=              2.7299   YY=              2.7281   ZZ=             -5.4581
   XY=             -0.0001   XZ=              0.0000   YZ=              0.0000
 Octapole moment (field-independent basis, Debye-Ang**2):
  XXX=              0.0024  YYY=             -0.0022  ZZZ=             -0.0002  XYY=             -0.0022
  XXY=              0.0022  XXZ=             -0.0008  XZZ=              0.0000  YZZ=              0.0000
  YYZ=              0.0000  XYZ=              0.0000
 Hexadecapole moment (field-independent basis, Debye-Ang**3):
 XXXX=           -276.0282 YYYY=           -276.0127 ZZZZ=            -50.0381 XXXY=             -0.0028
 XXXZ=             -0.0008 YYYX=              0.0030 YYYZ=             -0.0008 ZZZX=              0.0000
 ZZZY=              0.0000 XXYY=            -92.0046 XXZZ=            -65.2991 YYZZ=            -65.2939
 XXYZ=              0.0008 YYXZ=              0.0007 ZZXY=             -0.0013
 N-N= 2.035526310494D+02 E-N=-9.455743328320D+02  KE= 2.312224564935D+02
 B after Tr=     0.000009   -0.000137    0.000022
         Rot=    1.000000   -0.000027   -0.000002   -0.000012 Ang=   0.00 deg.
 Final structure in terms of initial Z-matrix:
 C
 C,1,B1
 C,2,B2,1,A1
 C,3,B3,2,A2,1,D1,0
 C,4,B4,3,A3,2,D2,0
 C,1,B5,2,A4,3,D3,0
 H,1,B6,6,A5,5,D4,0
 H,2,B7,1,A6,6,D5,0
 H,3,B8,2,A7,1,D6,0
 H,4,B9,3,A8,2,D7,0
 H,5,B10,4,A9,3,D8,0
 H,6,B11,1,A10,2,D9,0
      Variables:
 B1=1.39440792
 B2=1.39415221
 B3=1.39439783
 B4=1.39419663
 B5=1.39418643
 B6=1.084273
 B7=1.08429934
 B8=1.08426265
 B9=1.08426746
 B10=1.08429471
 B11=1.08426887
 A1=120.00838386
 A2=119.99392905
 A3=119.99749691
 A4=119.99770204
 A5=120.00822076
 A6=119.98682478
 A7=120.00796002
 A8=119.9936598
 A9=120.00029839
 A10=120.01213389
 D1=0.01134967
 D2=-0.00613576
 D3=-0.00586524
 D4=179.99874808
 D5=-179.99859337
 D6=-179.99313859
 D7=179.99364388
 D8=-179.99357076
 D9=-179.99633807
 1\1\GINC-TC-NODE166\FOpt\RB3LYP\6-311+G(d,p)\C6H6\MAXB2\09-Oct-2016\0\
 \# opt freq b3lyp/6-311+g** geom=connectivity\\Title Card Required\\0,
 1\C,0.0005968862,0.0000607149,0.0003254995\C,0.0006257437,0.0005648268
 ,1.3947333247\C,1.2079090405,-0.0001031821,2.0919613945\C,2.4155065222
 ,-0.0010363386,1.3947865468\C,2.4154731293,-0.0014305203,0.0005899696\
 C,1.2080110226,-0.000987886,-0.696743945\H,-0.9384781625,0.0004256157,
 -0.5416946608\H,-0.9385182689,0.0013573011,1.9366862345\H,1.2079233766
 ,0.000176371,3.1762240083\H,3.3544388128,-0.0014516884,1.9370428489\H,
 3.3544838402,-0.002261516,-0.5415845533\H,1.2082617331,-0.0013200485,-
 1.7810127306\\Version=ES64L-G09RevD.01\State=1-A\HF=-232.3112711\RMSD=
 6.548e-09\RMSF=1.199e-04\Dipole=0.0000017,-0.0000377,0.0000031\Quadrup
 ole=2.0283439,-4.0579374,2.0295935,-0.0038953,0.0002567,0.0019342\PG=C
 01 [X(C6H6)]\\@


 IT IS THE GODS' CUSTOM TO BRING LOW ALL THINGS OF SURPASSING GREATNESS.
     -- HERODOTUS
 IT IS THE LOFTY PINE THAT BY THE STORM IS OFTENER TOSSED;
 TOWERS FALL WITH HEAVIER CRASH WHICH HIGHER SOAR.
     -- HORACE
 THE BIGGER THEY COME, THE HARDER THEY FALL.
     -- BOB FITZSIMONS HEAVYWEIGHT CHAMPION, 1897-1899
 Job cpu time:       0 days  0 hours  1 minutes 36.8 seconds.
 File lengths (MBytes):  RWF=     15 Int=      0 D2E=      0 Chk=      4 Scr=      1
 Normal termination of Gaussian 09 at Sun Oct  9 16:21:52 2016.
 Link1:  Proceeding to internal job step number  2.
 ----------------------------------------------------------------------
 #N Geom=AllCheck Guess=TCheck SCRF=Check GenChk RB3LYP/6-311+G(d,p) Fr
 eq
 ----------------------------------------------------------------------
 1/10=4,29=7,30=1,38=1,40=1/1,3;
 2/12=2,40=1/2;
 3/5=4,6=6,7=111,11=2,14=-4,16=1,25=1,30=1,70=2,71=2,74=-5,116=1,140=1/1,2,3;
 4/5=101/1;
 5/5=2,98=1/2;
 8/6=4,10=90,11=11/1;
 11/6=1,8=1,9=11,15=111,16=1/1,2,10;
 10/6=1/2;
 6/7=2,8=2,9=2,10=2,18=1,28=1/1;
 7/8=1,10=1,25=1/1,2,3,16;
 1/10=4,30=1/3;
 99//99;
 Structure from the checkpoint file:  "Benzeneb3lyp.chk"
 -------------------
 Title Card Required
 -------------------
 Charge =  0 Multiplicity = 1
 Redundant internal coordinates found in file.
 C,0,0.000593662,0.0000686607,0.0003310883
 C,0,0.0006225195,0.0005727726,1.3947389135
 C,0,1.2079058162,-0.0000952363,2.0919669833
 C,0,2.4155032979,-0.0010283927,1.3947921356
 C,0,2.4154699051,-0.0014225745,0.0005955584
 C,0,1.2080077984,-0.0009799402,-0.6967383562
 H,0,-0.9384813868,0.0004335616,-0.541689072
 H,0,-0.9385214931,0.001365247,1.9366918233
 H,0,1.2079201523,0.0001843168,3.1762295971
 H,0,3.3544355885,-0.0014437425,1.9370484377
 H,0,3.354480616,-0.0022535702,-0.5415789645
 H,0,1.2082585089,-0.0013121026,-1.7810071418
 Recover connectivity data from disk.

 GradGradGradGradGradGradGradGradGradGradGradGradGradGradGradGradGradGrad
 Berny optimization.
 Initialization pass.
                           ----------------------------
                           !    Initial Parameters    !
                           ! (Angstroms and Degrees)  !
 --------------------------                            --------------------------
 ! Name  Definition              Value          Derivative Info.                !
 --------------------------------------------------------------------------------
 ! R1    R(1,2)                  1.3944         calculate D2E/DX2 analytically  !
 ! R2    R(1,6)                  1.3942         calculate D2E/DX2 analytically  !
 ! R3    R(1,7)                  1.0843         calculate D2E/DX2 analytically  !
 ! R4    R(2,3)                  1.3942         calculate D2E/DX2 analytically  !
 ! R5    R(2,8)                  1.0843         calculate D2E/DX2 analytically  !
 ! R6    R(3,4)                  1.3944         calculate D2E/DX2 analytically  !
 ! R7    R(3,9)                  1.0843         calculate D2E/DX2 analytically  !
 ! R8    R(4,5)                  1.3942         calculate D2E/DX2 analytically  !
 ! R9    R(4,10)                 1.0843         calculate D2E/DX2 analytically  !
 ! R10   R(5,6)                  1.3944         calculate D2E/DX2 analytically  !
 ! R11   R(5,11)                 1.0843         calculate D2E/DX2 analytically  !
 ! R12   R(6,12)                 1.0843         calculate D2E/DX2 analytically  !
 ! A1    A(2,1,6)              119.9977         calculate D2E/DX2 analytically  !
 ! A2    A(2,1,7)              119.9941         calculate D2E/DX2 analytically  !
 ! A3    A(6,1,7)              120.0082         calculate D2E/DX2 analytically  !
 ! A4    A(1,2,3)              120.0084         calculate D2E/DX2 analytically  !
 ! A5    A(1,2,8)              119.9868         calculate D2E/DX2 analytically  !
 ! A6    A(3,2,8)              120.0048         calculate D2E/DX2 analytically  !
 ! A7    A(2,3,4)              119.9939         calculate D2E/DX2 analytically  !
 ! A8    A(2,3,9)              120.008          calculate D2E/DX2 analytically  !
 ! A9    A(4,3,9)              119.9981         calculate D2E/DX2 analytically  !
 ! A10   A(3,4,5)              119.9975         calculate D2E/DX2 analytically  !
 ! A11   A(3,4,10)             119.9937         calculate D2E/DX2 analytically  !
 ! A12   A(5,4,10)             120.0088         calculate D2E/DX2 analytically  !
 ! A13   A(4,5,6)              120.0087         calculate D2E/DX2 analytically  !
 ! A14   A(4,5,11)             120.0003         calculate D2E/DX2 analytically  !
 ! A15   A(6,5,11)             119.991          calculate D2E/DX2 analytically  !
 ! A16   A(1,6,5)              119.9938         calculate D2E/DX2 analytically  !
 ! A17   A(1,6,12)             120.0121         calculate D2E/DX2 analytically  !
 ! A18   A(5,6,12)             119.994          calculate D2E/DX2 analytically  !
 ! D1    D(6,1,2,3)             -0.0059         calculate D2E/DX2 analytically  !
 ! D2    D(6,1,2,8)           -179.9986         calculate D2E/DX2 analytically  !
 ! D3    D(7,1,2,3)            179.9906         calculate D2E/DX2 analytically  !
 ! D4    D(7,1,2,8)             -0.0022         calculate D2E/DX2 analytically  !
 ! D5    D(2,1,6,5)             -0.0048         calculate D2E/DX2 analytically  !
 ! D6    D(2,1,6,12)          -179.9963         calculate D2E/DX2 analytically  !
 ! D7    D(7,1,6,5)            179.9987         calculate D2E/DX2 analytically  !
 ! D8    D(7,1,6,12)             0.0072         calculate D2E/DX2 analytically  !
 ! D9    D(1,2,3,4)              0.0113         calculate D2E/DX2 analytically  !
 ! D10   D(1,2,3,9)           -179.9931         calculate D2E/DX2 analytically  !
 ! D11   D(8,2,3,4)           -179.9959         calculate D2E/DX2 analytically  !
 ! D12   D(8,2,3,9)             -0.0004         calculate D2E/DX2 analytically  !
 ! D13   D(2,3,4,5)             -0.0061         calculate D2E/DX2 analytically  !
 ! D14   D(2,3,4,10)           179.9936         calculate D2E/DX2 analytically  !
 ! D15   D(9,3,4,5)            179.9984         calculate D2E/DX2 analytically  !
 ! D16   D(9,3,4,10)            -0.0019         calculate D2E/DX2 analytically  !
 ! D17   D(3,4,5,6)             -0.0046         calculate D2E/DX2 analytically  !
 ! D18   D(3,4,5,11)          -179.9936         calculate D2E/DX2 analytically  !
 ! D19   D(10,4,5,6)           179.9957         calculate D2E/DX2 analytically  !
 ! D20   D(10,4,5,11)            0.0066         calculate D2E/DX2 analytically  !
 ! D21   D(4,5,6,1)              0.01           calculate D2E/DX2 analytically  !
 ! D22   D(4,5,6,12)          -179.9984         calculate D2E/DX2 analytically  !
 ! D23   D(11,5,6,1)           179.9991         calculate D2E/DX2 analytically  !
 ! D24   D(11,5,6,12)           -0.0094         calculate D2E/DX2 analytically  !
 --------------------------------------------------------------------------------
 Trust Radius=3.00D-01 FncErr=1.00D-07 GrdErr=1.00D-07
 Number of steps in this run=      2 maximum allowed number of steps=      2.
 GradGradGradGradGradGradGradGradGradGradGradGradGradGradGradGradGradGrad

                          Input orientation:                          
 ---------------------------------------------------------------------
 Center     Atomic      Atomic             Coordinates (Angstroms)
 Number     Number       Type             X           Y           Z
 ---------------------------------------------------------------------
      1          6           0        0.000594    0.000069    0.000331
      2          6           0        0.000623    0.000573    1.394739
      3          6           0        1.207906   -0.000095    2.091967
      4          6           0        2.415503   -0.001028    1.394792
      5          6           0        2.415470   -0.001423    0.000596
      6          6           0        1.208008   -0.000980   -0.696738
      7          1           0       -0.938481    0.000434   -0.541689
      8          1           0       -0.938521    0.001365    1.936692
      9          1           0        1.207920    0.000184    3.176230
     10          1           0        3.354436   -0.001444    1.937048
     11          1           0        3.354481   -0.002254   -0.541579
     12          1           0        1.208259   -0.001312   -1.781007
 ---------------------------------------------------------------------
                    Distance matrix (angstroms):
                    1          2          3          4          5
     1  C    0.000000
     2  C    1.394408   0.000000
     3  C    2.415066   1.394152   0.000000
     4  C    2.788604   2.414881   1.394398   0.000000
     5  C    2.414877   2.788392   2.414963   1.394197   0.000000
     6  C    1.394186   2.414966   2.788705   2.415066   1.394360
     7  H    1.084273   2.152131   3.397517   3.872877   3.397509
     8  H    2.152076   1.084299   2.152037   3.397520   3.872691
     9  H    3.397642   2.152040   1.084263   2.152157   3.397474
    10  H    3.872871   3.397376   2.152113   1.084267   2.152093
    11  H    3.397386   3.872686   3.397551   2.152025   1.084295
    12  H    2.152120   3.397610   3.872974   3.397520   2.152084
                    6          7          8          9         10
     6  C    0.000000
     7  H    2.152082   0.000000
     8  H    3.397433   2.478381   0.000000
     9  H    3.872968   4.293013   2.478642   0.000000
    10  H    3.397644   4.957144   4.292958   2.478528   0.000000
    11  H    2.152074   4.292963   4.956986   4.292998   2.478628
    12  H    1.084269   2.478791   4.293013   4.957237   4.293019
                   11         12
    11  H    0.000000
    12  H    2.478397   0.000000
 Stoichiometry    C6H6
 Framework group  C1[X(C6H6)]
 Deg. of freedom    30
 Full point group                 C1      NOp   1
 Largest Abelian subgroup         C1      NOp   1
 Largest concise Abelian subgroup C1      NOp   1
                         Standard orientation:                         
 ---------------------------------------------------------------------
 Center     Atomic      Atomic             Coordinates (Angstroms)
 Number     Number       Type             X           Y           Z
 ---------------------------------------------------------------------
      1          6           0       -0.994800   -0.976959    0.000002
      2          6           0        0.348823   -1.349854    0.000062
      3          6           0        1.343532   -0.373015   -0.000055
      4          6           0        0.994715    0.977048    0.000007
      5          6           0       -0.348706    1.349883    0.000057
      6          6           0       -1.343565    0.372900   -0.000051
      7          1           0       -1.768224   -1.736869   -0.000062
      8          1           0        0.619868   -2.399730    0.000080
      9          1           0        2.388303   -0.662979   -0.000121
     10          1           0        1.768328    1.736757    0.000020
     11          1           0       -0.620001    2.399689    0.000000
     12          1           0       -2.388271    0.663120   -0.000038
 ---------------------------------------------------------------------
 Rotational constants (GHZ):      5.7071168      5.7062737      2.8533476
 Standard basis: 6-311+G(d,p) (5D, 7F)
 There are   174 symmetry adapted cartesian basis functions of A   symmetry.
 There are   168 symmetry adapted basis functions of A   symmetry.
   168 basis functions,   264 primitive gaussians,   174 cartesian basis functions
    21 alpha electrons       21 beta electrons
       nuclear repulsion energy       203.5526310494 Hartrees.
 NAtoms=   12 NActive=   12 NUniq=   12 SFac= 1.00D+00 NAtFMM=   60 NAOKFM=F Big=F
 Integral buffers will be    131072 words long.
 Raffenetti 2 integral format.
 Two-electron integral symmetry is turned on.
 One-electron integrals computed using PRISM.
 NBasis=   168 RedAO= T EigKep=  4.13D-06  NBF=   168
 NBsUse=   168 1.00D-06 EigRej= -1.00D+00 NBFU=   168
 Initial guess from the checkpoint file:  "Benzeneb3lyp.chk"
 B after Tr=     0.000000    0.000000    0.000000
         Rot=    1.000000    0.000000    0.000000    0.000000 Ang=   0.00 deg.
 Keep R1 ints in memory in canonical form, NReq=103561624.
 Requested convergence on RMS density matrix=1.00D-08 within 128 cycles.
 Requested convergence on MAX density matrix=1.00D-06.
 Requested convergence on             energy=1.00D-06.
 No special actions if energy rises.
 SCF Done:  E(RB3LYP) =  -232.311271124     A.U. after    1 cycles
            NFock=  1  Conv=0.21D-08     -V/T= 2.0047
 DoSCS=F DFT=T ScalE2(SS,OS)=  1.000000  1.000000
 Range of M.O.s used for correlation:     1   168
 NBasis=   168 NAE=    21 NBE=    21 NFC=     0 NFV=     0
 NROrb=    168 NOA=    21 NOB=    21 NVA=   147 NVB=   147

 **** Warning!!: The largest alpha MO coefficient is  0.13928716D+03

 Symmetrizing basis deriv contribution to polar:
 IMax=3 JMax=2 DiffMx= 0.00D+00
 G2DrvN: will do    13 centers at a time, making    1 passes.
 Calling FoFCou, ICntrl=  3107 FMM=F I1Cent=   0 AccDes= 0.00D+00.
 End of G2Drv F.D. properties file   721 does not exist.
 End of G2Drv F.D. properties file   722 does not exist.
 End of G2Drv F.D. properties file   788 does not exist.
          IDoAtm=111111111111
          Differentiating once with respect to electric field.
                with respect to dipole field.
          Differentiating once with respect to nuclear coordinates.
 Keep R1 ints in memory in canonical form, NReq=103454134.
          There are    39 degrees of freedom in the 1st order CPHF.  IDoFFX=6 NUNeed=     3.
     36 vectors produced by pass  0 Test12= 7.92D-15 2.56D-09 XBig12= 9.60D+01 4.57D+00.
 AX will form    36 AO Fock derivatives at one time.
     36 vectors produced by pass  1 Test12= 7.92D-15 2.56D-09 XBig12= 1.59D+01 9.28D-01.
     36 vectors produced by pass  2 Test12= 7.92D-15 2.56D-09 XBig12= 1.44D-01 8.71D-02.
     36 vectors produced by pass  3 Test12= 7.92D-15 2.56D-09 XBig12= 3.53D-04 5.84D-03.
     36 vectors produced by pass  4 Test12= 7.92D-15 2.56D-09 XBig12= 4.75D-07 2.12D-04.
     29 vectors produced by pass  5 Test12= 7.92D-15 2.56D-09 XBig12= 3.12D-10 3.34D-06.
      7 vectors produced by pass  6 Test12= 7.92D-15 2.56D-09 XBig12= 2.09D-13 1.47D-07.
      6 vectors produced by pass  7 Test12= 7.92D-15 2.56D-09 XBig12= 1.18D-14 2.64D-08.
      1 vectors produced by pass  8 Test12= 7.92D-15 2.56D-09 XBig12= 7.62D-17 3.44D-09.
 InvSVY:  IOpt=1 It=  1 EMax= 8.88D-15
 Solved reduced A of dimension   223 with    39 vectors.
 Isotropic polarizability for W=    0.000000       66.16 Bohr**3.
 End of Minotr F.D. properties file   721 does not exist.
 End of Minotr F.D. properties file   722 does not exist.
 End of Minotr F.D. properties file   788 does not exist.

[...]
    R8        2.63465   0.00036   0.00000   0.00083   0.00083   2.63548
    R9        2.04897   0.00010   0.00000   0.00024   0.00024   2.04921
   R10        2.63496   0.00034   0.00000   0.00057   0.00057   2.63552
   R11        2.04902   0.00010   0.00000   0.00025   0.00025   2.04927
   R12        2.04897   0.00011   0.00000   0.00030   0.00030   2.04927
    A1        2.09435  -0.00004   0.00000  -0.00021  -0.00021   2.09414
    A2        2.09429   0.00003   0.00000   0.00026   0.00026   2.09455
    A3        2.09454   0.00001   0.00000  -0.00005  -0.00005   2.09449
    A4        2.09454  -0.00001   0.00000  -0.00003  -0.00003   2.09451
    A5        2.09417   0.00001   0.00000   0.00022   0.00022   2.09438
    A6        2.09448  -0.00001   0.00000  -0.00018  -0.00018   2.09430
    A7        2.09429   0.00005   0.00000   0.00025   0.00025   2.09454
    A8        2.09453  -0.00004   0.00000  -0.00030  -0.00030   2.09424
    A9        2.09436  -0.00001   0.00000   0.00005   0.00005   2.09441
   A10        2.09435  -0.00004   0.00000  -0.00021  -0.00021   2.09414
   A11        2.09428   0.00003   0.00000   0.00021   0.00021   2.09449
   A12        2.09455   0.00001   0.00000   0.00000   0.00000   2.09455
   A13        2.09455  -0.00001   0.00000  -0.00004  -0.00004   2.09451
   A14        2.09440   0.00000   0.00000  -0.00002  -0.00002   2.09438
   A15        2.09424   0.00001   0.00000   0.00006   0.00006   2.09430
   A16        2.09429   0.00005   0.00000   0.00025   0.00025   2.09454
   A17        2.09461  -0.00003   0.00000  -0.00019  -0.00019   2.09441
   A18        2.09429  -0.00002   0.00000  -0.00005  -0.00005   2.09424
    D1       -0.00010   0.00000   0.00000   0.00010   0.00010   0.00000
    D2       -3.14157   0.00000   0.00000  -0.00002  -0.00002   3.14159
    D3        3.14143   0.00000   0.00000   0.00016   0.00016   3.14159
    D4       -0.00004   0.00000   0.00000   0.00004   0.00004   0.00000
    D5       -0.00008   0.00000   0.00000   0.00008   0.00008   0.00000
    D6       -3.14153   0.00000   0.00000  -0.00006  -0.00006  -3.14159
    D7        3.14157   0.00000   0.00000   0.00002   0.00002   3.14159
    D8        0.00013   0.00000   0.00000  -0.00013  -0.00013   0.00000
    D9        0.00020  -0.00001   0.00000  -0.00020  -0.00020   0.00000
   D10       -3.14147   0.00000   0.00000  -0.00012  -0.00012  -3.14159
   D11       -3.14152   0.00000   0.00000  -0.00007  -0.00007  -3.14159
   D12       -0.00001   0.00000   0.00000   0.00001   0.00001   0.00000
   D13       -0.00011   0.00000   0.00000   0.00011   0.00011   0.00000
   D14        3.14148   0.00000   0.00000   0.00011   0.00011   3.14159
   D15        3.14156   0.00000   0.00000   0.00003   0.00003  -3.14159
   D16       -0.00003   0.00000   0.00000   0.00003   0.00003   0.00000
   D17       -0.00008   0.00000   0.00000   0.00008   0.00008   0.00000
   D18       -3.14148   0.00000   0.00000  -0.00011  -0.00011  -3.14159
   D19        3.14152   0.00000   0.00000   0.00008   0.00008   3.14159
   D20        0.00012   0.00000   0.00000  -0.00012  -0.00012   0.00000
   D21        0.00018   0.00000   0.00000  -0.00018  -0.00018   0.00000
   D22       -3.14157   0.00000   0.00000  -0.00003  -0.00003   3.14159
   D23        3.14158   0.00000   0.00000   0.00002   0.00002   3.14159
   D24       -0.00016   0.00000   0.00000   0.00016   0.00016   0.00000
         Item               Value     Threshold  Converged?
 Maximum Force            0.000440     0.000450     YES
 RMS     Force            0.000125     0.000300     YES
 Maximum Displacement     0.001071     0.001800     YES
 RMS     Displacement     0.000416     0.001200     YES
 Predicted change in Energy=-8.886180D-07
 Optimization completed.
    -- Stationary point found.
                           ----------------------------
                           !   Optimized Parameters   !
                           ! (Angstroms and Degrees)  !
 --------------------------                            --------------------------
 ! Name  Definition              Value          Derivative Info.                !
 --------------------------------------------------------------------------------
 ! R1    R(1,2)                  1.3944         -DE/DX =    0.0003              !
 ! R2    R(1,6)                  1.3942         -DE/DX =    0.0004              !
 ! R3    R(1,7)                  1.0843         -DE/DX =    0.0001              !
 ! R4    R(2,3)                  1.3942         -DE/DX =    0.0004              !
 ! R5    R(2,8)                  1.0843         -DE/DX =    0.0001              !
 ! R6    R(3,4)                  1.3944         -DE/DX =    0.0003              !
 ! R7    R(3,9)                  1.0843         -DE/DX =    0.0001              !
 ! R8    R(4,5)                  1.3942         -DE/DX =    0.0004              !
 ! R9    R(4,10)                 1.0843         -DE/DX =    0.0001              !
 ! R10   R(5,6)                  1.3944         -DE/DX =    0.0003              !
 ! R11   R(5,11)                 1.0843         -DE/DX =    0.0001              !
 ! R12   R(6,12)                 1.0843         -DE/DX =    0.0001              !
 ! A1    A(2,1,6)              119.9977         -DE/DX =    0.0                 !
 ! A2    A(2,1,7)              119.9941         -DE/DX =    0.0                 !
 ! A3    A(6,1,7)              120.0082         -DE/DX =    0.0                 !
 ! A4    A(1,2,3)              120.0084         -DE/DX =    0.0                 !
 ! A5    A(1,2,8)              119.9868         -DE/DX =    0.0                 !
 ! A6    A(3,2,8)              120.0048         -DE/DX =    0.0                 !
 ! A7    A(2,3,4)              119.9939         -DE/DX =    0.0                 !
 ! A8    A(2,3,9)              120.008          -DE/DX =    0.0                 !
 ! A9    A(4,3,9)              119.9981         -DE/DX =    0.0                 !
 ! A10   A(3,4,5)              119.9975         -DE/DX =    0.0                 !
 ! A11   A(3,4,10)             119.9937         -DE/DX =    0.0                 !
 ! A12   A(5,4,10)             120.0088         -DE/DX =    0.0                 !
 ! A13   A(4,5,6)              120.0087         -DE/DX =    0.0                 !
 ! A14   A(4,5,11)             120.0003         -DE/DX =    0.0                 !
 ! A15   A(6,5,11)             119.991          -DE/DX =    0.0                 !
 ! A16   A(1,6,5)              119.9938         -DE/DX =    0.0                 !
 ! A17   A(1,6,12)             120.0121         -DE/DX =    0.0                 !
 ! A18   A(5,6,12)             119.994          -DE/DX =    0.0                 !
 ! D1    D(6,1,2,3)             -0.0059         -DE/DX =    0.0                 !
 ! D2    D(6,1,2,8)            180.0014         -DE/DX =    0.0                 !
 ! D3    D(7,1,2,3)            179.9906         -DE/DX =    0.0                 !
 ! D4    D(7,1,2,8)             -0.0022         -DE/DX =    0.0                 !
 ! D5    D(2,1,6,5)             -0.0048         -DE/DX =    0.0                 !
 ! D6    D(2,1,6,12)          -179.9963         -DE/DX =    0.0                 !
 ! D7    D(7,1,6,5)            179.9987         -DE/DX =    0.0                 !
 ! D8    D(7,1,6,12)             0.0072         -DE/DX =    0.0                 !
 ! D9    D(1,2,3,4)              0.0113         -DE/DX =    0.0                 !
 ! D10   D(1,2,3,9)           -179.9931         -DE/DX =    0.0                 !
 ! D11   D(8,2,3,4)           -179.9959         -DE/DX =    0.0                 !
 ! D12   D(8,2,3,9)             -0.0004         -DE/DX =    0.0                 !
 ! D13   D(2,3,4,5)             -0.0061         -DE/DX =    0.0                 !
 ! D14   D(2,3,4,10)           179.9936         -DE/DX =    0.0                 !
 ! D15   D(9,3,4,5)           -180.0016         -DE/DX =    0.0                 !
 ! D16   D(9,3,4,10)            -0.0019         -DE/DX =    0.0                 !
 ! D17   D(3,4,5,6)             -0.0046         -DE/DX =    0.0                 !
 ! D18   D(3,4,5,11)          -179.9936         -DE/DX =    0.0                 !
 ! D19   D(10,4,5,6)           179.9957         -DE/DX =    0.0                 !
 ! D20   D(10,4,5,11)            0.0066         -DE/DX =    0.0                 !
 ! D21   D(4,5,6,1)              0.01           -DE/DX =    0.0                 !
 ! D22   D(4,5,6,12)           180.0016         -DE/DX =    0.0                 !
 ! D23   D(11,5,6,1)           179.9991         -DE/DX =    0.0                 !
 ! D24   D(11,5,6,12)           -0.0094         -DE/DX =    0.0                 !
 --------------------------------------------------------------------------------
 GradGradGradGradGradGradGradGradGradGradGradGradGradGradGradGradGradGrad

 1\1\GINC-TC-NODE166\Freq\RB3LYP\6-311+G(d,p)\C6H6\MAXB2\09-Oct-2016\0\
 \#N Geom=AllCheck Guess=TCheck SCRF=Check GenChk RB3LYP/6-311+G(d,p) F
 req\\Title Card Required\\0,1\C,0.000593662,0.0000686607,0.0003310883\
 C,0.0006225195,0.0005727726,1.3947389135\C,1.2079058162,-0.0000952363,
 2.0919669833\C,2.4155032979,-0.0010283927,1.3947921356\C,2.4154699051,
 -0.0014225745,0.0005955584\C,1.2080077984,-0.0009799402,-0.6967383562\
 H,-0.9384813868,0.0004335616,-0.541689072\H,-0.9385214931,0.001365247,
 1.9366918233\H,1.2079201523,0.0001843168,3.1762295971\H,3.3544355885,-
 0.0014437425,1.9370484377\H,3.354480616,-0.0022535702,-0.5415789645\H,
 1.2082585089,-0.0013121026,-1.7810071418\\Version=ES64L-G09RevD.01\Sta
 te=1-A\HF=-232.3112711\RMSD=2.057e-09\RMSF=1.199e-04\ZeroPoint=0.10017
 95\Thermal=0.1045772\Dipole=0.0000016,-0.0000378,0.000003\DipoleDeriv=
 0.0576731,-0.0000914,0.0630746,-0.0000739,-0.1402572,0.0000515,0.06312
 14,0.0000065,-0.0152412,0.0576099,-0.0001686,-0.0632125,-0.0001323,-0.
 1415187,0.0000547,-0.0632592,0.0000936,-0.0155864,-0.052091,-0.0000561
 ,0.000082,-0.0000709,-0.1414682,0.0000822,0.0000686,0.0000379,0.093981
 4,0.0576907,-0.0001035,0.0630494,-0.0000682,-0.1402577,-0.0000107,0.06
 31141,0.0000033,-0.0152658,0.0576338,-0.000145,-0.0631869,-0.0002332,-
 0.1415175,0.0001476,-0.0632499,0.0000785,-0.0156102,-0.0520916,-0.0000
 582,0.0001007,-0.0000437,-0.1414673,-0.0000164,0.0001022,0.0000899,0.0
 939871,-0.0654438,0.0001043,-0.0768967,0.0000936,0.1406879,-0.000012,-
 0.0768537,0.0000054,0.0233832,-0.0655897,0.0001646,0.0769391,0.0001392
 ,0.1412779,-0.0000688,0.0769242,-0.0000888,0.0233851,0.0677831,0.00004
 89,-0.0000327,0.0000537,0.1412776,-0.0000871,-0.0000249,-0.0000668,-0.
 1098646,-0.0654036,0.0001051,-0.0768859,0.0000977,0.1406888,0.0000218,
 -0.076904,0.000015,0.023347,-0.0655544,0.0001548,0.0769309,0.0001977,0
 .1412776,-0.0001184,0.0769727,-0.000088,0.0233502,0.0677835,0.0000451,
 0.0000381,0.0000404,0.1412768,-0.0000443,-0.0000118,-0.0000865,-0.1098
 658\Polar=78.452784,-0.0236157,41.5630935,0.002374,0.0117628,78.454502
 7\PG=C01 [X(C6H6)]\NImag=0\\0.71627082,-0.00035543,0.13542459,0.034471
 71,0.00017958,0.67605499,-0.12886023,0.00005090,0.03222546,0.71598984,
 0.00003123,-0.06379433,-0.00011713,-0.00040868,0.13554225,-0.03200534,
 -0.00008000,-0.33060090,-0.03459188,0.00019561,0.67524929,0.03404405,-
 0.00004035,-0.07656416,-0.28046567,0.00014210,-0.05559008,0.65542279,-
 0.00002630,0.00789983,0.00003650,0.00012254,-0.06361871,0.00001314,-0.
 00034419,0.13554910,-0.02945209,0.00000987,-0.02739478,-0.11980607,0.0
 0005302,-0.17928364,0.00022460,0.00015166,0.73597156,-0.01807227,0.000
 01755,0.02934892,-0.05800688,0.00003336,-0.02344522,-0.28005573,0.0001
 6609,0.11955563,0.71584114,0.00001505,-0.00711068,-0.00003102,0.000052
 27,0.00791716,0.00003169,0.00014428,-0.06380671,-0.00010502,-0.0003463
 9,0.13542315,0.02935377,-0.00003534,-0.05211605,0.02367323,0.00000239,
 0.06458933,0.05533497,-0.00006379,-0.17953043,0.03473086,0.00013226,0.
 67649667,-0.05800743,0.00004774,0.02366848,-0.01792325,-0.00000185,-0.
 02952094,0.03404258,-0.00000958,0.02945669,-0.12884212,0.00005186,0.03
 222230,0.71556808,0.00003561,0.00791719,0.00000489,-0.00000314,-0.0072
 4161,0.00000343,0.00000671,0.00785285,-0.00002898,0.00003272,-0.063759
 17,-0.00009878,-0.00037603,0.13554120,-0.02345038,0.00003593,0.0645894
 1,-0.02952498,0.00000568,-0.05211415,0.07654159,-0.00006034,-0.0271487
 7,-0.03200288,-0.00005367,-0.33108857,-0.03484373,0.00020428,0.6756892
 1,-0.28041637,0.00016402,0.05555812,0.03404663,0.00000701,0.07653906,-
 0.06913525,0.00004085,0.00004935,0.03403970,-0.00004039,-0.07656676,-0
 .28011137,0.00010426,-0.05537177,0.65543085,0.00018415,-0.06377114,-0.
 00007785,-0.00000625,0.00785283,-0.00006115,0.00003844,-0.00724047,0.0
 0000203,-0.00002487,0.00789979,0.00003787,0.00008188,-0.06365361,-0.00
 001252,-0.00032162,0.13555019,0.11977192,-0.00012082,-0.17963809,0.029
 45409,-0.00003136,-0.02715276,0.00005336,0.00000209,-0.00088576,-0.029
 45421,0.00000504,-0.02739074,-0.11959353,0.00002788,-0.17917824,-0.000
 27652,0.00020728,0.73596103,-0.26578067,0.00009623,-0.11930172,0.00355
 011,0.00000058,0.00226608,0.00187659,0.00000326,0.00045704,0.00022581,
 -0.00000036,0.00085270,-0.00298997,0.00000801,0.00411323,-0.01863220,0
 .00000753,-0.01623100,0.28107785,0.00009446,-0.03687545,0.00003563,-0.
 00001024,0.00331263,-0.00000414,0.00000303,0.00724155,-0.00000481,0.00
 000030,-0.00088393,-0.00000155,0.00000830,0.00724799,-0.00000487,0.000
 01965,0.00332029,0.00001412,-0.00010892,0.02554870,-0.11929182,0.00003
 754,-0.12794245,-0.02904549,0.00001338,-0.01056518,0.00130329,-0.00000
 561,-0.00562837,0.00085074,-0.00000051,-0.00075322,0.00326644,-0.00000
 537,-0.00076026,0.01507341,-0.00000640,0.01161809,0.12864896,-0.000038
 13,0.13243623,0.00355319,-0.00000106,-0.00224985,-0.26562103,0.0001904
 0,0.11916659,-0.01863569,0.00001896,0.01622149,-0.00300050,0.00000607,
 -0.00410799,0.00023972,-0.00000102,-0.00085825,0.00187792,0.00000355,-
 0.00046214,0.00075675,-0.00000308,0.00042171,0.28091604,0.00001005,0.0
 0334643,-0.00000416,0.00018804,-0.03691021,-0.00010553,0.00001057,0.00
 334113,-0.00000932,0.00000651,0.00725489,0.00000093,-0.00000114,-0.000
 88995,0.00000143,0.00000203,0.00724178,-0.00000465,-0.00000302,-0.0040
 5600,0.00000169,-0.00021057,0.02551041,0.02907131,-0.00002326,-0.01059
 747,0.11914264,-0.00010733,-0.12780482,-0.01507147,0.00001246,0.011618
 65,-0.00325779,-0.00000017,-0.00076443,-0.00085690,0.00000063,-0.00075
 070,-0.00130488,-0.00000351,-0.00562682,-0.00042465,0.00000188,0.00100
 394,-0.12851817,0.00011870,0.13233148,-0.00451093,0.00000729,-0.002384
 89,0.00455761,-0.00000881,-0.02845695,-0.05909264,0.00001536,-0.000011
 94,0.00455623,0.00000700,0.02848326,-0.00451590,0.00000832,0.00238491,
 -0.00124531,0.00000025,0.00000038,0.00002209,-0.00000055,-0.00140081,0
 .00094318,-0.00000317,0.00052567,0.05819103,0.00000767,0.00725592,-0.0
 0000024,-0.00000082,0.00334090,0.00001550,0.00001577,-0.03689482,-0.00
 007790,-0.00000196,0.00334054,-0.00002147,0.00000741,0.00724110,-0.000
 00412,0.00000085,-0.00088980,-0.00000005,0.00000009,0.00019787,0.00000
 093,-0.00000350,-0.00404672,0.00000111,-0.00002189,0.02550385,-0.00323
 667,0.00000083,0.00075262,0.00283598,-0.00000633,-0.01157489,0.0000025
 5,-0.00007623,-0.33444493,-0.00282550,-0.00000248,-0.01159167,0.003227
 57,-0.00000348,0.00076763,-0.00000169,0.00000044,0.00073461,0.00019554
 ,-0.00000040,-0.00067404,-0.00030684,0.00000137,0.00081932,-0.00000810
 ,0.00008511,0.35514703,0.00022611,-0.00000045,0.00085297,-0.00299276,0
 .00000731,0.00411339,-0.01863460,0.00000924,-0.01623302,-0.26572931,0.
 00010498,-0.11934033,0.00355357,0.00000041,0.00226664,0.00187751,0.000
 00336,0.00045784,-0.00002953,-0.00000073,-0.00009046,-0.00102213,0.000
 00073,-0.00079831,0.00094517,-0.00000290,0.00031266,0.28102751,-0.0000
 0099,-0.00088393,0.00000066,0.00000666,0.00724172,-0.00000564,0.000019
 84,0.00331793,0.00001168,0.00010379,-0.03687387,0.00004832,-0.00000797
 ,0.00331502,-0.00000602,0.00000447,0.00724785,-0.00000410,-0.00000075,
 -0.00118849,0.00000056,0.00000094,0.00019800,0.00000044,-0.00000348,-0
 .00405829,0.00000100,-0.00011908,0.02554715,0.00085013,-0.00000045,-0.
 00075354,0.00326678,-0.00000431,-0.00076090,0.01507274,-0.00000722,0.0
 1161628,-0.11933357,0.00004804,-0.12800445,-0.02904403,0.00001390,-0.0
 1056408,0.00130417,-0.00000442,-0.00562584,-0.00009066,0.00000040,0.00
 007504,0.00079838,-0.00000063,0.00037007,-0.00053356,0.00000172,0.0008
 2035,0.12868824,-0.00004856,0.13249679,-0.00300328,0.00000485,-0.00410
 816,0.00024007,-0.00000104,-0.00085846,0.00187887,0.00000356,-0.000462
 87,0.00355621,-0.00000048,-0.00225003,-0.26557077,0.00019415,0.1192021
 8,-0.01863766,0.00002050,0.01622317,-0.00102212,0.00000111,0.00079840,
 -0.00002937,-0.00000070,0.00009036,0.00002195,0.00000010,-0.00019550,0
 .00075632,-0.00000320,0.00042215,0.28086675,0.00000477,0.00724866,-0.0
 0000091,-0.00000104,-0.00088996,-0.00000012,0.00000421,0.00724812,-0.0
 0000309,0.00000759,0.00334923,-0.00000025,0.00019946,-0.03690932,-0.00
 011581,0.00000622,0.00333860,-0.00000644,0.00000034,0.00019802,-0.0000
 0040,-0.00000079,-0.00118793,0.00000035,0.00000055,0.00019815,-0.00000
 005,-0.00000304,-0.00406099,0.00000115,-0.00021545,0.02550925,-0.00325
 817,-0.00000116,-0.00076509,-0.00085631,0.00000059,-0.00075105,-0.0013
 0571,-0.00000317,-0.00562443,0.02907066,-0.00002391,-0.01059705,0.1191
 8074,-0.00011230,-0.12786330,-0.01507075,0.00001250,0.01161684,-0.0007
 9829,0.00000057,0.00037008,0.00009056,0.00000038,0.00007531,0.00140220
 ,-0.00000099,-0.00067456,-0.00042518,0.00000203,0.00100434,-0.12855458
 ,0.00012387,0.13238937,0.00455700,0.00000870,0.02848310,-0.00451443,0.
 00000840,0.00238373,-0.00124529,0.00000020,0.00000118,-0.00451230,0.00
 000611,-0.00238598,0.00455685,-0.00001000,-0.02845655,-0.05909445,0.00
 001309,0.00005664,0.00094530,-0.00000333,-0.00053436,0.00002193,0.0000
 0069,0.00140219,0.00012752,-0.00000081,0.00000001,0.00002214,-0.000000
 24,-0.00140078,0.00094304,-0.00000282,0.00052483,0.05819270,-0.0000002
 6,0.00334292,-0.00002595,0.00000974,0.00724732,-0.00000279,-0.00000041
 ,-0.00088979,0.00000086,0.00000531,0.00724960,-0.00000060,-0.00000005,
 0.00333831,0.00001005,0.00001266,-0.03689631,-0.00008900,-0.00000299,-
 0.00406316,0.00000233,0.00000010,0.00019817,-0.00000129,-0.00000088,-0
 .00118871,0.00000022,0.00000017,0.00019789,0.00000038,-0.00000340,-0.0
 0404183,0.00000158,-0.00001999,0.02550561,-0.00282437,-0.00000272,-0.0
 1158867,0.00322655,-0.00000420,0.00076967,-0.00000170,0.00000052,0.000
 73461,-0.00323764,-0.00000025,0.00075061,0.00283691,-0.00000611,-0.011
 57818,0.00006827,-0.00009427,-0.33443233,0.00031278,0.00000130,0.00082
 014,-0.00019549,-0.00000021,-0.00067453,-0.00000018,0.00000040,-0.0000
 8146,0.00019556,-0.00000036,-0.00067407,-0.00030667,0.00000170,0.00081
 954,-0.00007402,0.00010421,0.35513466\\0.00031635,0.00000187,0.0000554
 5,0.00030142,0.00001361,-0.00002053,-0.00012174,-0.00001253,-0.0001862
 8,-0.00021666,0.00000030,-0.00021774,-0.00020950,0.00001574,0.00018043
 ,-0.00006356,-0.00001454,0.00019118,0.00007849,-0.00000349,0.00005187,
 0.00007343,-0.00000015,-0.00005735,0.00000910,-0.00000141,-0.00011263,
 -0.00009137,0.00000176,-0.00003681,-0.00008494,-0.00000513,0.00004399,
 0.00000899,0.00000397,0.00010840\\\@


 IF I AM NOT FOR MYSELF, WHO WILL BE?
 BUT IF I AM ONLY FOR MYSELF, WHAT AM I?
 THOUGH A SEEKER SINCE MY BIRTH,
 HERE IS ALL I'VE LEARNED ON EARTH,
 THIS IS THE GIST OF WHAT I KNOW:
 GIVE ADVICE AND BUY A FOE.

 PRESSED FOR RULES AND VERITIES,
 ALL I RECOLLECT ARE THESE:
 FEED A COLD TO STARVE A FEVER,
 ARGUE WITH NO TRUE-BELIEVER.
 THINK-TOO-LONG IS NEVER-ACT,
 SCRATCH A MYTH AND FIND A FACT.

 STITCH IN TIME SAVES TWENTY STITCHES,
 GIVE THE RICH TO PLEASE THEM, RICHES.
 GIVE TO LOVE YOU HEARTH AND HALL,
 BUT DO NOT GIVE ADVICE AT ALL.

                                  -- HILLEL
 Job cpu time:       0 days  0 hours  6 minutes 18.7 seconds.
 File lengths (MBytes):  RWF=     35 Int=      0 D2E=      0 Chk=      4 Scr=      1
 Normal termination of Gaussian 09 at Sun Oct  9 16:25:02 2016.
