 Entering Gaussian System, Link 0=g09
 Initial command:
 /cluster/software/gaussian/gaussian-09-D.01/g09/l1.exe "/local/scratch/epktb/Gau-2338.inp" -scrdir="/local/scratch/epktb/"
 Entering Link 1 = /cluster/software/gaussian/gaussian-09-D.01/g09/l1.exe PID=      2339.
  
 Copyright (c) 1988,1990,1992,1993,1995,1998,2003,2009,2013,
            Gaussian, Inc.  All Rights Reserved.
  
 This is part of the Gaussian(R) 09 program.  It is based on
 the Gaussian(R) 03 system (copyright 2003, Gaussian, Inc.),
 the Gaussian(R) 98 system (copyright 1998, Gaussian, Inc.),
 the Gaussian(R) 94 system (copyright 1995, Gaussian, Inc.),
 the Gaussian 92(TM) system (copyright 1992, Gaussian, Inc.),
 the Gaussian 90(TM) system (copyright 1990, Gaussian, Inc.),
 the Gaussian 88(TM) system (copyright 1988, Gaussian, Inc.),
 the Gaussian 86(TM) system (copyright 1986, Carnegie Mellon
 University), and the Gaussian 82(TM) system (copyright 1983,
 Carnegie Mellon University). Gaussian is a federally registered
 trademark of Gaussian, Inc.
  
 This software contains proprietary and confidential information,
 including trade secrets, belonging to Gaussian, Inc.
  
 This software is provided under written license and may be
 used, copied, transmitted, or stored only in accord with that
 written license.
  
 The following legend is applicable only to US Government
 contracts under FAR:
  
                    RESTRICTED RIGHTS LEGEND
  
 Use, reproduction and disclosure by the US Government is
 subject to restrictions as set forth in subparagraphs (a)
 and (c) of the Commercial Computer Software - Restricted
 Rights clause in FAR 52.227-19.
  
 Gaussian, Inc.
 340 Quinnipiac St., Bldg. 40, Wallingford CT 06492
  
  
 ---------------------------------------------------------------
 Warning -- This program may not be used in any manner that
 competes with the business of Gaussian, Inc. or will provide
 assistance to any competitor of Gaussian, Inc.  The licensee
 of this program is prohibited from giving any competitor of
 Gaussian, Inc. access to this program.  By using this program,
 the user acknowledges that Gaussian, Inc. is engaged in the
 business of creating and licensing software in the field of
 computational chemistry and represents and warrants to the
 licensee that it is not a competitor of Gaussian, Inc. and that
 it will not use this program in any manner prohibited above.
 ---------------------------------------------------------------
  

 Cite this work as:
 Gaussian 09, Revision D.01,
 M. J. Frisch, G. W. Trucks, H. B. Schlegel, G. E. Scuseria, 
 M. A. Robb, J. R. Cheeseman, G. Scalmani, V. Barone, B. Mennucci, 
 G. A. Petersson, H. Nakatsuji, M. Caricato, X. Li, H. P. Hratchian, 
 A. F. Izmaylov, J. Bloino, G. Zheng, J. L. Sonnenberg, M. Hada, 
 M. Ehara, K. Toyota, R. Fukuda, J. Hasegawa, M. Ishida, T. Nakajima, 
 Y. Honda, O. Kitao, H. Nakai, T. Vreven, J. A. Montgomery, Jr., 
 J. E. Peralta, F. Ogliaro, M. Bearpark, J. J. Heyd, E. Brothers, 
 K. N. Kudin, V. N. Staroverov, T. Keith, R. Kobayashi, J. Normand, 
 K. Raghavachari, A. Rendell, J. C. Burant, S. S. Iyengar, J. Tomasi, 
 M. Cossi, N. Rega, J. M. Millam, M. Klene, J. E. Knox, J. B. Cross, 
 V. Bakken, C. Adamo, J. Jaramillo, R. Gomperts, R. E. Stratmann, 
 O. Yazyev, A. J. Austin, R. Cammi, C. Pomelli, J. W. Ochterski, 
 R. L. Martin, K. Morokuma, V. G. Zakrzewski, G. A. Voth, 
 P. Salvador, J. J. Dannenberg, S. Dapprich, A. D. Daniels, 
 O. Farkas, J. B. Foresman, J. V. Ortiz, J. Cioslowski, 
 and D. J. Fox, Gaussian, Inc., Wallingford CT, 2013.
 
 ******************************************
 Gaussian 09:  ES64L-G09RevD.01 24-Apr-2013
                10-Oct-2016 
 ******************************************
 %nprocshared=4
 Will use up to    4 processors via shared memory.
 %mem=6GB
 %chk=benzene-mp2-2
 -----------------------------------
 #opt mp2(full)/6-311+g** geom=check
 -----------------------------------
 1/18=20,19=15,29=2,38=1/1,3;
 2/9=110,12=2,40=1/2;
 3/5=4,6=6,7=111,11=9,14=-4,16=1,25=1,30=1,71=1/1,2,3;
 4//1;
 5/5=2,38=5/2;
 8/6=4,10=90/1;
 9/15=2,16=-3/6;
 10/5=1/2;
 6/7=2,8=2,9=2,10=2/1;
 7/12=2/1,2,3,16;
 1/18=20,19=15/3(2);
 2/9=110/2;
 99//99;
 2/9=110/2;
 3/5=4,6=6,7=111,11=9,14=-2,16=1,25=1,30=1,71=1/1,2,3;
 4/5=5,16=3,69=1/1;
 5/5=2,38=5/2;
 8/6=4,10=90/1;
 9/15=2,16=-3/6;
 10/5=1/2;
 7/12=2/1,2,3,16;
 1/18=20,19=15/3(-8);
 2/9=110/2;
 6/7=2,8=2,9=2,10=2/1;
 99//99;
 -----
 title
 -----
 Structure from the checkpoint file:  "benzene-mp2-2.chk"
 Charge =  0 Multiplicity = 1
 Redundant internal coordinates found in file.
 C,0,0.,0.,0.9951360108
 C,0,0.,-1.2102873011,1.6963250779
 C,0,0.,-1.2118813485,3.0955356687
 C,0,0.,0.,3.795161362
 C,0,0.,1.2118813485,3.0955356687
 C,0,0.,1.2102873011,1.6963250779
 H,0,0.,0.,-0.0877519247
 H,0,0.,-2.1498034216,1.1499018498
 H,0,0.,-2.1526021058,3.6393092145
 H,0,0.,0.,4.8816880204
 H,0,0.,2.1526021058,3.6393092145
 H,0,0.,2.1498034216,1.1499018498
 C,0,-1.3997852372,0.,-2.3959076935
 C,0,-0.6998428178,1.2118847565,-2.3964428073
 C,0,0.6998428178,1.2118847565,-2.3964428073
 C,0,1.3997852372,0.,-2.3959076935
 C,0,0.6998428178,-1.2118847565,-2.3964428073
 C,0,-0.6998428178,-1.2118847565,-2.3964428073
 H,0,-2.4861566898,0.,-2.3900346444
 H,0,-1.2430951605,2.152884311,-2.396160417
 H,0,1.2430951605,2.152884311,-2.396160417
 H,0,2.4861566898,0.,-2.3900346444
 H,0,1.2430951605,-2.152884311,-2.396160417
 H,0,-1.2430951605,-2.152884311,-2.396160417
 Recover connectivity data from disk.

 GradGradGradGradGradGradGradGradGradGradGradGradGradGradGradGradGradGrad
 Berny optimization.
 Initialization pass.
                           ----------------------------
                           !    Initial Parameters    !
                           ! (Angstroms and Degrees)  !
 --------------------------                            --------------------------
 ! Name  Definition              Value          Derivative Info.                !
 --------------------------------------------------------------------------------
 ! R1    R(1,2)                  1.3987         estimate D2E/DX2                !
 ! R2    R(1,6)                  1.3987         estimate D2E/DX2                !
 ! R3    R(1,7)                  1.0829         estimate D2E/DX2                !
 ! R4    R(2,3)                  1.3992         estimate D2E/DX2                !
 ! R5    R(2,8)                  1.0869         estimate D2E/DX2                !
 ! R6    R(3,4)                  1.3993         estimate D2E/DX2                !
 ! R7    R(3,9)                  1.0866         estimate D2E/DX2                !
 ! R8    R(4,5)                  1.3993         estimate D2E/DX2                !
 ! R9    R(4,10)                 1.0865         estimate D2E/DX2                !
 ! R10   R(5,6)                  1.3992         estimate D2E/DX2                !
 ! R11   R(5,11)                 1.0866         estimate D2E/DX2                !
 ! R12   R(6,12)                 1.0869         estimate D2E/DX2                !
 ! R13   R(7,13)                 2.6994         estimate D2E/DX2                !
 ! R14   R(7,14)                 2.6997         estimate D2E/DX2                !
 ! R15   R(7,15)                 2.6997         estimate D2E/DX2                !
 ! R16   R(7,16)                 2.6994         estimate D2E/DX2                !
 ! R17   R(7,17)                 2.6997         estimate D2E/DX2                !
 ! R18   R(13,14)                1.3995         estimate D2E/DX2                !
 ! R19   R(13,18)                1.3995         estimate D2E/DX2                !
 ! R20   R(13,19)                1.0864         estimate D2E/DX2                !
 ! R21   R(14,15)                1.3997         estimate D2E/DX2                !
 ! R22   R(14,20)                1.0866         estimate D2E/DX2                !
 ! R23   R(15,16)                1.3995         estimate D2E/DX2                !
 ! R24   R(15,21)                1.0866         estimate D2E/DX2                !
 ! R25   R(16,17)                1.3995         estimate D2E/DX2                !
 ! R26   R(16,22)                1.0864         estimate D2E/DX2                !
 ! R27   R(17,18)                1.3997         estimate D2E/DX2                !
 ! R28   R(17,23)                1.0866         estimate D2E/DX2                !
 ! R29   R(18,24)                1.0866         estimate D2E/DX2                !
 ! A1    A(2,1,6)              119.8276         estimate D2E/DX2                !
 ! A2    A(2,1,7)              120.0862         estimate D2E/DX2                !
 ! A3    A(6,1,7)              120.0862         estimate D2E/DX2                !
 ! A4    A(1,2,3)              120.1515         estimate D2E/DX2                !
 ! A5    A(1,2,8)              119.7315         estimate D2E/DX2                !
 ! A6    A(3,2,8)              120.117          estimate D2E/DX2                !
 ! A7    A(2,3,4)              119.9328         estimate D2E/DX2                !
 ! A8    A(2,3,9)              120.0949         estimate D2E/DX2                !
 ! A9    A(4,3,9)              119.9723         estimate D2E/DX2                !
 ! A10   A(3,4,5)              120.0039         estimate D2E/DX2                !
 ! A11   A(3,4,10)             119.9981         estimate D2E/DX2                !
 ! A12   A(5,4,10)             119.9981         estimate D2E/DX2                !
 ! A13   A(4,5,6)              119.9328         estimate D2E/DX2                !
 ! A14   A(4,5,11)             119.9723         estimate D2E/DX2                !
 ! A15   A(6,5,11)             120.0949         estimate D2E/DX2                !
 ! A16   A(1,6,5)              120.1515         estimate D2E/DX2                !
 ! A17   A(1,6,12)             119.7315         estimate D2E/DX2                !
 ! A18   A(5,6,12)             120.117          estimate D2E/DX2                !
 ! A19   A(1,7,13)             148.7652         estimate D2E/DX2                !
 ! A20   A(1,7,14)             148.7773         estimate D2E/DX2                !
 ! A21   A(1,7,15)             148.7773         estimate D2E/DX2                !
 ! A22   A(1,7,16)             148.7652         estimate D2E/DX2                !
 ! A23   A(1,7,17)             148.7773         estimate D2E/DX2                !
 ! A24   A(13,7,15)             53.3603         estimate D2E/DX2                !
 ! A25   A(13,7,16)             62.4696         estimate D2E/DX2                !
 ! A26   A(13,7,17)             53.3603         estimate D2E/DX2                !
 ! A27   A(14,7,16)             53.3603         estimate D2E/DX2                !
 ! A28   A(14,7,17)             62.4454         estimate D2E/DX2                !
 ! A29   A(15,7,17)             53.3453         estimate D2E/DX2                !
 ! A30   A(7,13,18)             74.9882         estimate D2E/DX2                !
 ! A31   A(7,13,19)            120.925          estimate D2E/DX2                !
 ! A32   A(14,13,18)           119.9815         estimate D2E/DX2                !
 ! A33   A(14,13,19)           120.0089         estimate D2E/DX2                !
 ! A34   A(18,13,19)           120.0089         estimate D2E/DX2                !
 ! A35   A(7,14,20)            121.2078         estimate D2E/DX2                !
 ! A36   A(13,14,15)           120.0092         estimate D2E/DX2                !
 ! A37   A(13,14,20)           119.9923         estimate D2E/DX2                !
 ! A38   A(15,14,20)           119.9984         estimate D2E/DX2                !
 ! A39   A(7,15,21)            121.2078         estimate D2E/DX2                !
 ! A40   A(14,15,16)           120.0092         estimate D2E/DX2                !
 ! A41   A(14,15,21)           119.9984         estimate D2E/DX2                !
 ! A42   A(16,15,21)           119.9923         estimate D2E/DX2                !
 ! A43   A(7,16,22)            120.925          estimate D2E/DX2                !
 ! A44   A(15,16,17)           119.9815         estimate D2E/DX2                !
 ! A45   A(15,16,22)           120.0089         estimate D2E/DX2                !
 ! A46   A(17,16,22)           120.0089         estimate D2E/DX2                !
 ! A47   A(7,17,18)             74.9758         estimate D2E/DX2                !
 ! A48   A(7,17,23)            121.2078         estimate D2E/DX2                !
 ! A49   A(16,17,18)           120.0092         estimate D2E/DX2                !
 ! A50   A(16,17,23)           119.9923         estimate D2E/DX2                !
 ! A51   A(18,17,23)           119.9984         estimate D2E/DX2                !
 ! A52   A(13,18,17)           120.0092         estimate D2E/DX2                !
 ! A53   A(13,18,24)           119.9923         estimate D2E/DX2                !
 ! A54   A(17,18,24)           119.9984         estimate D2E/DX2                !
 ! D1    D(6,1,2,3)              0.0            estimate D2E/DX2                !
 ! D2    D(6,1,2,8)            180.0            estimate D2E/DX2                !
 ! D3    D(7,1,2,3)            180.0            estimate D2E/DX2                !
 ! D4    D(7,1,2,8)              0.0            estimate D2E/DX2                !
 ! D5    D(2,1,6,5)              0.0            estimate D2E/DX2                !
 ! D6    D(2,1,6,12)           180.0            estimate D2E/DX2                !
 ! D7    D(7,1,6,5)            180.0            estimate D2E/DX2                !
 ! D8    D(7,1,6,12)             0.0            estimate D2E/DX2                !
 ! D9    D(2,1,7,13)            90.0            estimate D2E/DX2                !
 ! D10   D(2,1,7,14)           149.9943         estimate D2E/DX2                !
 ! D11   D(2,1,7,15)          -149.9943         estimate D2E/DX2                !
 ! D12   D(2,1,7,16)           -90.0            estimate D2E/DX2                !
 ! D13   D(2,1,7,17)           -30.0057         estimate D2E/DX2                !
 ! D14   D(6,1,7,13)           -90.0            estimate D2E/DX2                !
 ! D15   D(6,1,7,14)           -30.0057         estimate D2E/DX2                !
 ! D16   D(6,1,7,15)            30.0057         estimate D2E/DX2                !
 ! D17   D(6,1,7,16)            90.0            estimate D2E/DX2                !
 ! D18   D(6,1,7,17)           149.9943         estimate D2E/DX2                !
 ! D19   D(1,2,3,4)              0.0            estimate D2E/DX2                !
 ! D20   D(1,2,3,9)            180.0            estimate D2E/DX2                !
 ! D21   D(8,2,3,4)            180.0            estimate D2E/DX2                !
 ! D22   D(8,2,3,9)              0.0            estimate D2E/DX2                !
 ! D23   D(2,3,4,5)              0.0            estimate D2E/DX2                !
 ! D24   D(2,3,4,10)           180.0            estimate D2E/DX2                !
 ! D25   D(9,3,4,5)            180.0            estimate D2E/DX2                !
 ! D26   D(9,3,4,10)             0.0            estimate D2E/DX2                !
 ! D27   D(3,4,5,6)              0.0            estimate D2E/DX2                !
 ! D28   D(3,4,5,11)           180.0            estimate D2E/DX2                !
 ! D29   D(10,4,5,6)           180.0            estimate D2E/DX2                !
 ! D30   D(10,4,5,11)            0.0            estimate D2E/DX2                !
 ! D31   D(4,5,6,1)              0.0            estimate D2E/DX2                !
 ! D32   D(4,5,6,12)           180.0            estimate D2E/DX2                !
 ! D33   D(11,5,6,1)           180.0            estimate D2E/DX2                !
 ! D34   D(11,5,6,12)            0.0            estimate D2E/DX2                !
 ! D35   D(1,7,13,18)         -116.2929         estimate D2E/DX2                !
 ! D36   D(1,7,13,19)            0.0            estimate D2E/DX2                !
 ! D37   D(15,7,13,18)          97.7238         estimate D2E/DX2                !
 ! D38   D(15,7,13,19)        -145.9833         estimate D2E/DX2                !
 ! D39   D(16,7,13,18)          63.7071         estimate D2E/DX2                !
 ! D40   D(16,7,13,19)         180.0            estimate D2E/DX2                !
 ! D41   D(17,7,13,18)          29.6904         estimate D2E/DX2                !
 ! D42   D(17,7,13,19)         145.9833         estimate D2E/DX2                !
 ! D43   D(1,7,14,20)            0.0085         estimate D2E/DX2                !
 ! D44   D(16,7,14,20)        -145.9614         estimate D2E/DX2                !
 ! D45   D(17,7,14,20)        -179.9915         estimate D2E/DX2                !
 ! D46   D(1,7,15,21)           -0.0085         estimate D2E/DX2                !
 ! D47   D(13,7,15,21)         145.9614         estimate D2E/DX2                !
 ! D48   D(17,7,15,21)        -145.9776         estimate D2E/DX2                !
 ! D49   D(1,7,16,22)            0.0            estimate D2E/DX2                !
 ! D50   D(13,7,16,22)         180.0            estimate D2E/DX2                !
 ! D51   D(14,7,16,22)         145.9833         estimate D2E/DX2                !
 ! D52   D(1,7,17,18)          116.282          estimate D2E/DX2                !
 ! D53   D(1,7,17,23)            0.0085         estimate D2E/DX2                !
 ! D54   D(13,7,17,18)         -29.6879         estimate D2E/DX2                !
 ! D55   D(13,7,17,23)        -145.9614         estimate D2E/DX2                !
 ! D56   D(14,7,17,18)         -63.718          estimate D2E/DX2                !
 ! D57   D(14,7,17,23)        -179.9915         estimate D2E/DX2                !
 ! D58   D(15,7,17,18)         -97.7489         estimate D2E/DX2                !
 ! D59   D(15,7,17,23)         145.9776         estimate D2E/DX2                !
 ! D60   D(18,13,14,15)         -0.0506         estimate D2E/DX2                !
 ! D61   D(18,13,14,20)        179.9919         estimate D2E/DX2                !
 ! D62   D(19,13,14,15)        179.6423         estimate D2E/DX2                !
 ! D63   D(19,13,14,20)         -0.3152         estimate D2E/DX2                !
 ! D64   D(7,13,18,17)         -62.2837         estimate D2E/DX2                !
 ! D65   D(7,13,18,24)         117.6738         estimate D2E/DX2                !
 ! D66   D(14,13,18,17)          0.0506         estimate D2E/DX2                !
 ! D67   D(14,13,18,24)       -179.9919         estimate D2E/DX2                !
 ! D68   D(19,13,18,17)       -179.6423         estimate D2E/DX2                !
 ! D69   D(19,13,18,24)          0.3152         estimate D2E/DX2                !
 ! D70   D(13,14,15,16)          0.0            estimate D2E/DX2                !
 ! D71   D(13,14,15,21)       -179.9575         estimate D2E/DX2                !
 ! D72   D(20,14,15,16)        179.9575         estimate D2E/DX2                !
 ! D73   D(20,14,15,21)          0.0            estimate D2E/DX2                !
 ! D74   D(14,15,16,17)          0.0506         estimate D2E/DX2                !
 ! D75   D(14,15,16,22)       -179.6423         estimate D2E/DX2                !
 ! D76   D(21,15,16,17)       -179.9919         estimate D2E/DX2                !
 ! D77   D(21,15,16,22)          0.3152         estimate D2E/DX2                !
 ! D78   D(15,16,17,18)         -0.0506         estimate D2E/DX2                !
 ! D79   D(15,16,17,23)        179.9919         estimate D2E/DX2                !
 ! D80   D(22,16,17,18)        179.6423         estimate D2E/DX2                !
 ! D81   D(22,16,17,23)         -0.3152         estimate D2E/DX2                !
 ! D82   D(7,17,18,13)          62.2787         estimate D2E/DX2                !
 ! D83   D(7,17,18,24)        -117.6788         estimate D2E/DX2                !
 ! D84   D(16,17,18,13)          0.0            estimate D2E/DX2                !
 ! D85   D(16,17,18,24)       -179.9575         estimate D2E/DX2                !
 ! D86   D(23,17,18,13)        179.9575         estimate D2E/DX2                !
 ! D87   D(23,17,18,24)          0.0            estimate D2E/DX2                !
 --------------------------------------------------------------------------------
 Trust Radius=3.00D-01 FncErr=1.00D-07 GrdErr=1.00D-07
 Number of steps in this run=    144 maximum allowed number of steps=    144.
 GradGradGradGradGradGradGradGradGradGradGradGradGradGradGradGradGradGrad

                          Input orientation:                          
 ---------------------------------------------------------------------
 Center     Atomic      Atomic             Coordinates (Angstroms)
 Number     Number       Type             X           Y           Z
 ---------------------------------------------------------------------
      1          6           0        0.000000    0.000000    0.995136
      2          6           0        0.000000   -1.210287    1.696325
      3          6           0        0.000000   -1.211881    3.095536
      4          6           0        0.000000    0.000000    3.795161
      5          6           0        0.000000    1.211881    3.095536
      6          6           0        0.000000    1.210287    1.696325
      7          1           0        0.000000    0.000000   -0.087752
      8          1           0        0.000000   -2.149803    1.149902
      9          1           0        0.000000   -2.152602    3.639309
     10          1           0        0.000000    0.000000    4.881688
     11          1           0        0.000000    2.152602    3.639309
     12          1           0        0.000000    2.149803    1.149902
     13          6           0       -1.399785    0.000000   -2.395908
     14          6           0       -0.699843    1.211885   -2.396443
     15          6           0        0.699843    1.211885   -2.396443
     16          6           0        1.399785    0.000000   -2.395908
     17          6           0        0.699843   -1.211885   -2.396443
     18          6           0       -0.699843   -1.211885   -2.396443
     19          1           0       -2.486157    0.000000   -2.390035
     20          1           0       -1.243095    2.152884   -2.396160
     21          1           0        1.243095    2.152884   -2.396160
     22          1           0        2.486157    0.000000   -2.390035
     23          1           0        1.243095   -2.152884   -2.396160
     24          1           0       -1.243095   -2.152884   -2.396160
 ---------------------------------------------------------------------
                    Distance matrix (angstroms):
                    1          2          3          4          5
     1  C    0.000000
     2  C    1.398736   0.000000
     3  C    2.424940   1.399211   0.000000
     4  C    2.800025   2.422790   1.399333   0.000000
     5  C    2.424940   2.797265   2.423763   1.399333   0.000000
     6  C    1.398736   2.420575   2.797265   2.422790   1.399211
     7  H    1.082888   2.155859   3.406167   3.882913   3.406167
     8  H    2.155367   1.086862   2.159905   3.408673   3.884124
     9  H    3.409596   2.159432   1.086575   2.158237   3.408143
    10  H    3.886552   3.407541   2.158471   1.086527   2.158471
    11  H    3.409596   3.883840   3.408143   2.158237   1.086575
    12  H    2.155367   3.404231   3.884124   3.408673   2.159905
    13  C    3.668593   4.491165   5.795171   6.347341   5.795171
    14  C    3.668958   4.807021   6.043695   6.347788   5.536389
    15  C    3.668958   4.807021   6.043695   6.347788   5.536389
    16  C    3.668593   4.491165   5.795171   6.347341   5.795171
    17  C    3.668958   4.152172   5.536389   6.347788   6.043695
    18  C    3.668958   4.152172   5.536389   6.347788   6.043695
    19  H    4.200042   4.933975   6.143380   6.666155   6.143380
    20  H    4.204889   5.441015   6.559395   6.671781   5.708721
    21  H    4.204889   5.441015   6.559395   6.671781   5.708721
    22  H    4.200042   4.933975   6.143380   6.666155   6.143380
    23  H    4.204889   4.379750   5.708721   6.671781   6.559395
    24  H    4.204889   4.379750   5.708721   6.671781   6.559395
                    6          7          8          9         10
     6  C    0.000000
     7  H    2.155859   0.000000
     8  H    3.404231   2.480613   0.000000
     9  H    3.883840   4.304031   2.489409   0.000000
    10  H    3.407541   4.969440   4.306725   2.485398   0.000000
    11  H    2.159432   4.304031   4.970698   4.305204   2.485398
    12  H    1.086862   2.480613   4.299607   4.970698   4.306725
    13  C    4.491165   2.699441   4.376508   6.558730   7.410992
    14  C    4.152172   2.699722   4.936323   6.945492   7.411453
    15  C    4.152172   2.699722   4.936323   6.945492   7.411453
    16  C    4.491165   2.699441   4.376508   6.558730   7.410992
    17  C    4.807021   2.699722   3.734439   6.148580   7.411453
    18  C    4.807021   2.699722   3.734439   6.148580   7.411453
    19  H    4.933975   3.388433   4.830505   6.867871   7.684981
    20  H    4.379750   3.392484   5.712527   7.517273   7.690727
    21  H    4.379750   3.392484   5.712527   7.517273   7.690727
    22  H    4.933975   3.388433   4.830505   6.867871   7.684981
    23  H    5.441015   3.392484   3.757639   6.162157   7.690727
    24  H    5.441015   3.392484   3.757639   6.162157   7.690727
                   11         12         13         14         15
    11  H    0.000000
    12  H    2.489409   0.000000
    13  C    6.558730   4.376508   0.000000
    14  C    6.148580   3.734439   1.399494   0.000000
    15  C    6.148580   3.734439   2.424274   1.399686   0.000000
    16  C    6.558730   4.376508   2.799570   2.424274   1.399494
    17  C    6.945492   4.936323   2.424274   2.798889   2.423770
    18  C    6.945492   4.936323   1.399494   2.423770   2.798889
    19  H    6.867871   4.830505   1.086387   2.158616   3.408709
    20  H    6.162157   3.757639   2.158579   1.086556   2.158816
    21  H    6.162157   3.757639   3.408772   2.158816   1.086556
    22  H    6.867871   4.830505   3.885946   3.408709   2.158616
    23  H    7.517273   5.712527   3.408772   3.885444   3.408342
    24  H    7.517273   5.712527   2.158579   3.408342   3.885444
                   16         17         18         19         20
    16  C    0.000000
    17  C    1.399494   0.000000
    18  C    2.424274   1.399686   0.000000
    19  H    3.885946   3.408709   2.158616   0.000000
    20  H    3.408772   3.885444   3.408342   2.485991   0.000000
    21  H    2.158579   3.408342   3.885444   4.306073   2.486190
    22  H    1.086387   2.158616   3.408709   4.972313   4.306073
    23  H    2.158579   1.086556   2.158816   4.306073   4.972000
    24  H    3.408772   2.158816   1.086556   2.485991   4.305769
                   21         22         23         24
    21  H    0.000000
    22  H    2.485991   0.000000
    23  H    4.305769   2.485991   0.000000
    24  H    4.972000   4.306073   2.486190   0.000000
 Stoichiometry    C12H12
 Framework group  C2V[C2(HCCH),SGV(C4H4),SGV'(C2H2),X(C4H4)]
 Deg. of freedom    21
 Full point group                 C2V     NOp   4
 Largest Abelian subgroup         C2V     NOp   4
 Largest concise Abelian subgroup C2V     NOp   4
                         Standard orientation:                         
 ---------------------------------------------------------------------
 Center     Atomic      Atomic             Coordinates (Angstroms)
 Number     Number       Type             X           Y           Z
 ---------------------------------------------------------------------
      1          6           0        0.000000    0.000000    0.995300
      2          6           0        0.000000    1.210287    1.696489
      3          6           0        0.000000    1.211881    3.095699
      4          6           0        0.000000    0.000000    3.795325
      5          6           0        0.000000   -1.211881    3.095699
      6          6           0        0.000000   -1.210287    1.696489
      7          1           0        0.000000    0.000000   -0.087588
      8          1           0        0.000000    2.149803    1.150066
      9          1           0        0.000000    2.152602    3.639473
     10          1           0        0.000000    0.000000    4.881852
     11          1           0        0.000000   -2.152602    3.639473
     12          1           0        0.000000   -2.149803    1.150066
     13          6           0        1.399785    0.000000   -2.395744
     14          6           0        0.699843   -1.211885   -2.396279
     15          6           0       -0.699843   -1.211885   -2.396279
     16          6           0       -1.399785    0.000000   -2.395744
     17          6           0       -0.699843    1.211885   -2.396279
     18          6           0        0.699843    1.211885   -2.396279
     19          1           0        2.486157    0.000000   -2.389871
     20          1           0        1.243095   -2.152884   -2.395997
     21          1           0       -1.243095   -2.152884   -2.395997
     22          1           0       -2.486157    0.000000   -2.389871
     23          1           0       -1.243095    2.152884   -2.395997
     24          1           0        1.243095    2.152884   -2.395997
 ---------------------------------------------------------------------
 Rotational constants (GHZ):      1.8895342      0.4703567      0.4343703
 Standard basis: 6-311+G(d,p) (5D, 7F)
 There are   127 symmetry adapted cartesian basis functions of A1  symmetry.
 There are    52 symmetry adapted cartesian basis functions of A2  symmetry.
 There are    77 symmetry adapted cartesian basis functions of B1  symmetry.
 There are    92 symmetry adapted cartesian basis functions of B2  symmetry.
 There are   121 symmetry adapted basis functions of A1  symmetry.
 There are    51 symmetry adapted basis functions of A2  symmetry.
 There are    75 symmetry adapted basis functions of B1  symmetry.
 There are    89 symmetry adapted basis functions of B2  symmetry.
   336 basis functions,   528 primitive gaussians,   348 cartesian basis functions
    42 alpha electrons       42 beta electrons
       nuclear repulsion energy       595.0138735997 Hartrees.
 NAtoms=   24 NActive=   24 NUniq=   12 SFac= 4.00D+00 NAtFMM=   60 NAOKFM=F Big=F
 Integral buffers will be    131072 words long.
 Raffenetti 1 integral format.
 Two-electron integral symmetry is turned on.
 One-electron integrals computed using PRISM.
 NBasis=   336 RedAO= T EigKep=  2.07D-06  NBF=   121    51    75    89
 NBsUse=   336 1.00D-06 EigRej= -1.00D+00 NBFU=   121    51    75    89
 ExpMin= 4.38D-02 ExpMax= 4.56D+03 ExpMxC= 6.82D+02 IAcc=2 IRadAn=         4 AccDes= 0.00D+00
 Harris functional with IExCor=  205 and IRadAn=       4 diagonalized for initial guess.
 HarFok:  IExCor=  205 AccDes= 0.00D+00 IRadAn=         4 IDoV= 1 UseB2=F ITyADJ=14
 ICtDFT=  3500011 ScaDFX=  1.000000  1.000000  1.000000  1.000000
 FoFCou: FMM=F IPFlag=           0 FMFlag=      100000 FMFlg1=           0
         NFxFlg=           0 DoJE=T BraDBF=F KetDBF=T FulRan=T
         wScrn=  0.000000 ICntrl=     500 IOpCl=  0 I1Cent=   200000004 NGrid=           0
         NMat0=    1 NMatS0=      1 NMatT0=    0 NMatD0=    1 NMtDS0=    0 NMtDT0=    0
 Petite list used in FoFCou.
 Initial guess orbital symmetries:
       Occupied  (A1) (A1) (B1) (B2) (A1) (B2) (A1) (A1) (A2) (B2)
                 (B1) (A1) (A1) (A1) (A1) (B2) (B1) (B2) (A1) (B2)
                 (A2) (A1) (A1) (A1) (B2) (B2) (A1) (B1) (A1) (B2)
                 (B1) (B2) (A1) (B1) (A1) (A2) (B2) (A1) (B1) (B2)
                 (A2) (B1)
       Virtual   (A2) (A1) (B1) (A2) (A1) (A1) (B1) (B1) (B2) (B1)
                 (A1) (B2) (A1) (A1) (A2) (B2) (A1) (A1) (B1) (B1)
                 (B1) (B2) (A1) (A2) (B2) (B2) (A1) (B1) (B2) (B2)
                 (A1) (A2) (A1) (A1) (A2) (B1) (A1) (B1) (B2) (B2)
                 (A1) (A1) (A2) (A1) (B1) (A1) (B2) (A2) (B1) (A1)
                 (B2) (B1) (B2) (B1) (A1) (A2) (A1) (B2) (A1) (B1)
                 (B2) (A1) (B2) (A1) (B1) (A2) (B2) (A1) (B2) (A1)
                 (B1) (A2) (A1) (B2) (A1) (B2) (A1) (A2) (B2) (A1)
                 (B1) (B2) (B2) (A1) (B1) (A1) (B1) (A2) (B2) (A1)
                 (A2) (B1) (B1) (A1) (B2) (A2) (A1) (B1) (A2) (A1)
                 (B2) (A1) (A2) (B1) (A1) (A1) (B1) (B2) (A1) (B1)
                 (B2) (B1) (B2) (A1) (A1) (B2) (A1) (B1) (B2) (A1)
                 (A2) (A2) (B2) (A1) (B1) (A1) (B2) (B1) (A1) (B2)
                 (B1) (B2) (A1) (A2) (B2) (A2) (B2) (B1) (A1) (A2)
                 (A1) (B1) (A2) (A2) (A1) (B2) (B1) (A1) (A1) (B1)
                 (A1) (A1) (B2) (A1) (B2) (B1) (B2) (B2) (A1) (A1)
                 (A2) (B1) (A1) (A2) (B1) (B1) (B2) (A2) (A1) (A1)
                 (B2) (B1) (B2) (A1) (B1) (A1) (B1) (A2) (B2) (B1)
                 (A1) (B2) (A2) (A1) (B2) (B2) (A2) (B1) (B1) (B2)
                 (B2) (B1) (A1) (B2) (A1) (A2) (B1) (A2) (A1) (B2)
                 (A1) (B2) (A2) (A2) (A1) (B1) (A2) (A2) (B1) (B1)
                 (A1) (B2) (A1) (A2) (B1) (B2) (A1) (B2) (A1) (A1)
                 (B2) (B1) (A1) (B1) (B2) (A1) (B1) (A1) (A1) (B1)
                 (A2) (B2) (A1) (B1) (B2) (B2) (A2) (A1) (A1) (B1)
                 (A1) (B1) (A1) (A2) (A2) (B1) (B2) (A1) (A2) (B2)
                 (A2) (A1) (B2) (A1) (B2) (B1) (B1) (B2) (B2) (A2)
                 (A1) (A1) (B2) (A1) (B1) (B2) (A1) (A1) (B1) (A1)
                 (A2) (A1) (B2) (A1) (B1) (A1) (B1) (B2) (B2) (A1)
                 (A2) (B2) (A1) (A1) (B2) (B1) (A1) (B2) (A2) (A1)
                 (B2) (A1) (B1) (A1)
 The electronic state of the initial guess is 1-A1.
 Requested convergence on RMS density matrix=1.00D-08 within 128 cycles.
 Requested convergence on MAX density matrix=1.00D-06.
 Requested convergence on             energy=1.00D-06.
 No special actions if energy rises.
 Initial convergence to 1.0D-05 achieved.  Increase integral accuracy.
 SCF Done:  E(RHF) =  -461.507164419     A.U. after   13 cycles
            NFock= 13  Conv=0.85D-08     -V/T= 2.0016
 Range of M.O.s used for correlation:     1   336
 NBasis=   336 NAE=    42 NBE=    42 NFC=     0 NFV=     0
 NROrb=    336 NOA=    42 NOB=    42 NVA=   294 NVB=   294

 **** Warning!!: The largest alpha MO coefficient is  0.13778508D+03

 Fully direct method using O(ONN) memory.
 JobTyp=1 Pass  1:  I=   1 to  27 NPSUse=  4 ParTrn=T ParDer=T DoDerP=T.
 JobTyp=1 Pass  2:  I=  28 to  42 NPSUse=  4 ParTrn=T ParDer=T DoDerP=T.
 Spin components of T(2) and E(2):
     alpha-alpha T2 =       0.8707225029D-01 E2=     -0.2301941663D+00
     alpha-beta  T2 =       0.4556450770D+00 E2=     -0.1435981065D+01
     beta-beta   T2 =       0.8707225029D-01 E2=     -0.2301941663D+00
 ANorm=    0.1276632123D+01
 E2 =    -0.1896369398D+01 EUMP2 =    -0.46340353381737D+03
          IDoAtm=111111111111111111111111
          Differentiating once with respect to electric field.
                with respect to dipole field.
          Differentiating once with respect to nuclear coordinates.
          There are     1 degrees of freedom in the 1st order CPHF.  IDoFFX=0 NUNeed=     1.
 LinEq1:  Iter=  0 NonCon=     1 RMS=2.48D-03 Max=7.15D-02 NDo=     1
 AX will form     1 AO Fock derivatives at one time.
 LinEq1:  Iter=  1 NonCon=     1 RMS=5.98D-04 Max=1.48D-02 NDo=     1
 LinEq1:  Iter=  2 NonCon=     1 RMS=1.69D-04 Max=5.28D-03 NDo=     1
 LinEq1:  Iter=  3 NonCon=     1 RMS=3.74D-05 Max=9.79D-04 NDo=     1
 LinEq1:  Iter=  4 NonCon=     1 RMS=9.36D-06 Max=4.59D-04 NDo=     1
 LinEq1:  Iter=  5 NonCon=     1 RMS=4.04D-06 Max=2.60D-04 NDo=     1
 LinEq1:  Iter=  6 NonCon=     1 RMS=1.71D-06 Max=5.29D-05 NDo=     1
 LinEq1:  Iter=  7 NonCon=     1 RMS=2.94D-07 Max=8.46D-06 NDo=     1
 LinEq1:  Iter=  8 NonCon=     1 RMS=1.13D-07 Max=2.21D-06 NDo=     1
 LinEq1:  Iter=  9 NonCon=     1 RMS=1.61D-08 Max=2.65D-07 NDo=     1
 LinEq1:  Iter= 10 NonCon=     1 RMS=4.63D-09 Max=1.33D-07 NDo=     1
 LinEq1:  Iter= 11 NonCon=     1 RMS=1.31D-09 Max=2.38D-08 NDo=     1
 LinEq1:  Iter= 12 NonCon=     1 RMS=3.29D-10 Max=6.54D-09 NDo=     1
 LinEq1:  Iter= 13 NonCon=     1 RMS=8.74D-11 Max=1.11D-09 NDo=     1
 LinEq1:  Iter= 14 NonCon=     0 RMS=1.28D-11 Max=2.69D-10 NDo=     1
 Linear equations converged to 1.000D-10 1.000D-09 after    14 iterations.
 End of Minotr F.D. properties file   721 does not exist.
 End of Minotr F.D. properties file   722 does not exist.
 End of Minotr F.D. properties file   788 does not exist.

 **********************************************************************

            Population analysis using the SCF density.

 **********************************************************************

 Orbital symmetries:
       Occupied  (A1) (B2) (B1) (A2) (A1) (B1) (A1) (B2) (A1) (A1)
                 (B2) (A1) (A1) (A1) (B2) (B1) (B2) (A1) (A2) (A1)
                 (B2) (A1) (A1) (A1) (B1) (A1) (B2) (B2) (B2) (B1)
                 (A1) (B2) (A1) (A2) (A1) (B1) (B2) (A1) (B1) (B2)
                 (A2) (B1)
       Virtual   (A1) (B2) (A1) (B1) (B2) (A1) (A2) (A1) (A2) (A1)
                 (B1) (A1) (B2) (A2) (B1) (B1) (A1) (B2) (A1) (B1)
                 (B2) (A2) (A1) (A1) (A2) (B1) (B2) (B1) (A1) (B1)
                 (A2) (B2) (B2) (B2) (B1) (A1) (A1) (A2) (A1) (B1)
                 (B2) (A1) (B1) (A2) (A1) (B2) (A2) (A1) (B1) (A1)
                 (A1) (B1) (B2) (B2) (B2) (A1) (B1) (A1) (B2) (A1)
                 (A2) (B1) (A1) (B2) (B1) (A1) (A2) (A1) (B2) (B1)
                 (B2) (A1) (A1) (B2) (A1) (A1) (B2) (B1) (A1) (B2)
                 (B2) (B1) (A1) (A1) (B2) (B1) (A2) (A2) (A1) (B2)
                 (A2) (B1) (B2) (B1) (A1) (A2) (A1) (B1) (A2) (A1)
                 (B2) (B1) (B1) (A1) (A1) (A2) (B1) (B1) (B2) (A1)
                 (B2) (B2) (A1) (A1) (A1) (A1) (A2) (B1) (B2) (A1)
                 (B2) (A1) (B2) (B1) (B2) (B1) (B2) (A1) (A1) (A2)
                 (A1) (B2) (B1) (A2) (A1) (B2) (A1) (B2) (A2) (B1)
                 (A2) (B1) (B2) (A2) (A1) (A2) (B1) (A1) (B1) (A1)
                 (A1) (A1) (B2) (A1) (B2) (B1) (B2) (B2) (A1) (B1)
                 (A1) (A2) (B1) (A1) (A2) (B1) (A2) (A1) (B2) (B1)
                 (B2) (A1) (B2) (A1) (B1) (A1) (B1) (A2) (B2) (B1)
                 (A1) (A2) (B2) (A1) (B2) (B2) (B1) (B2) (A2) (A2)
                 (B1) (B2) (B1) (B2) (A1) (B1) (B2) (A1) (A2) (A1)
                 (A1) (A2) (A1) (A2) (B2) (B1) (B1) (A2) (B1) (A2)
                 (A2) (A1) (A1) (B2) (A1) (B2) (B1) (B2) (A1) (A1)
                 (B2) (B1) (A1) (B2) (A1) (B1) (A1) (B2) (A1) (B1)
                 (B2) (A2) (A1) (B1) (A1) (B1) (A1) (B2) (A1) (A1)
                 (B1) (A2) (B2) (B1) (A2) (B2) (A2) (A1) (A2) (A1)
                 (A2) (B1) (B2) (A1) (B1) (B1) (B2) (B2) (A2) (A1)
                 (B2) (A1) (B2) (B1) (A1) (B2) (A1) (A1) (B1) (A1)
                 (A2) (A1) (B2) (A1) (B1) (A1) (B1) (B2) (B2) (A1)
                 (A2) (B2) (A1) (A1) (B1) (B2) (B2) (A1) (A2) (A1)
                 (B2) (A1) (B1) (A1)
 The electronic state is 1-A1.
 Alpha  occ. eigenvalues --  -11.24596 -11.24547 -11.24533 -11.24427 -11.24412
 Alpha  occ. eigenvalues --  -11.24360 -11.23273 -11.23224 -11.23093 -11.22954
 Alpha  occ. eigenvalues --  -11.22941 -11.22492  -1.15589  -1.14031  -1.02049
 Alpha  occ. eigenvalues --   -1.02022  -1.00606  -1.00545  -0.82931  -0.82925
 Alpha  occ. eigenvalues --   -0.81545  -0.81523  -0.71426  -0.70056  -0.64947
 Alpha  occ. eigenvalues --   -0.63675  -0.62410  -0.60990  -0.59386  -0.59360
 Alpha  occ. eigenvalues --   -0.58284  -0.58015  -0.50974  -0.50086  -0.50064
 Alpha  occ. eigenvalues --   -0.49151  -0.48684  -0.47730  -0.34556  -0.34355
 Alpha  occ. eigenvalues --   -0.32839  -0.32372
 Alpha virt. eigenvalues --    0.06313   0.07154   0.07572   0.07774   0.08903
 Alpha virt. eigenvalues --    0.08996   0.09301   0.09908   0.09990   0.10249
 Alpha virt. eigenvalues --    0.11374   0.11651   0.12118   0.12455   0.12569
 Alpha virt. eigenvalues --    0.12986   0.14378   0.15203   0.15736   0.15769
 Alpha virt. eigenvalues --    0.16007   0.16585   0.18775   0.19650   0.19675
 Alpha virt. eigenvalues --    0.19834   0.20293   0.20518   0.21478   0.22196
 Alpha virt. eigenvalues --    0.22259   0.22415   0.23590   0.24707   0.24763
 Alpha virt. eigenvalues --    0.24896   0.25208   0.25317   0.26957   0.27196
 Alpha virt. eigenvalues --    0.27912   0.28415   0.28806   0.29061   0.29294
 Alpha virt. eigenvalues --    0.29577   0.30172   0.30949   0.31306   0.32168
 Alpha virt. eigenvalues --    0.32570   0.32748   0.32840   0.33008   0.35187
 Alpha virt. eigenvalues --    0.35971   0.36152   0.36416   0.37045   0.37079
 Alpha virt. eigenvalues --    0.37999   0.38054   0.39059   0.39699   0.40373
 Alpha virt. eigenvalues --    0.40625   0.47657   0.47766   0.48361   0.48487
 Alpha virt. eigenvalues --    0.49224   0.50390   0.52056   0.52711   0.57067
 Alpha virt. eigenvalues --    0.60142   0.60382   0.69069   0.69398   0.69635
 Alpha virt. eigenvalues --    0.71699   0.72266   0.72795   0.73357   0.74218
 Alpha virt. eigenvalues --    0.74332   0.74348   0.75565   0.76081   0.76173
 Alpha virt. eigenvalues --    0.76875   0.77096   0.78267   0.80481   0.82265
 Alpha virt. eigenvalues --    0.82352   0.83982   0.84766   0.84822   0.86357
 Alpha virt. eigenvalues --    0.86357   0.88425   0.90467   0.91131   0.91914
 Alpha virt. eigenvalues --    0.91991   0.92441   0.92933   0.93008   0.93171
 Alpha virt. eigenvalues --    0.94232   0.94968   0.96467   0.97761   0.98810
 Alpha virt. eigenvalues --    1.00043   1.00369   1.00879   1.01217   1.01336
 Alpha virt. eigenvalues --    1.03529   1.03669   1.04650   1.08467   1.09039
 Alpha virt. eigenvalues --    1.09919   1.10795   1.10987   1.11473   1.12036
 Alpha virt. eigenvalues --    1.17849   1.20111   1.20234   1.20368   1.22195
 Alpha virt. eigenvalues --    1.22562   1.23879   1.24998   1.26352   1.31821
 Alpha virt. eigenvalues --    1.33168   1.35001   1.37555   1.38303   1.38669
 Alpha virt. eigenvalues --    1.39915   1.41067   1.41571   1.49595   1.51932
 Alpha virt. eigenvalues --    1.58443   1.68812   1.70575   1.75174   1.76500
 Alpha virt. eigenvalues --    1.77086   1.77129   1.78654   1.79764   1.81184
 Alpha virt. eigenvalues --    1.82684   1.83418   1.83713   1.84304   1.85280
 Alpha virt. eigenvalues --    1.85300   1.90486   1.90788   1.92089   1.92180
 Alpha virt. eigenvalues --    1.92222   1.92296   1.96028   1.96704   2.01078
 Alpha virt. eigenvalues --    2.02580   2.05100   2.06031   2.06338   2.08200
 Alpha virt. eigenvalues --    2.09027   2.09353   2.09663   2.12140   2.12176
 Alpha virt. eigenvalues --    2.13885   2.22780   2.22944   2.23324   2.24163
 Alpha virt. eigenvalues --    2.24250   2.24809   2.24979   2.25772   2.26796
 Alpha virt. eigenvalues --    2.28236   2.28651   2.29641   2.33109   2.33706
 Alpha virt. eigenvalues --    2.36506   2.36819   2.37754   2.38208   2.38507
 Alpha virt. eigenvalues --    2.41561   2.62620   2.64792   2.64937   2.66289
 Alpha virt. eigenvalues --    2.71347   2.71887   2.72948   2.73342   2.74734
 Alpha virt. eigenvalues --    2.76430   2.77124   2.80098   2.81242   2.84316
 Alpha virt. eigenvalues --    2.93591   2.94034   2.95342   2.96459   2.97612
 Alpha virt. eigenvalues --    2.98179   2.99187   3.02452   3.03481   3.04687
 Alpha virt. eigenvalues --    3.05172   3.05782   3.05933   3.06775   3.07012
 Alpha virt. eigenvalues --    3.08247   3.08513   3.10179   3.11057   3.17864
 Alpha virt. eigenvalues --    3.19862   3.20176   3.23801   3.23808   3.24534
 Alpha virt. eigenvalues --    3.27527   3.28307   3.29075   3.29568   3.30127
 Alpha virt. eigenvalues --    3.31208   3.31930   3.32517   3.35156   3.47124
 Alpha virt. eigenvalues --    3.49630   3.53113   3.59333   3.76368   3.76586
 Alpha virt. eigenvalues --    3.77691   3.79591   3.90902   3.91358   3.91441
 Alpha virt. eigenvalues --    3.94315   3.95136   3.99243   4.04719   4.07182
 Alpha virt. eigenvalues --    4.38246   4.38449   4.39882   4.41288   4.47913
 Alpha virt. eigenvalues --    4.49680   4.56110   4.56539   4.57950   4.61267
 Alpha virt. eigenvalues --    5.26233   5.28511  24.74921  24.79171  25.10844
 Alpha virt. eigenvalues --   25.11909  25.12400  25.13408  25.23057  25.23135
 Alpha virt. eigenvalues --   25.24767  25.25010  25.33881  25.35725
          Condensed to atoms (all electrons):
               1          2          3          4          5          6
     1  C    7.327858  -0.560784  -0.134616  -0.391321  -0.134616  -0.560784
     2  C   -0.560784  10.357228  -0.589506   0.072824  -0.326917  -3.088766
     3  C   -0.134616  -0.589506   6.180869   0.470773   0.261503  -0.326917
     4  C   -0.391321   0.072824   0.470773   5.053789   0.470773   0.072824
     5  C   -0.134616  -0.326917   0.261503   0.470773   6.180869  -0.589506
     6  C   -0.560784  -3.088766  -0.326917   0.072824  -0.589506  10.357228
     7  H    0.364716  -0.050625   0.018909   0.006108   0.018909  -0.050625
     8  H    0.052303   0.371340  -0.038328  -0.010417  -0.003198  -0.005966
     9  H   -0.008965  -0.019305   0.393033   0.017085  -0.006408  -0.008869
    10  H    0.019248  -0.031064   0.010597   0.390891   0.010597  -0.031064
    11  H   -0.008965  -0.008869  -0.006408   0.017085   0.393033  -0.019305
    12  H    0.052303  -0.005966  -0.003198  -0.010417  -0.038328   0.371340
    13  C   -0.237254   0.036886   0.039884   0.005249   0.039884   0.036886
    14  C   -0.062477  -0.281534  -0.010808   0.001636   0.002525   0.349596
    15  C   -0.062477  -0.281534  -0.010808   0.001636   0.002525   0.349596
    16  C   -0.237254   0.036886   0.039884   0.005249   0.039884   0.036886
    17  C   -0.062477   0.349596   0.002525   0.001636  -0.010808  -0.281534
    18  C   -0.062477   0.349596   0.002525   0.001636  -0.010808  -0.281534
    19  H   -0.005033   0.000794   0.000286  -0.000021   0.000286   0.000794
    20  H   -0.002042   0.001317  -0.000102   0.000062  -0.000373  -0.001480
    21  H   -0.002042   0.001317  -0.000102   0.000062  -0.000373  -0.001480
    22  H   -0.005033   0.000794   0.000286  -0.000021   0.000286   0.000794
    23  H   -0.002042  -0.001480  -0.000373   0.000062  -0.000102   0.001317
    24  H   -0.002042  -0.001480  -0.000373   0.000062  -0.000102   0.001317
               7          8          9         10         11         12
     1  C    0.364716   0.052303  -0.008965   0.019248  -0.008965   0.052303
     2  C   -0.050625   0.371340  -0.019305  -0.031064  -0.008869  -0.005966
     3  C    0.018909  -0.038328   0.393033   0.010597  -0.006408  -0.003198
     4  C    0.006108  -0.010417   0.017085   0.390891   0.017085  -0.010417
     5  C    0.018909  -0.003198  -0.006408   0.010597   0.393033  -0.038328
     6  C   -0.050625  -0.005966  -0.008869  -0.031064  -0.019305   0.371340
     7  H    0.517251  -0.006856  -0.000100   0.000039  -0.000100  -0.006856
     8  H   -0.006856   0.512074  -0.004452  -0.000122   0.000034  -0.000066
     9  H   -0.000100  -0.004452   0.508611  -0.004907  -0.000113   0.000034
    10  H    0.000039  -0.000122  -0.004907   0.507657  -0.004907  -0.000122
    11  H   -0.000100   0.000034  -0.000113  -0.004907   0.508611  -0.004452
    12  H   -0.006856  -0.000066   0.000034  -0.000122  -0.004452   0.512074
    13  C    0.018525  -0.003224   0.000064  -0.000029   0.000064  -0.003224
    14  C    0.000621   0.001158   0.000006   0.000013   0.000054   0.002598
    15  C    0.000621   0.001158   0.000006   0.000013   0.000054   0.002598
    16  C    0.018525  -0.003224   0.000064  -0.000029   0.000064  -0.003224
    17  C    0.000621   0.002598   0.000054   0.000013   0.000006   0.001158
    18  C    0.000621   0.002598   0.000054   0.000013   0.000006   0.001158
    19  H    0.000438   0.000006   0.000000   0.000000   0.000000   0.000006
    20  H    0.000257  -0.000002   0.000000   0.000000   0.000000  -0.000093
    21  H    0.000257  -0.000002   0.000000   0.000000   0.000000  -0.000093
    22  H    0.000438   0.000006   0.000000   0.000000   0.000000   0.000006
    23  H    0.000257  -0.000093   0.000000   0.000000   0.000000  -0.000002
    24  H    0.000257  -0.000093   0.000000   0.000000   0.000000  -0.000002
              13         14         15         16         17         18
     1  C   -0.237254  -0.062477  -0.062477  -0.237254  -0.062477  -0.062477
     2  C    0.036886  -0.281534  -0.281534   0.036886   0.349596   0.349596
     3  C    0.039884  -0.010808  -0.010808   0.039884   0.002525   0.002525
     4  C    0.005249   0.001636   0.001636   0.005249   0.001636   0.001636
     5  C    0.039884   0.002525   0.002525   0.039884  -0.010808  -0.010808
     6  C    0.036886   0.349596   0.349596   0.036886  -0.281534  -0.281534
     7  H    0.018525   0.000621   0.000621   0.018525   0.000621   0.000621
     8  H   -0.003224   0.001158   0.001158  -0.003224   0.002598   0.002598
     9  H    0.000064   0.000006   0.000006   0.000064   0.000054   0.000054
    10  H   -0.000029   0.000013   0.000013  -0.000029   0.000013   0.000013
    11  H    0.000064   0.000054   0.000054   0.000064   0.000006   0.000006
    12  H   -0.003224   0.002598   0.002598  -0.003224   0.001158   0.001158
    13  C    5.175702   0.369173  -0.057765   0.078132  -0.057765   0.369173
    14  C    0.369173   4.989865   0.533892  -0.057765  -0.088514   0.006629
    15  C   -0.057765   0.533892   4.989865   0.369173   0.006629  -0.088514
    16  C    0.078132  -0.057765   0.369173   5.175702   0.369173  -0.057765
    17  C   -0.057765  -0.088514   0.006629   0.369173   4.989865   0.533892
    18  C    0.369173   0.006629  -0.088514  -0.057765   0.533892   4.989865
    19  H    0.419643  -0.013637  -0.009245   0.006240  -0.009245  -0.013637
    20  H   -0.011213   0.419018  -0.013197  -0.006201   0.002324  -0.007528
    21  H   -0.006201  -0.013197   0.419018  -0.011213  -0.007528   0.002324
    22  H    0.006240  -0.009245  -0.013637   0.419643  -0.013637  -0.009245
    23  H   -0.006201   0.002324  -0.007528  -0.011213   0.419018  -0.013197
    24  H   -0.011213  -0.007528   0.002324  -0.006201  -0.013197   0.419018
              19         20         21         22         23         24
     1  C   -0.005033  -0.002042  -0.002042  -0.005033  -0.002042  -0.002042
     2  C    0.000794   0.001317   0.001317   0.000794  -0.001480  -0.001480
     3  C    0.000286  -0.000102  -0.000102   0.000286  -0.000373  -0.000373
     4  C   -0.000021   0.000062   0.000062  -0.000021   0.000062   0.000062
     5  C    0.000286  -0.000373  -0.000373   0.000286  -0.000102  -0.000102
     6  C    0.000794  -0.001480  -0.001480   0.000794   0.001317   0.001317
     7  H    0.000438   0.000257   0.000257   0.000438   0.000257   0.000257
     8  H    0.000006  -0.000002  -0.000002   0.000006  -0.000093  -0.000093
     9  H    0.000000   0.000000   0.000000   0.000000   0.000000   0.000000
    10  H    0.000000   0.000000   0.000000   0.000000   0.000000   0.000000
    11  H    0.000000   0.000000   0.000000   0.000000   0.000000   0.000000
    12  H    0.000006  -0.000093  -0.000093   0.000006  -0.000002  -0.000002
    13  C    0.419643  -0.011213  -0.006201   0.006240  -0.006201  -0.011213
    14  C   -0.013637   0.419018  -0.013197  -0.009245   0.002324  -0.007528
    15  C   -0.009245  -0.013197   0.419018  -0.013637  -0.007528   0.002324
    16  C    0.006240  -0.006201  -0.011213   0.419643  -0.011213  -0.006201
    17  C   -0.009245   0.002324  -0.007528  -0.013637   0.419018  -0.013197
    18  C   -0.013637  -0.007528   0.002324  -0.009245  -0.013197   0.419018
    19  H    0.491814  -0.005082  -0.000118   0.000013  -0.000118  -0.005082
    20  H   -0.005082   0.491234  -0.005544  -0.000118   0.000017  -0.000115
    21  H   -0.000118  -0.005544   0.491234  -0.005082  -0.000115   0.000017
    22  H    0.000013  -0.000118  -0.005082   0.491814  -0.005082  -0.000118
    23  H   -0.000118   0.000017  -0.000115  -0.005082   0.491234  -0.005544
    24  H   -0.005082  -0.000115   0.000017  -0.000118  -0.005544   0.491234
 Mulliken charges:
               1
     1  C    0.726275
     2  C   -0.330749
     3  C   -0.299530
     4  C   -0.177240
     5  C   -0.299530
     6  C   -0.330749
     7  H    0.147789
     8  H    0.132766
     9  H    0.134110
    10  H    0.133165
    11  H    0.134110
    12  H    0.132766
    13  C   -0.201415
    14  C   -0.134401
    15  C   -0.134401
    16  C   -0.201415
    17  C   -0.134401
    18  C   -0.134401
    19  H    0.140899
    20  H    0.138863
    21  H    0.138863
    22  H    0.140899
    23  H    0.138863
    24  H    0.138863
 Sum of Mulliken charges =   0.00000
 Mulliken charges with hydrogens summed into heavy atoms:
               1
     1  C    0.874064
     2  C   -0.197984
     3  C   -0.165420
     4  C   -0.044075
     5  C   -0.165420
     6  C   -0.197984
    13  C   -0.060516
    14  C    0.004462
    15  C    0.004462
    16  C   -0.060516
    17  C    0.004462
    18  C    0.004462
 Electronic spatial extent (au):  <R**2>=           2647.3950
 Charge=              0.0000 electrons
 Dipole moment (field-independent basis, Debye):
    X=              0.0000    Y=              0.0000    Z=             -0.5667  Tot=              0.5667
 Quadrupole moment (field-independent basis, Debye-Ang):
   XX=            -72.9827   YY=            -64.2259   ZZ=            -74.5073
   XY=              0.0000   XZ=              0.0000   YZ=              0.0000
 Traceless Quadrupole moment (field-independent basis, Debye-Ang):
   XX=             -2.4108   YY=              6.3461   ZZ=             -3.9353
   XY=              0.0000   XZ=              0.0000   YZ=              0.0000
 Octapole moment (field-independent basis, Debye-Ang**2):
  XXX=              0.0000  YYY=              0.0000  ZZZ=             59.4899  XYY=              0.0000
  XXY=              0.0000  XXZ=            -24.0237  XZZ=              0.0000  YZZ=              0.0000
  YYZ=             -1.6783  XYZ=              0.0000
 Hexadecapole moment (field-independent basis, Debye-Ang**3):
 XXXX=           -322.2165 YYYY=           -547.9278 ZZZZ=          -2870.9184 XXXY=              0.0000
 XXXZ=              0.0000 YYYX=              0.0000 YYYZ=              0.0000 ZZZX=              0.0000
 ZZZY=              0.0000 XXYY=           -157.2956 XXZZ=           -554.1431 YYZZ=           -526.9091
 XXYZ=              0.0000 YYXZ=              0.0000 ZZXY=              0.0000
 N-N= 5.950138735997D+02 E-N=-2.263654921854D+03  KE= 4.607724436148D+02
 Symmetry A1   KE= 2.226987882416D+02
 Symmetry A2   KE= 3.970051375312D+01
 Symmetry B1   KE= 7.787853972320D+01
 Symmetry B2   KE= 1.204946018968D+02
 Calling FoFJK, ICntrl=  10002127 FMM=F ISym2X=1 I1Cent= 0 IOpClX= 0 NMat=1 NMatS=1 NMatT=0.
 ***** Axes restored to original set *****
 -------------------------------------------------------------------
 Center     Atomic                   Forces (Hartrees/Bohr)
 Number     Number              X              Y              Z
 -------------------------------------------------------------------
      1        6           0.000000000    0.000000000    0.000000067
      2        6           0.000000000    0.000005531    0.000038588
      3        6           0.000000000    0.000004132   -0.000028118
      4        6           0.000000000    0.000000000   -0.000029112
      5        6           0.000000000   -0.000004132   -0.000028118
      6        6           0.000000000   -0.000005531    0.000038588
      7        1           0.000000000    0.000000000    0.000000193
      8        1           0.000000000   -0.000001550   -0.000004558
      9        1           0.000000000    0.000000292    0.000004521
     10        1           0.000000000    0.000000000    0.000000943
     11        1           0.000000000   -0.000000292    0.000004521
     12        1           0.000000000    0.000001550   -0.000004558
     13        6          -0.000030330    0.000000000    0.000037272
     14        6           0.000082653   -0.000006185   -0.000005785
     15        6          -0.000082653   -0.000006185   -0.000005785
     16        6           0.000030330    0.000000000    0.000037272
     17        6          -0.000082653    0.000006185   -0.000005785
     18        6           0.000082653    0.000006185   -0.000005785
     19        1           0.000003555    0.000000000   -0.000011639
     20        1          -0.000003899    0.000002770   -0.000005271
     21        1           0.000003899    0.000002770   -0.000005271
     22        1          -0.000003555    0.000000000   -0.000011639
     23        1           0.000003899   -0.000002770   -0.000005271
     24        1          -0.000003899   -0.000002770   -0.000005271
 -------------------------------------------------------------------
 Cartesian Forces:  Max     0.000082653 RMS     0.000023070

 GradGradGradGradGradGradGradGradGradGradGradGradGradGradGradGradGradGrad
 Berny optimization.
 FormGI is forming the generalized inverse of G from B-inverse, IUseBI=4.
 Internal  Forces:  Max     0.000055896 RMS     0.000008748
 Search for a local minimum.
 Step number   1 out of a maximum of  144
 All quantities printed in internal units (Hartrees-Bohrs-Radians)
 Mixed Optimization -- En-DIIS/RFO-DIIS
 Second derivative matrix not updated -- first step.
 ITU=  0
     Eigenvalues ---    0.00329   0.01168   0.01336   0.01910   0.02094
     Eigenvalues ---    0.02098   0.02098   0.02098   0.02099   0.02100
     Eigenvalues ---    0.02102   0.02103   0.02105   0.02129   0.02330
     Eigenvalues ---    0.02414   0.02771   0.02920   0.03474   0.03721
     Eigenvalues ---    0.03925   0.04252   0.04508   0.04859   0.05085
     Eigenvalues ---    0.05452   0.05739   0.06138   0.06179   0.14109
     Eigenvalues ---    0.16000   0.16000   0.16000   0.16000   0.16000
     Eigenvalues ---    0.16000   0.16000   0.16832   0.19687   0.22000
     Eigenvalues ---    0.22000   0.22000   0.32373   0.35073   0.35178
     Eigenvalues ---    0.35178   0.35211   0.35211   0.35214   0.35214
     Eigenvalues ---    0.35214   0.35214   0.35217   0.35233   0.35233
     Eigenvalues ---    0.35648   0.36605   0.38010   0.40418   0.41557
     Eigenvalues ---    0.41585   0.41646   0.45735   0.45751   0.45782
     Eigenvalues ---    0.45817
 RFO step:  Lambda=-5.67232079D-08 EMin= 3.28909039D-03
 Linear search not attempted -- first point.
 Iteration  1 RMS(Cart)=  0.00005661 RMS(Int)=  0.00000001
 Iteration  2 RMS(Cart)=  0.00000001 RMS(Int)=  0.00000001
 ClnCor:  largest displacement from symmetrization is 1.07D-04 for atom    22.
 Variable       Old X    -DE/DX   Delta X   Delta X   Delta X     New X
                                 (Linear)    (Quad)   (Total)
    R1        2.64323   0.00000   0.00000  -0.00001   0.00001   2.64324
    R2        2.64323   0.00000   0.00000  -0.00001   0.00001   2.64324
    R3        2.04636  -0.00001   0.00000  -0.00002  -0.00002   2.04634
    R4        2.64413  -0.00004   0.00000  -0.00008  -0.00008   2.64404
    R5        2.05387   0.00000   0.00000   0.00001   0.00001   2.05388
    R6        2.64436  -0.00001   0.00000  -0.00003  -0.00003   2.64433
    R7        2.05333   0.00000   0.00000   0.00001   0.00001   2.05333
    R8        2.64436  -0.00001   0.00000  -0.00003  -0.00003   2.64433
    R9        2.05324   0.00000   0.00000   0.00000   0.00000   2.05324
   R10        2.64413  -0.00004   0.00000  -0.00008  -0.00008   2.64404
   R11        2.05333   0.00000   0.00000   0.00001   0.00001   2.05333
   R12        2.05387   0.00000   0.00000   0.00001   0.00001   2.05388
   R13        5.10120  -0.00001   0.00000  -0.00016  -0.00016   5.10105
   R14        5.10173   0.00000   0.00000   0.00010   0.00009   5.10183
   R15        5.10173   0.00000   0.00000   0.00007   0.00009   5.10183
   R16        5.10120   0.00000   0.00000  -0.00023  -0.00016   5.10105
   R17        5.10173   0.00000   0.00000   0.00002   0.00009   5.10183
   R18        2.64466   0.00000   0.00000   0.00001   0.00001   2.64467
   R19        2.64466   0.00001   0.00000   0.00001   0.00001   2.64467
   R20        2.05297   0.00000   0.00000  -0.00001  -0.00001   2.05296
   R21        2.64502  -0.00006   0.00000  -0.00015  -0.00012   2.64490
   R22        2.05329   0.00000   0.00000   0.00001   0.00001   2.05331
   R23        2.64466   0.00000   0.00000   0.00001   0.00001   2.64467
   R24        2.05329   0.00000   0.00000   0.00001   0.00001   2.05331
   R25        2.64466   0.00000   0.00000   0.00001   0.00001   2.64467
   R26        2.05297   0.00000   0.00000  -0.00001  -0.00001   2.05296
   R27        2.64502  -0.00006   0.00000  -0.00015  -0.00012   2.64490
   R28        2.05329   0.00000   0.00000   0.00001   0.00001   2.05331
   R29        2.05329   0.00000   0.00000   0.00001   0.00001   2.05331
    A1        2.09139   0.00000   0.00000   0.00002   0.00002   2.09141
    A2        2.09590   0.00000   0.00000  -0.00001  -0.00001   2.09589
    A3        2.09590   0.00000   0.00000  -0.00001  -0.00001   2.09589
    A4        2.09704   0.00000   0.00000  -0.00001  -0.00001   2.09703
    A5        2.08971   0.00000   0.00000  -0.00002  -0.00001   2.08970
    A6        2.09644   0.00000   0.00000   0.00002   0.00002   2.09646
    A7        2.09322  -0.00001   0.00000  -0.00003  -0.00003   2.09319
    A8        2.09605   0.00001   0.00000   0.00004   0.00004   2.09609
    A9        2.09391   0.00000   0.00000  -0.00001  -0.00001   2.09390
   A10        2.09446   0.00001   0.00000   0.00005   0.00006   2.09452
   A11        2.09436  -0.00001   0.00000  -0.00003  -0.00003   2.09433
   A12        2.09436  -0.00001   0.00000  -0.00003  -0.00003   2.09433
   A13        2.09322  -0.00001   0.00000  -0.00003  -0.00003   2.09319
   A14        2.09391   0.00000   0.00000  -0.00001  -0.00001   2.09390
   A15        2.09605   0.00001   0.00000   0.00004   0.00004   2.09609
   A16        2.09704   0.00000   0.00000  -0.00001  -0.00001   2.09703
   A17        2.08971   0.00000   0.00000  -0.00002  -0.00001   2.08970
   A18        2.09644   0.00000   0.00000   0.00002   0.00002   2.09646
   A19        2.59644   0.00000   0.00000  -0.00002  -0.00002   2.59642
   A20        2.59665   0.00001   0.00000   0.00002   0.00002   2.59668
   A21        2.59665   0.00000   0.00000   0.00001   0.00002   2.59668
   A22        2.59644   0.00000   0.00000  -0.00003  -0.00002   2.59642
   A23        2.59665   0.00000   0.00000   0.00003   0.00002   2.59668
   A24        0.93131  -0.00001   0.00000  -0.00001  -0.00001   0.93131
   A25        1.09030   0.00000   0.00000   0.00005   0.00004   1.09034
   A26        0.93131  -0.00001   0.00000   0.00000  -0.00001   0.93131
   A27        0.93131  -0.00001   0.00000   0.00000  -0.00001   0.93131
   A28        1.08988  -0.00001   0.00000  -0.00004  -0.00005   1.08983
   A29        0.93105   0.00000   0.00000  -0.00002  -0.00003   0.93102
   A30        1.30879   0.00000   0.00000   0.00006   0.00009   1.30888
   A31        2.11054   0.00000   0.00000   0.00010   0.00010   2.11064
   A32        2.09407  -0.00001   0.00000  -0.00006  -0.00006   2.09402
   A33        2.09455   0.00001   0.00000   0.00003   0.00003   2.09458
   A34        2.09455   0.00001   0.00000   0.00003   0.00003   2.09458
   A35        2.11548   0.00000   0.00000   0.00007   0.00006   2.11554
   A36        2.09456   0.00001   0.00000   0.00003   0.00003   2.09458
   A37        2.09426   0.00000   0.00000  -0.00003  -0.00002   2.09424
   A38        2.09437  -0.00001   0.00000   0.00000   0.00000   2.09437
   A39        2.11548   0.00000   0.00000   0.00006   0.00006   2.11554
   A40        2.09456   0.00001   0.00000   0.00003   0.00003   2.09458
   A41        2.09437   0.00000   0.00000   0.00000   0.00000   2.09437
   A42        2.09426  -0.00001   0.00000  -0.00003  -0.00002   2.09424
   A43        2.11054   0.00000   0.00000   0.00009   0.00010   2.11064
   A44        2.09407  -0.00002   0.00000  -0.00006  -0.00006   2.09402
   A45        2.09455   0.00001   0.00000   0.00003   0.00003   2.09458
   A46        2.09455   0.00001   0.00000   0.00003   0.00003   2.09458
   A47        1.30857   0.00000   0.00000   0.00001   0.00002   1.30859
   A48        2.11548   0.00000   0.00000   0.00006   0.00006   2.11554
   A49        2.09456   0.00001   0.00000   0.00002   0.00003   2.09458
   A50        2.09426   0.00000   0.00000  -0.00002  -0.00002   2.09424
   A51        2.09437   0.00000   0.00000   0.00000   0.00000   2.09437
   A52        2.09456   0.00001   0.00000   0.00004   0.00003   2.09458
   A53        2.09426  -0.00001   0.00000  -0.00003  -0.00002   2.09424
   A54        2.09437   0.00000   0.00000  -0.00001   0.00000   2.09437
    D1        0.00000   0.00000   0.00000   0.00000   0.00000   0.00000
    D2        3.14159   0.00000   0.00000   0.00000   0.00000   3.14159
    D3        3.14159   0.00000   0.00000   0.00000   0.00000   3.14159
    D4        0.00000   0.00000   0.00000   0.00000   0.00000   0.00000
    D5        0.00000   0.00000   0.00000   0.00000   0.00000   0.00000
    D6        3.14159   0.00000   0.00000   0.00000   0.00000   3.14159
    D7        3.14159   0.00000   0.00000   0.00000   0.00000   3.14159
    D8        0.00000   0.00000   0.00000   0.00000   0.00000   0.00000
    D9        1.57080   0.00000   0.00000   0.00002   0.00000   1.57080
   D10        2.61789   0.00001   0.00000   0.00003   0.00002   2.61791
   D11       -2.61789  -0.00001   0.00000  -0.00003  -0.00002  -2.61791
   D12       -1.57080   0.00000   0.00000  -0.00002   0.00000  -1.57080
   D13       -0.52370   0.00000   0.00000   0.00000   0.00002  -0.52368
   D14       -1.57080   0.00000   0.00000   0.00002   0.00000  -1.57080
   D15       -0.52370   0.00001   0.00000   0.00003   0.00002  -0.52368
   D16        0.52370  -0.00001   0.00000  -0.00003  -0.00002   0.52368
   D17        1.57080   0.00000   0.00000  -0.00002   0.00000   1.57080
   D18        2.61789   0.00000   0.00000   0.00000   0.00002   2.61791
   D19        0.00000   0.00000   0.00000   0.00000   0.00000   0.00000
   D20        3.14159   0.00000   0.00000   0.00000   0.00000   3.14159
   D21        3.14159   0.00000   0.00000   0.00000   0.00000   3.14159
   D22        0.00000   0.00000   0.00000   0.00000   0.00000   0.00000
   D23        0.00000   0.00000   0.00000   0.00000   0.00000   0.00000
   D24        3.14159   0.00000   0.00000   0.00000   0.00000   3.14159
   D25        3.14159   0.00000   0.00000   0.00000   0.00000   3.14159
   D26        0.00000   0.00000   0.00000   0.00000   0.00000   0.00000
   D27        0.00000   0.00000   0.00000   0.00000   0.00000   0.00000
   D28        3.14159   0.00000   0.00000   0.00000   0.00000   3.14159
   D29        3.14159   0.00000   0.00000   0.00000   0.00000   3.14159
   D30        0.00000   0.00000   0.00000   0.00000   0.00000   0.00000
   D31        0.00000   0.00000   0.00000   0.00000   0.00000   0.00000
   D32        3.14159   0.00000   0.00000   0.00000   0.00000   3.14159
   D33        3.14159   0.00000   0.00000   0.00000   0.00000   3.14159
   D34        0.00000   0.00000   0.00000   0.00000   0.00000   0.00000
   D35       -2.02969  -0.00001   0.00000  -0.00009  -0.00008  -2.02977
   D36        0.00000   0.00000   0.00000  -0.00002   0.00000   0.00000
   D37        1.70560  -0.00001   0.00000  -0.00009  -0.00010   1.70551
   D38       -2.54789   0.00000   0.00000  -0.00002  -0.00002  -2.54791
   D39        1.11190  -0.00001   0.00000  -0.00007  -0.00008   1.11182
   D40        3.14159   0.00000   0.00000   0.00000   0.00000   3.14159
   D41        0.51820  -0.00001   0.00000  -0.00006  -0.00006   0.51813
   D42        2.54789   0.00000   0.00000   0.00001   0.00002   2.54791
   D43        0.00015  -0.00001   0.00000  -0.00003  -0.00001   0.00013
   D44       -2.54751   0.00000   0.00000   0.00002   0.00002  -2.54749
   D45       -3.14144   0.00000   0.00000  -0.00002  -0.00001  -3.14146
   D46       -0.00015   0.00000   0.00000   0.00003   0.00001  -0.00013
   D47        2.54751   0.00000   0.00000  -0.00002  -0.00002   2.54749
   D48       -2.54779   0.00000   0.00000   0.00000  -0.00001  -2.54780
   D49        0.00000   0.00000   0.00000   0.00002   0.00000   0.00000
   D50        3.14159   0.00000   0.00000   0.00000   0.00000   3.14159
   D51        2.54789   0.00000   0.00000   0.00002   0.00002   2.54791
   D52        2.02950   0.00000   0.00000   0.00001  -0.00001   2.02950
   D53        0.00015   0.00000   0.00000   0.00000  -0.00001   0.00013
   D54       -0.51815   0.00000   0.00000   0.00002   0.00002  -0.51813
   D55       -2.54751   0.00000   0.00000   0.00001   0.00002  -2.54749
   D56       -1.11209  -0.00001   0.00000  -0.00001  -0.00001  -1.11210
   D57       -3.14144   0.00000   0.00000  -0.00002  -0.00001  -3.14146
   D58       -1.70604   0.00000   0.00000   0.00002   0.00001  -1.70603
   D59        2.54779   0.00001   0.00000   0.00001   0.00001   2.54780
   D60       -0.00088  -0.00001   0.00000  -0.00028  -0.00029  -0.00117
   D61        3.14145  -0.00001   0.00000  -0.00022  -0.00024   3.14121
   D62        3.13535   0.00001   0.00000   0.00007   0.00009   3.13544
   D63       -0.00550   0.00000   0.00000   0.00013   0.00013  -0.00537
   D64       -1.08706   0.00000   0.00000   0.00005   0.00007  -1.08699
   D65        2.05380   0.00000   0.00000   0.00008   0.00002   2.05382
   D66        0.00088   0.00001   0.00000   0.00026   0.00029   0.00117
   D67       -3.14145   0.00001   0.00000   0.00028   0.00024  -3.14121
   D68       -3.13535  -0.00001   0.00000  -0.00009  -0.00009  -3.13544
   D69        0.00550   0.00000   0.00000  -0.00007  -0.00013   0.00537
   D70        0.00000   0.00000   0.00000   0.00000   0.00000   0.00000
   D71       -3.14085   0.00000   0.00000   0.00005   0.00005  -3.14081
   D72        3.14085   0.00000   0.00000  -0.00006  -0.00005   3.14081
   D73        0.00000   0.00000   0.00000  -0.00001   0.00000   0.00000
   D74        0.00088   0.00001   0.00000   0.00030   0.00029   0.00117
   D75       -3.13535  -0.00001   0.00000  -0.00008  -0.00009  -3.13544
   D76       -3.14145   0.00001   0.00000   0.00024   0.00024  -3.14121
   D77        0.00550   0.00000   0.00000  -0.00014  -0.00013   0.00537
   D78       -0.00088  -0.00001   0.00000  -0.00031  -0.00029  -0.00117
   D79        3.14145  -0.00001   0.00000  -0.00026  -0.00024   3.14121
   D80        3.13535   0.00001   0.00000   0.00007   0.00009   3.13544
   D81       -0.00550   0.00000   0.00000   0.00013   0.00013  -0.00537
   D82        1.08697   0.00000   0.00000  -0.00010  -0.00013   1.08684
   D83       -2.05388   0.00000   0.00000  -0.00012  -0.00008  -2.05396
   D84        0.00000   0.00000   0.00000   0.00003   0.00000   0.00000
   D85       -3.14085   0.00000   0.00000   0.00001   0.00005  -3.14081
   D86        3.14085   0.00000   0.00000  -0.00002  -0.00005   3.14081
   D87        0.00000   0.00000   0.00000  -0.00005   0.00000   0.00000
         Item               Value     Threshold  Converged?
 Maximum Force            0.000056     0.000450     YES
 RMS     Force            0.000009     0.000300     YES
 Maximum Displacement     0.000275     0.001800     YES
 RMS     Displacement     0.000054     0.001200     YES
 Predicted change in Energy=-2.748217D-08
 Optimization completed.
    -- Stationary point found.
                           ----------------------------
                           !   Optimized Parameters   !
                           ! (Angstroms and Degrees)  !
 --------------------------                            --------------------------
 ! Name  Definition              Value          Derivative Info.                !
 --------------------------------------------------------------------------------
 ! R1    R(1,2)                  1.3987         -DE/DX =    0.0                 !
 ! R2    R(1,6)                  1.3987         -DE/DX =    0.0                 !
 ! R3    R(1,7)                  1.0829         -DE/DX =    0.0                 !
 ! R4    R(2,3)                  1.3992         -DE/DX =    0.0                 !
 ! R5    R(2,8)                  1.0869         -DE/DX =    0.0                 !
 ! R6    R(3,4)                  1.3993         -DE/DX =    0.0                 !
 ! R7    R(3,9)                  1.0866         -DE/DX =    0.0                 !
 ! R8    R(4,5)                  1.3993         -DE/DX =    0.0                 !
 ! R9    R(4,10)                 1.0865         -DE/DX =    0.0                 !
 ! R10   R(5,6)                  1.3992         -DE/DX =    0.0                 !
 ! R11   R(5,11)                 1.0866         -DE/DX =    0.0                 !
 ! R12   R(6,12)                 1.0869         -DE/DX =    0.0                 !
 ! R13   R(7,13)                 2.6994         -DE/DX =    0.0                 !
 ! R14   R(7,14)                 2.6997         -DE/DX =    0.0                 !
 ! R15   R(7,15)                 2.6997         -DE/DX =    0.0                 !
 ! R16   R(7,16)                 2.6994         -DE/DX =    0.0                 !
 ! R17   R(7,17)                 2.6997         -DE/DX =    0.0                 !
 ! R18   R(13,14)                1.3995         -DE/DX =    0.0                 !
 ! R19   R(13,18)                1.3995         -DE/DX =    0.0                 !
 ! R20   R(13,19)                1.0864         -DE/DX =    0.0                 !
 ! R21   R(14,15)                1.3997         -DE/DX =   -0.0001              !
 ! R22   R(14,20)                1.0866         -DE/DX =    0.0                 !
 ! R23   R(15,16)                1.3995         -DE/DX =    0.0                 !
 ! R24   R(15,21)                1.0866         -DE/DX =    0.0                 !
 ! R25   R(16,17)                1.3995         -DE/DX =    0.0                 !
 ! R26   R(16,22)                1.0864         -DE/DX =    0.0                 !
 ! R27   R(17,18)                1.3997         -DE/DX =   -0.0001              !
 ! R28   R(17,23)                1.0866         -DE/DX =    0.0                 !
 ! R29   R(18,24)                1.0866         -DE/DX =    0.0                 !
 ! A1    A(2,1,6)              119.8276         -DE/DX =    0.0                 !
 ! A2    A(2,1,7)              120.0862         -DE/DX =    0.0                 !
 ! A3    A(6,1,7)              120.0862         -DE/DX =    0.0                 !
 ! A4    A(1,2,3)              120.1515         -DE/DX =    0.0                 !
 ! A5    A(1,2,8)              119.7315         -DE/DX =    0.0                 !
 ! A6    A(3,2,8)              120.117          -DE/DX =    0.0                 !
 ! A7    A(2,3,4)              119.9328         -DE/DX =    0.0                 !
 ! A8    A(2,3,9)              120.0949         -DE/DX =    0.0                 !
 ! A9    A(4,3,9)              119.9723         -DE/DX =    0.0                 !
 ! A10   A(3,4,5)              120.0039         -DE/DX =    0.0                 !
 ! A11   A(3,4,10)             119.9981         -DE/DX =    0.0                 !
 ! A12   A(5,4,10)             119.9981         -DE/DX =    0.0                 !
 ! A13   A(4,5,6)              119.9328         -DE/DX =    0.0                 !
 ! A14   A(4,5,11)             119.9723         -DE/DX =    0.0                 !
 ! A15   A(6,5,11)             120.0949         -DE/DX =    0.0                 !
 ! A16   A(1,6,5)              120.1515         -DE/DX =    0.0                 !
 ! A17   A(1,6,12)             119.7315         -DE/DX =    0.0                 !
 ! A18   A(5,6,12)             120.117          -DE/DX =    0.0                 !
 ! A19   A(1,7,13)             148.7652         -DE/DX =    0.0                 !
 ! A20   A(1,7,14)             148.7773         -DE/DX =    0.0                 !
 ! A21   A(1,7,15)             148.7773         -DE/DX =    0.0                 !
 ! A22   A(1,7,16)             148.7652         -DE/DX =    0.0                 !
 ! A23   A(1,7,17)             148.7773         -DE/DX =    0.0                 !
 ! A24   A(13,7,15)             53.3603         -DE/DX =    0.0                 !
 ! A25   A(13,7,16)             62.4696         -DE/DX =    0.0                 !
 ! A26   A(13,7,17)             53.3603         -DE/DX =    0.0                 !
 ! A27   A(14,7,16)             53.3603         -DE/DX =    0.0                 !
 ! A28   A(14,7,17)             62.4454         -DE/DX =    0.0                 !
 ! A29   A(15,7,17)             53.3453         -DE/DX =    0.0                 !
 ! A30   A(7,13,18)             74.9882         -DE/DX =    0.0                 !
 ! A31   A(7,13,19)            120.925          -DE/DX =    0.0                 !
 ! A32   A(14,13,18)           119.9815         -DE/DX =    0.0                 !
 ! A33   A(14,13,19)           120.0089         -DE/DX =    0.0                 !
 ! A34   A(18,13,19)           120.0089         -DE/DX =    0.0                 !
 ! A35   A(7,14,20)            121.2078         -DE/DX =    0.0                 !
 ! A36   A(13,14,15)           120.0092         -DE/DX =    0.0                 !
 ! A37   A(13,14,20)           119.9923         -DE/DX =    0.0                 !
 ! A38   A(15,14,20)           119.9984         -DE/DX =    0.0                 !
 ! A39   A(7,15,21)            121.2078         -DE/DX =    0.0                 !
 ! A40   A(14,15,16)           120.0092         -DE/DX =    0.0                 !
 ! A41   A(14,15,21)           119.9984         -DE/DX =    0.0                 !
 ! A42   A(16,15,21)           119.9923         -DE/DX =    0.0                 !
 ! A43   A(7,16,22)            120.925          -DE/DX =    0.0                 !
 ! A44   A(15,16,17)           119.9815         -DE/DX =    0.0                 !
 ! A45   A(15,16,22)           120.0089         -DE/DX =    0.0                 !
 ! A46   A(17,16,22)           120.0089         -DE/DX =    0.0                 !
 ! A47   A(7,17,18)             74.9758         -DE/DX =    0.0                 !
 ! A48   A(7,17,23)            121.2078         -DE/DX =    0.0                 !
 ! A49   A(16,17,18)           120.0092         -DE/DX =    0.0                 !
 ! A50   A(16,17,23)           119.9923         -DE/DX =    0.0                 !
 ! A51   A(18,17,23)           119.9984         -DE/DX =    0.0                 !
 ! A52   A(13,18,17)           120.0092         -DE/DX =    0.0                 !
 ! A53   A(13,18,24)           119.9923         -DE/DX =    0.0                 !
 ! A54   A(17,18,24)           119.9984         -DE/DX =    0.0                 !
 ! D1    D(6,1,2,3)              0.0            -DE/DX =    0.0                 !
 ! D2    D(6,1,2,8)            180.0            -DE/DX =    0.0                 !
 ! D3    D(7,1,2,3)            180.0            -DE/DX =    0.0                 !
 ! D4    D(7,1,2,8)              0.0            -DE/DX =    0.0                 !
 ! D5    D(2,1,6,5)              0.0            -DE/DX =    0.0                 !
 ! D6    D(2,1,6,12)           180.0            -DE/DX =    0.0                 !
 ! D7    D(7,1,6,5)            180.0            -DE/DX =    0.0                 !
 ! D8    D(7,1,6,12)             0.0            -DE/DX =    0.0                 !
 ! D9    D(2,1,7,13)            90.0            -DE/DX =    0.0                 !
 ! D10   D(2,1,7,14)           149.9943         -DE/DX =    0.0                 !
 ! D11   D(2,1,7,15)          -149.9943         -DE/DX =    0.0                 !
 ! D12   D(2,1,7,16)           -90.0            -DE/DX =    0.0                 !
 ! D13   D(2,1,7,17)           -30.0057         -DE/DX =    0.0                 !
 ! D14   D(6,1,7,13)           -90.0            -DE/DX =    0.0                 !
 ! D15   D(6,1,7,14)           -30.0057         -DE/DX =    0.0                 !
 ! D16   D(6,1,7,15)            30.0057         -DE/DX =    0.0                 !
 ! D17   D(6,1,7,16)            90.0            -DE/DX =    0.0                 !
 ! D18   D(6,1,7,17)           149.9943         -DE/DX =    0.0                 !
 ! D19   D(1,2,3,4)              0.0            -DE/DX =    0.0                 !
 ! D20   D(1,2,3,9)            180.0            -DE/DX =    0.0                 !
 ! D21   D(8,2,3,4)            180.0            -DE/DX =    0.0                 !
 ! D22   D(8,2,3,9)              0.0            -DE/DX =    0.0                 !
 ! D23   D(2,3,4,5)              0.0            -DE/DX =    0.0                 !
 ! D24   D(2,3,4,10)           180.0            -DE/DX =    0.0                 !
 ! D25   D(9,3,4,5)            180.0            -DE/DX =    0.0                 !
 ! D26   D(9,3,4,10)             0.0            -DE/DX =    0.0                 !
 ! D27   D(3,4,5,6)              0.0            -DE/DX =    0.0                 !
 ! D28   D(3,4,5,11)           180.0            -DE/DX =    0.0                 !
 ! D29   D(10,4,5,6)           180.0            -DE/DX =    0.0                 !
 ! D30   D(10,4,5,11)            0.0            -DE/DX =    0.0                 !
 ! D31   D(4,5,6,1)              0.0            -DE/DX =    0.0                 !
 ! D32   D(4,5,6,12)           180.0            -DE/DX =    0.0                 !
 ! D33   D(11,5,6,1)           180.0            -DE/DX =    0.0                 !
 ! D34   D(11,5,6,12)            0.0            -DE/DX =    0.0                 !
 ! D35   D(1,7,13,18)         -116.2929         -DE/DX =    0.0                 !
 ! D36   D(1,7,13,19)            0.0            -DE/DX =    0.0                 !
 ! D37   D(15,7,13,18)          97.7238         -DE/DX =    0.0                 !
 ! D38   D(15,7,13,19)        -145.9833         -DE/DX =    0.0                 !
 ! D39   D(16,7,13,18)          63.7071         -DE/DX =    0.0                 !
 ! D40   D(16,7,13,19)         180.0            -DE/DX =    0.0                 !
 ! D41   D(17,7,13,18)          29.6904         -DE/DX =    0.0                 !
 ! D42   D(17,7,13,19)         145.9833         -DE/DX =    0.0                 !
 ! D43   D(1,7,14,20)            0.0085         -DE/DX =    0.0                 !
 ! D44   D(16,7,14,20)        -145.9614         -DE/DX =    0.0                 !
 ! D45   D(17,7,14,20)        -179.9915         -DE/DX =    0.0                 !
 ! D46   D(1,7,15,21)           -0.0085         -DE/DX =    0.0                 !
 ! D47   D(13,7,15,21)         145.9614         -DE/DX =    0.0                 !
 ! D48   D(17,7,15,21)        -145.9776         -DE/DX =    0.0                 !
 ! D49   D(1,7,16,22)            0.0            -DE/DX =    0.0                 !
 ! D50   D(13,7,16,22)         180.0            -DE/DX =    0.0                 !
 ! D51   D(14,7,16,22)         145.9833         -DE/DX =    0.0                 !
 ! D52   D(1,7,17,18)          116.282          -DE/DX =    0.0                 !
 ! D53   D(1,7,17,23)            0.0085         -DE/DX =    0.0                 !
 ! D54   D(13,7,17,18)         -29.6879         -DE/DX =    0.0                 !
 ! D55   D(13,7,17,23)        -145.9614         -DE/DX =    0.0                 !
 ! D56   D(14,7,17,18)         -63.718          -DE/DX =    0.0                 !
 ! D57   D(14,7,17,23)        -179.9915         -DE/DX =    0.0                 !
 ! D58   D(15,7,17,18)         -97.7489         -DE/DX =    0.0                 !
 ! D59   D(15,7,17,23)         145.9776         -DE/DX =    0.0                 !
 ! D60   D(18,13,14,15)         -0.0506         -DE/DX =    0.0                 !
 ! D61   D(18,13,14,20)        179.9919         -DE/DX =    0.0                 !
 ! D62   D(19,13,14,15)        179.6423         -DE/DX =    0.0                 !
 ! D63   D(19,13,14,20)         -0.3152         -DE/DX =    0.0                 !
 ! D64   D(7,13,18,17)         -62.2837         -DE/DX =    0.0                 !
 ! D65   D(7,13,18,24)         117.6738         -DE/DX =    0.0                 !
 ! D66   D(14,13,18,17)          0.0506         -DE/DX =    0.0                 !
 ! D67   D(14,13,18,24)       -179.9919         -DE/DX =    0.0                 !
 ! D68   D(19,13,18,17)       -179.6423         -DE/DX =    0.0                 !
 ! D69   D(19,13,18,24)          0.3152         -DE/DX =    0.0                 !
 ! D70   D(13,14,15,16)          0.0            -DE/DX =    0.0                 !
 ! D71   D(13,14,15,21)       -179.9575         -DE/DX =    0.0                 !
 ! D72   D(20,14,15,16)        179.9575         -DE/DX =    0.0                 !
 ! D73   D(20,14,15,21)          0.0            -DE/DX =    0.0                 !
 ! D74   D(14,15,16,17)          0.0506         -DE/DX =    0.0                 !
 ! D75   D(14,15,16,22)       -179.6423         -DE/DX =    0.0                 !
 ! D76   D(21,15,16,17)       -179.9919         -DE/DX =    0.0                 !
 ! D77   D(21,15,16,22)          0.3152         -DE/DX =    0.0                 !
 ! D78   D(15,16,17,18)         -0.0506         -DE/DX =    0.0                 !
 ! D79   D(15,16,17,23)        179.9919         -DE/DX =    0.0                 !
 ! D80   D(22,16,17,18)        179.6423         -DE/DX =    0.0                 !
 ! D81   D(22,16,17,23)         -0.3152         -DE/DX =    0.0                 !
 ! D82   D(7,17,18,13)          62.2787         -DE/DX =    0.0                 !
 ! D83   D(7,17,18,24)        -117.6788         -DE/DX =    0.0                 !
 ! D84   D(16,17,18,13)          0.0            -DE/DX =    0.0                 !
 ! D85   D(16,17,18,24)       -179.9575         -DE/DX =    0.0                 !
 ! D86   D(23,17,18,13)        179.9575         -DE/DX =    0.0                 !
 ! D87   D(23,17,18,24)          0.0            -DE/DX =    0.0                 !
 --------------------------------------------------------------------------------
 GradGradGradGradGradGradGradGradGradGradGradGradGradGradGradGradGradGrad

                          Input orientation:                          
 ---------------------------------------------------------------------
 Center     Atomic      Atomic             Coordinates (Angstroms)
 Number     Number       Type             X           Y           Z
 ---------------------------------------------------------------------
      1          6           0        0.000000    0.000000    0.995136
      2          6           0        0.000000   -1.210287    1.696325
      3          6           0        0.000000   -1.211881    3.095536
      4          6           0        0.000000    0.000000    3.795161
      5          6           0        0.000000    1.211881    3.095536
      6          6           0        0.000000    1.210287    1.696325
      7          1           0        0.000000    0.000000   -0.087752
      8          1           0        0.000000   -2.149803    1.149902
      9          1           0        0.000000   -2.152602    3.639309
     10          1           0        0.000000    0.000000    4.881688
     11          1           0        0.000000    2.152602    3.639309
     12          1           0        0.000000    2.149803    1.149902
     13          6           0       -1.399785    0.000000   -2.395908
     14          6           0       -0.699843    1.211885   -2.396443
     15          6           0        0.699843    1.211885   -2.396443
     16          6           0        1.399785    0.000000   -2.395908
     17          6           0        0.699843   -1.211885   -2.396443
     18          6           0       -0.699843   -1.211885   -2.396443
     19          1           0       -2.486157    0.000000   -2.390035
     20          1           0       -1.243095    2.152884   -2.396160
     21          1           0        1.243095    2.152884   -2.396160
     22          1           0        2.486157    0.000000   -2.390035
     23          1           0        1.243095   -2.152884   -2.396160
     24          1           0       -1.243095   -2.152884   -2.396160
 ---------------------------------------------------------------------
                    Distance matrix (angstroms):
                    1          2          3          4          5
     1  C    0.000000
     2  C    1.398736   0.000000
     3  C    2.424940   1.399211   0.000000
     4  C    2.800025   2.422790   1.399333   0.000000
     5  C    2.424940   2.797265   2.423763   1.399333   0.000000
     6  C    1.398736   2.420575   2.797265   2.422790   1.399211
     7  H    1.082888   2.155859   3.406167   3.882913   3.406167
     8  H    2.155367   1.086862   2.159905   3.408673   3.884124
     9  H    3.409596   2.159432   1.086575   2.158237   3.408143
    10  H    3.886552   3.407541   2.158471   1.086527   2.158471
    11  H    3.409596   3.883840   3.408143   2.158237   1.086575
    12  H    2.155367   3.404231   3.884124   3.408673   2.159905
    13  C    3.668593   4.491165   5.795171   6.347341   5.795171
    14  C    3.668958   4.807021   6.043695   6.347788   5.536389
    15  C    3.668958   4.807021   6.043695   6.347788   5.536389
    16  C    3.668593   4.491165   5.795171   6.347341   5.795171
    17  C    3.668958   4.152172   5.536389   6.347788   6.043695
    18  C    3.668958   4.152172   5.536389   6.347788   6.043695
    19  H    4.200042   4.933975   6.143380   6.666155   6.143380
    20  H    4.204889   5.441015   6.559395   6.671781   5.708721
    21  H    4.204889   5.441015   6.559395   6.671781   5.708721
    22  H    4.200042   4.933975   6.143380   6.666155   6.143380
    23  H    4.204889   4.379750   5.708721   6.671781   6.559395
    24  H    4.204889   4.379750   5.708721   6.671781   6.559395
                    6          7          8          9         10
     6  C    0.000000
     7  H    2.155859   0.000000
     8  H    3.404231   2.480613   0.000000
     9  H    3.883840   4.304031   2.489409   0.000000
    10  H    3.407541   4.969440   4.306725   2.485398   0.000000
    11  H    2.159432   4.304031   4.970698   4.305204   2.485398
    12  H    1.086862   2.480613   4.299607   4.970698   4.306725
    13  C    4.491165   2.699441   4.376508   6.558730   7.410992
    14  C    4.152172   2.699722   4.936323   6.945492   7.411453
    15  C    4.152172   2.699722   4.936323   6.945492   7.411453
    16  C    4.491165   2.699441   4.376508   6.558730   7.410992
    17  C    4.807021   2.699722   3.734439   6.148580   7.411453
    18  C    4.807021   2.699722   3.734439   6.148580   7.411453
    19  H    4.933975   3.388433   4.830505   6.867871   7.684981
    20  H    4.379750   3.392484   5.712527   7.517273   7.690727
    21  H    4.379750   3.392484   5.712527   7.517273   7.690727
    22  H    4.933975   3.388433   4.830505   6.867871   7.684981
    23  H    5.441015   3.392484   3.757639   6.162157   7.690727
    24  H    5.441015   3.392484   3.757639   6.162157   7.690727
                   11         12         13         14         15
    11  H    0.000000
    12  H    2.489409   0.000000
    13  C    6.558730   4.376508   0.000000
    14  C    6.148580   3.734439   1.399494   0.000000
    15  C    6.148580   3.734439   2.424274   1.399686   0.000000
    16  C    6.558730   4.376508   2.799570   2.424274   1.399494
    17  C    6.945492   4.936323   2.424274   2.798889   2.423770
    18  C    6.945492   4.936323   1.399494   2.423770   2.798889
    19  H    6.867871   4.830505   1.086387   2.158616   3.408709
    20  H    6.162157   3.757639   2.158579   1.086556   2.158816
    21  H    6.162157   3.757639   3.408772   2.158816   1.086556
    22  H    6.867871   4.830505   3.885946   3.408709   2.158616
    23  H    7.517273   5.712527   3.408772   3.885444   3.408342
    24  H    7.517273   5.712527   2.158579   3.408342   3.885444
                   16         17         18         19         20
    16  C    0.000000
    17  C    1.399494   0.000000
    18  C    2.424274   1.399686   0.000000
    19  H    3.885946   3.408709   2.158616   0.000000
    20  H    3.408772   3.885444   3.408342   2.485991   0.000000
    21  H    2.158579   3.408342   3.885444   4.306073   2.486190
    22  H    1.086387   2.158616   3.408709   4.972313   4.306073
    23  H    2.158579   1.086556   2.158816   4.306073   4.972000
    24  H    3.408772   2.158816   1.086556   2.485991   4.305769
                   21         22         23         24
    21  H    0.000000
    22  H    2.485991   0.000000
    23  H    4.305769   2.485991   0.000000
    24  H    4.972000   4.306073   2.486190   0.000000
 Stoichiometry    C12H12
 Framework group  C2V[C2(HCCH),SGV(C4H4),SGV'(C2H2),X(C4H4)]
 Deg. of freedom    21
 Full point group                 C2V     NOp   4
 Largest Abelian subgroup         C2V     NOp   4
 Largest concise Abelian subgroup C2V     NOp   4
                         Standard orientation:                         
 ---------------------------------------------------------------------
 Center     Atomic      Atomic             Coordinates (Angstroms)
 Number     Number       Type             X           Y           Z
 ---------------------------------------------------------------------
      1          6           0        0.000000    0.000000    0.995300
      2          6           0        0.000000    1.210287    1.696489
      3          6           0        0.000000    1.211881    3.095699
      4          6           0        0.000000    0.000000    3.795325
      5          6           0        0.000000   -1.211881    3.095699
      6          6           0        0.000000   -1.210287    1.696489
      7          1           0        0.000000    0.000000   -0.087588
      8          1           0        0.000000    2.149803    1.150066
      9          1           0        0.000000    2.152602    3.639473
     10          1           0        0.000000    0.000000    4.881852
     11          1           0        0.000000   -2.152602    3.639473
     12          1           0        0.000000   -2.149803    1.150066
     13          6           0        1.399785    0.000000   -2.395744
     14          6           0        0.699843   -1.211885   -2.396279
     15          6           0       -0.699843   -1.211885   -2.396279
     16          6           0       -1.399785    0.000000   -2.395744
     17          6           0       -0.699843    1.211885   -2.396279
     18          6           0        0.699843    1.211885   -2.396279
     19          1           0        2.486157    0.000000   -2.389871
     20          1           0        1.243095   -2.152884   -2.395997
     21          1           0       -1.243095   -2.152884   -2.395997
     22          1           0       -2.486157    0.000000   -2.389871
     23          1           0       -1.243095    2.152884   -2.395997
     24          1           0        1.243095    2.152884   -2.395997
 ---------------------------------------------------------------------
 Rotational constants (GHZ):      1.8895342      0.4703567      0.4343703
 1\1\GINC-TC-NODE159\FOpt\RMP2-Full\6-311+G(d,p)\C12H12\EPKTB\10-Oct-20
 16\0\\#opt mp2(full)/6-311+g** geom=check\\title\\0,1\C,0.,0.,0.995136
 0108\C,0.,-1.2102873011,1.6963250779\C,0.,-1.2118813485,3.0955356687\C
 ,0.,0.,3.795161362\C,0.,1.2118813485,3.0955356687\C,0.,1.2102873011,1.
 6963250779\H,0.,0.,-0.0877519247\H,0.,-2.1498034216,1.1499018498\H,0.,
 -2.1526021058,3.6393092145\H,0.,0.,4.8816880204\H,0.,2.1526021058,3.63
 93092145\H,0.,2.1498034216,1.1499018498\C,-1.3997852372,0.,-2.39590769
 35\C,-0.6998428178,1.2118847565,-2.3964428073\C,0.6998428178,1.2118847
 565,-2.3964428073\C,1.3997852372,0.,-2.3959076935\C,0.6998428178,-1.21
 18847565,-2.3964428073\C,-0.6998428178,-1.2118847565,-2.3964428073\H,-
 2.4861566898,0.,-2.3900346444\H,-1.2430951605,2.152884311,-2.396160417
 \H,1.2430951605,2.152884311,-2.396160417\H,2.4861566898,0.,-2.39003464
 44\H,1.2430951605,-2.152884311,-2.396160417\H,-1.2430951605,-2.1528843
 11,-2.396160417\\Version=ES64L-G09RevD.01\State=1-A1\HF=-461.5071644\M
 P2=-463.4035338\RMSD=8.543e-09\RMSF=2.307e-05\Dipole=0.,0.,-0.1974059\
 PG=C02V [C2(H1C1C1H1),SGV(C4H4),SGV'(C2H2),X(C4H4)]\\@


 COMMON SENSE IS NOT SO COMMON.   -- VOLTAIRE
 Job cpu time:       0 days  0 hours 20 minutes 17.9 seconds.
 File lengths (MBytes):  RWF=     65 Int=      0 D2E=      0 Chk=     67 Scr=      1
 Normal termination of Gaussian 09 at Mon Oct 10 17:27:09 2016.
