 Entering Gaussian System, Link 0=g09
 Initial command:
 /cluster/software/gaussian/gaussian-09-D.01/g09/l1.exe "/local/scratch/maxb2/Gau-1880.inp" -scrdir="/local/scratch/maxb2/"
 Entering Link 1 = /cluster/software/gaussian/gaussian-09-D.01/g09/l1.exe PID=      1881.
  
 Copyright (c) 1988,1990,1992,1993,1995,1998,2003,2009,2013,
            Gaussian, Inc.  All Rights Reserved.
  
 This is part of the Gaussian(R) 09 program.  It is based on
 the Gaussian(R) 03 system (copyright 2003, Gaussian, Inc.),
 the Gaussian(R) 98 system (copyright 1998, Gaussian, Inc.),
 the Gaussian(R) 94 system (copyright 1995, Gaussian, Inc.),
 the Gaussian 92(TM) system (copyright 1992, Gaussian, Inc.),
 the Gaussian 90(TM) system (copyright 1990, Gaussian, Inc.),
 the Gaussian 88(TM) system (copyright 1988, Gaussian, Inc.),
 the Gaussian 86(TM) system (copyright 1986, Carnegie Mellon
 University), and the Gaussian 82(TM) system (copyright 1983,
 Carnegie Mellon University). Gaussian is a federally registered
 trademark of Gaussian, Inc.
  
 This software contains proprietary and confidential information,
 including trade secrets, belonging to Gaussian, Inc.
  
 This software is provided under written license and may be
 used, copied, transmitted, or stored only in accord with that
 written license.
  
 The following legend is applicable only to US Government
 contracts under FAR:
  
                    RESTRICTED RIGHTS LEGEND
  
 Use, reproduction and disclosure by the US Government is
 subject to restrictions as set forth in subparagraphs (a)
 and (c) of the Commercial Computer Software - Restricted
 Rights clause in FAR 52.227-19.
  
 Gaussian, Inc.
 340 Quinnipiac St., Bldg. 40, Wallingford CT 06492
  
  
 ---------------------------------------------------------------
 Warning -- This program may not be used in any manner that
 competes with the business of Gaussian, Inc. or will provide
 assistance to any competitor of Gaussian, Inc.  The licensee
 of this program is prohibited from giving any competitor of
 Gaussian, Inc. access to this program.  By using this program,
 the user acknowledges that Gaussian, Inc. is engaged in the
 business of creating and licensing software in the field of
 computational chemistry and represents and warrants to the
 licensee that it is not a competitor of Gaussian, Inc. and that
 it will not use this program in any manner prohibited above.
 ---------------------------------------------------------------
  

 Cite this work as:
 Gaussian 09, Revision D.01,
 M. J. Frisch, G. W. Trucks, H. B. Schlegel, G. E. Scuseria, 
 M. A. Robb, J. R. Cheeseman, G. Scalmani, V. Barone, B. Mennucci, 
 G. A. Petersson, H. Nakatsuji, M. Caricato, X. Li, H. P. Hratchian, 
 A. F. Izmaylov, J. Bloino, G. Zheng, J. L. Sonnenberg, M. Hada, 
 M. Ehara, K. Toyota, R. Fukuda, J. Hasegawa, M. Ishida, T. Nakajima, 
 Y. Honda, O. Kitao, H. Nakai, T. Vreven, J. A. Montgomery, Jr., 
 J. E. Peralta, F. Ogliaro, M. Bearpark, J. J. Heyd, E. Brothers, 
 K. N. Kudin, V. N. Staroverov, T. Keith, R. Kobayashi, J. Normand, 
 K. Raghavachari, A. Rendell, J. C. Burant, S. S. Iyengar, J. Tomasi, 
 M. Cossi, N. Rega, J. M. Millam, M. Klene, J. E. Knox, J. B. Cross, 
 V. Bakken, C. Adamo, J. Jaramillo, R. Gomperts, R. E. Stratmann, 
 O. Yazyev, A. J. Austin, R. Cammi, C. Pomelli, J. W. Ochterski, 
 R. L. Martin, K. Morokuma, V. G. Zakrzewski, G. A. Voth, 
 P. Salvador, J. J. Dannenberg, S. Dapprich, A. D. Daniels, 
 O. Farkas, J. B. Foresman, J. V. Ortiz, J. Cioslowski, 
 and D. J. Fox, Gaussian, Inc., Wallingford CT, 2013.
 
 ******************************************
 Gaussian 09:  ES64L-G09RevD.01 24-Apr-2013
                 9-Oct-2016 
 ******************************************
 %mem=6GB
 %nprocshared=2
 Will use up to    2 processors via shared memory.
 %chk=H20rhf
 ------------------------------------------
 # opt freq rhf/6-311+g** geom=connectivity
 ------------------------------------------
 1/18=20,19=15,38=1,57=2/1,3;
 2/9=110,12=2,17=6,18=5,40=1/2;
 3/5=4,6=6,7=111,11=1,16=1,25=1,30=1,71=1,116=1/1,2,3;
 4//1;
 5/5=2,38=5/2;
 6/7=2,8=2,9=2,10=2,28=1/1;
 7//1,2,3,16;
 1/18=20,19=15/3(2);
 2/9=110/2;
 99//99;
 2/9=110/2;
 3/5=4,6=6,7=111,11=1,16=1,25=1,30=1,71=1,116=1/1,2,3;
 4/5=5,16=3,69=1/1;
 5/5=2,38=5/2;
 7//1,2,3,16;
 1/18=20,19=15/3(-5);
 2/9=110/2;
 6/7=2,8=2,9=2,10=2,19=2,28=1/1;
 99/9=1/99;
 -------------------
 Title Card Required
 -------------------
 Symbolic Z-matrix:
 Charge =  0 Multiplicity = 1
 O
 H                    1    B1
 H                    1    B2       2    A1
       Variables:
  B1                    0.96                     
  B2                    0.96                     
  A1                  109.5                      
 

 GradGradGradGradGradGradGradGradGradGradGradGradGradGradGradGradGradGrad
 Berny optimization.
 Initialization pass.
                           ----------------------------
                           !    Initial Parameters    !
                           ! (Angstroms and Degrees)  !
 --------------------------                            --------------------------
 ! Name  Definition              Value          Derivative Info.                !
 --------------------------------------------------------------------------------
 ! R1    R(1,2)                  0.96           estimate D2E/DX2                !
 ! R2    R(1,3)                  0.96           estimate D2E/DX2                !
 ! A1    A(2,1,3)              109.5            estimate D2E/DX2                !
 --------------------------------------------------------------------------------
 Trust Radius=3.00D-01 FncErr=1.00D-07 GrdErr=1.00D-07
 Number of steps in this run=     20 maximum allowed number of steps=    100.
 GradGradGradGradGradGradGradGradGradGradGradGradGradGradGradGradGradGrad

                          Input orientation:                          
 ---------------------------------------------------------------------
 Center     Atomic      Atomic             Coordinates (Angstroms)
 Number     Number       Type             X           Y           Z
 ---------------------------------------------------------------------
      1          8           0        0.000000    0.000000    0.000000
      2          1           0        0.000000    0.000000    0.960000
      3          1           0        0.904936    0.000000   -0.320455
 ---------------------------------------------------------------------
                    Distance matrix (angstroms):
                    1          2          3
     1  O    0.000000
     2  H    0.960000   0.000000
     3  H    0.960000   1.567952   0.000000
 Stoichiometry    H2O
 Framework group  C2V[C2(O),SGV(H2)]
 Deg. of freedom     2
 Full point group                 C2V     NOp   4
 Largest Abelian subgroup         C2V     NOp   4
 Largest concise Abelian subgroup C2      NOp   2
                         Standard orientation:                         
 ---------------------------------------------------------------------
 Center     Atomic      Atomic             Coordinates (Angstroms)
 Number     Number       Type             X           Y           Z
 ---------------------------------------------------------------------
      1          8           0        0.000000    0.000000    0.110812
      2          1           0        0.000000    0.783976   -0.443248
      3          1           0        0.000000   -0.783976   -0.443248
 ---------------------------------------------------------------------
 Rotational constants (GHZ):    919.6759594    407.9403273    282.5913750
 Standard basis: 6-311+G(d,p) (5D, 7F)
 There are    17 symmetry adapted cartesian basis functions of A1  symmetry.
 There are     2 symmetry adapted cartesian basis functions of A2  symmetry.
 There are     6 symmetry adapted cartesian basis functions of B1  symmetry.
 There are    10 symmetry adapted cartesian basis functions of B2  symmetry.
 There are    16 symmetry adapted basis functions of A1  symmetry.
 There are     2 symmetry adapted basis functions of A2  symmetry.
 There are     6 symmetry adapted basis functions of B1  symmetry.
 There are    10 symmetry adapted basis functions of B2  symmetry.
    34 basis functions,    52 primitive gaussians,    35 cartesian basis functions
     5 alpha electrons        5 beta electrons
       nuclear repulsion energy         9.1571159853 Hartrees.
 NAtoms=    3 NActive=    3 NUniq=    2 SFac= 2.25D+00 NAtFMM=   60 NAOKFM=F Big=F
 Integral buffers will be    131072 words long.
 Raffenetti 1 integral format.
 Two-electron integral symmetry is turned on.
 One-electron integrals computed using PRISM.
 NBasis=    34 RedAO= T EigKep=  5.44D-03  NBF=    16     2     6    10
 NBsUse=    34 1.00D-06 EigRej= -1.00D+00 NBFU=    16     2     6    10
 ExpMin= 8.45D-02 ExpMax= 8.59D+03 ExpMxC= 1.30D+03 IAcc=2 IRadAn=         4 AccDes= 0.00D+00
 Harris functional with IExCor=  205 and IRadAn=       4 diagonalized for initial guess.
 HarFok:  IExCor=  205 AccDes= 0.00D+00 IRadAn=         4 IDoV= 1 UseB2=F ITyADJ=14
 ICtDFT=  3500011 ScaDFX=  1.000000  1.000000  1.000000  1.000000
 FoFCou: FMM=F IPFlag=           0 FMFlag=      100000 FMFlg1=           0
         NFxFlg=           0 DoJE=T BraDBF=F KetDBF=T FulRan=T
         wScrn=  0.000000 ICntrl=     500 IOpCl=  0 I1Cent=   200000004 NGrid=           0
         NMat0=    1 NMatS0=      1 NMatT0=    0 NMatD0=    1 NMtDS0=    0 NMtDT0=    0
 Petite list used in FoFCou.
 Initial guess orbital symmetries:
       Occupied  (A1) (A1) (B2) (A1) (B1)
       Virtual   (A1) (B2) (A1) (B1) (B2) (A1) (B2) (A1) (B2) (A1)
                 (B1) (A1) (A2) (A1) (B1) (B2) (B2) (A1) (A1) (B2)
                 (B1) (A2) (A1) (A1) (B2) (B1) (A1) (B2) (A1)
 The electronic state of the initial guess is 1-A1.
 Keep R1 ints in memory in symmetry-blocked form, NReq=1032961.
 Requested convergence on RMS density matrix=1.00D-08 within 128 cycles.
 Requested convergence on MAX density matrix=1.00D-06.
 Requested convergence on             energy=1.00D-06.
 No special actions if energy rises.
 SCF Done:  E(RHF) =  -76.0521730766     A.U. after   11 cycles
            NFock= 11  Conv=0.32D-08     -V/T= 2.0010

 **********************************************************************

            Population analysis using the SCF density.

 **********************************************************************

 Orbital symmetries:
       Occupied  (A1) (A1) (B2) (A1) (B1)
       Virtual   (A1) (B2) (A1) (B1) (B2) (A1) (A1) (B2) (B2) (A1)
                 (B1) (A1) (A2) (A1) (B1) (B2) (B2) (A1) (A1) (B2)
                 (B1) (A2) (A1) (A1) (B2) (B1) (A1) (B2) (A1)
 The electronic state is 1-A1.
 Alpha  occ. eigenvalues --  -20.56480  -1.35061  -0.72859  -0.57405  -0.50850
 Alpha virt. eigenvalues --    0.14447   0.21173   0.24108   0.24576   0.26534
 Alpha virt. eigenvalues --    0.30006   0.67315   0.67712   1.17206   1.19267
 Alpha virt. eigenvalues --    1.24475   1.47278   1.48901   1.60567   1.74006
 Alpha virt. eigenvalues --    1.89425   2.30558   2.40520   2.68626   2.83222
 Alpha virt. eigenvalues --    3.45608   3.55162   3.69048   4.11664   4.27262
 Alpha virt. eigenvalues --    5.49081   5.83865   6.21853  51.55175
          Condensed to atoms (all electrons):
               1          2          3
     1  O    7.858740   0.339026   0.339026
     2  H    0.339026   0.413841  -0.021263
     3  H    0.339026  -0.021263   0.413841
 Mulliken charges:
               1
     1  O   -0.536792
     2  H    0.268396
     3  H    0.268396
 Sum of Mulliken charges =   0.00000
 Mulliken charges with hydrogens summed into heavy atoms:
               1
     1  O    0.000000
 Electronic spatial extent (au):  <R**2>=             19.5552
 Charge=              0.0000 electrons
 Dipole moment (field-independent basis, Debye):
    X=              0.0000    Y=              0.0000    Z=             -2.1630  Tot=              2.1630
 Quadrupole moment (field-independent basis, Debye-Ang):
   XX=             -7.5787   YY=             -4.0158   ZZ=             -6.4444
   XY=              0.0000   XZ=              0.0000   YZ=              0.0000
 Traceless Quadrupole moment (field-independent basis, Debye-Ang):
   XX=             -1.5658   YY=              1.9972   ZZ=             -0.4314
   XY=              0.0000   XZ=              0.0000   YZ=              0.0000
 Octapole moment (field-independent basis, Debye-Ang**2):
  XXX=              0.0000  YYY=              0.0000  ZZZ=             -1.4717  XYY=              0.0000
  XXY=              0.0000  XXZ=             -0.4211  XZZ=              0.0000  YZZ=              0.0000
  YYZ=             -1.4643  XYZ=              0.0000
 Hexadecapole moment (field-independent basis, Debye-Ang**3):
 XXXX=             -6.6782 YYYY=             -5.6751 ZZZZ=             -7.2414 XXXY=              0.0000
 XXXZ=              0.0000 YYYX=              0.0000 YYYZ=              0.0000 ZZZX=              0.0000
 ZZZY=              0.0000 XXYY=             -2.4169 XXZZ=             -2.3667 YYZZ=             -1.8649
 XXYZ=              0.0000 YYXZ=              0.0000 ZZXY=              0.0000
 N-N= 9.157115985290D+00 E-N=-1.989378847151D+02  KE= 7.597240592404D+01
 Symmetry A1   KE= 6.795430566893D+01
 Symmetry A2   KE= 9.592507779160D-35
 Symmetry B1   KE= 4.473960671615D+00
 Symmetry B2   KE= 3.544139583495D+00
 Calling FoFJK, ICntrl=      2127 FMM=F ISym2X=1 I1Cent= 0 IOpClX= 0 NMat=1 NMatS=1 NMatT=0.
 ***** Axes restored to original set *****
 -------------------------------------------------------------------
 Center     Atomic                   Forces (Hartrees/Bohr)
 Number     Number              X              Y              Z
 -------------------------------------------------------------------
      1        8           0.012880465    0.000000000    0.009103012
      2        1           0.006119939    0.000000000   -0.022323738
      3        1          -0.019000404    0.000000000    0.013220726
 -------------------------------------------------------------------
 Cartesian Forces:  Max     0.022323738 RMS     0.012112331

 GradGradGradGradGradGradGradGradGradGradGradGradGradGradGradGradGradGrad
 Berny optimization.
 FormGI is forming the generalized inverse of G from B-inverse, IUseBI=4.
 Internal  Forces:  Max     0.022323738 RMS     0.019321508
 Search for a local minimum.
 Step number   1 out of a maximum of   20
 All quantities printed in internal units (Hartrees-Bohrs-Radians)
 Mixed Optimization -- RFO/linear search
 Second derivative matrix not updated -- first step.
 The second derivative matrix:
                          R1        R2        A1
           R1           0.55473
           R2           0.00000   0.55473
           A1           0.00000   0.00000   0.16000
 ITU=  0
     Eigenvalues ---    0.16000   0.55473   0.55473
 RFO step:  Lambda=-2.54683032D-03 EMin= 1.60000000D-01
 Linear search not attempted -- first point.
 Iteration  1 RMS(Cart)=  0.05723160 RMS(Int)=  0.00123130
 Iteration  2 RMS(Cart)=  0.00080064 RMS(Int)=  0.00000060
 Iteration  3 RMS(Cart)=  0.00000066 RMS(Int)=  0.00000000
 ClnCor:  largest displacement from symmetrization is 2.48D-15 for atom     3.
 Variable       Old X    -DE/DX   Delta X   Delta X   Delta X     New X
                                 (Linear)    (Quad)   (Total)
    R1        1.81414  -0.02232   0.00000  -0.04006  -0.04006   1.77408
    R2        1.81414  -0.02232   0.00000  -0.04006  -0.04006   1.77408
    A1        1.91114  -0.01110   0.00000  -0.06830  -0.06830   1.84283
         Item               Value     Threshold  Converged?
 Maximum Force            0.022324     0.000450     NO 
 RMS     Force            0.019322     0.000300     NO 
 Maximum Displacement     0.060910     0.001800     NO 
 RMS     Displacement     0.057247     0.001200     NO 
 Predicted change in Energy=-1.283442D-03
 GradGradGradGradGradGradGradGradGradGradGradGradGradGradGradGradGradGrad

                          Input orientation:                          
 ---------------------------------------------------------------------
 Center     Atomic      Atomic             Coordinates (Angstroms)
 Number     Number       Type             X           Y           Z
 ---------------------------------------------------------------------
      1          8           0       -0.007419    0.000000   -0.005243
      2          1           0        0.024636    0.000000    0.933011
      3          1           0        0.887719    0.000000   -0.288223
 ---------------------------------------------------------------------
                    Distance matrix (angstroms):
                    1          2          3
     1  O    0.000000
     2  H    0.938802   0.000000
     3  H    0.938802   1.495434   0.000000
 Stoichiometry    H2O
 Framework group  C2V[C2(O),SGV(H2)]
 Deg. of freedom     2
 Full point group                 C2V     NOp   4
 Largest Abelian subgroup         C2V     NOp   4
 Largest concise Abelian subgroup C2      NOp   2
                         Standard orientation:                         
 ---------------------------------------------------------------------
 Center     Atomic      Atomic             Coordinates (Angstroms)
 Number     Number       Type             X           Y           Z
 ---------------------------------------------------------------------
      1          8           0        0.000000    0.000000    0.113537
      2          1           0        0.000000    0.747717   -0.454149
      3          1           0        0.000000   -0.747717   -0.454149
 ---------------------------------------------------------------------
 Rotational constants (GHZ):    876.0521396    448.4636928    296.6197670
 Standard basis: 6-311+G(d,p) (5D, 7F)
 There are    17 symmetry adapted cartesian basis functions of A1  symmetry.
 There are     2 symmetry adapted cartesian basis functions of A2  symmetry.
 There are     6 symmetry adapted cartesian basis functions of B1  symmetry.
 There are    10 symmetry adapted cartesian basis functions of B2  symmetry.
 There are    16 symmetry adapted basis functions of A1  symmetry.
 There are     2 symmetry adapted basis functions of A2  symmetry.
 There are     6 symmetry adapted basis functions of B1  symmetry.
 There are    10 symmetry adapted basis functions of B2  symmetry.
    34 basis functions,    52 primitive gaussians,    35 cartesian basis functions
     5 alpha electrons        5 beta electrons
       nuclear repulsion energy         9.3726271649 Hartrees.
 NAtoms=    3 NActive=    3 NUniq=    2 SFac= 2.25D+00 NAtFMM=   60 NAOKFM=F Big=F
 Integral buffers will be    131072 words long.
 Raffenetti 1 integral format.
 Two-electron integral symmetry is turned on.
 One-electron integrals computed using PRISM.
 NBasis=    34 RedAO= T EigKep=  4.62D-03  NBF=    16     2     6    10
 NBsUse=    34 1.00D-06 EigRej= -1.00D+00 NBFU=    16     2     6    10
 Initial guess from the checkpoint file:  "H20rhf.chk"
 B after Tr=     0.000000    0.000000    0.000000
         Rot=    1.000000    0.000000    0.000000    0.000000 Ang=   0.00 deg.
 Initial guess orbital symmetries:
       Occupied  (A1) (A1) (B2) (A1) (B1)
       Virtual   (A1) (A1) (A1) (A1) (A1) (A1) (A1) (A1) (A1) (A1)
                 (A1) (A1) (A1) (A2) (A2) (B1) (B1) (B1) (B1) (B1)
                 (B2) (B2) (B2) (B2) (B2) (B2) (B2) (B2) (B2)
 ExpMin= 8.45D-02 ExpMax= 8.59D+03 ExpMxC= 1.30D+03 IAcc=2 IRadAn=         4 AccDes= 0.00D+00
 Harris functional with IExCor=  205 and IRadAn=       4 diagonalized for initial guess.
 HarFok:  IExCor=  205 AccDes= 0.00D+00 IRadAn=         4 IDoV= 1 UseB2=F ITyADJ=14
 ICtDFT=  3500011 ScaDFX=  1.000000  1.000000  1.000000  1.000000
 FoFCou: FMM=F IPFlag=           0 FMFlag=      100000 FMFlg1=           0
         NFxFlg=           0 DoJE=T BraDBF=F KetDBF=T FulRan=T
         wScrn=  0.000000 ICntrl=     500 IOpCl=  0 I1Cent=   200000004 NGrid=           0
         NMat0=    1 NMatS0=      1 NMatT0=    0 NMatD0=    1 NMtDS0=    0 NMtDT0=    0
 Petite list used in FoFCou.
 Keep R1 ints in memory in symmetry-blocked form, NReq=1032961.
 Requested convergence on RMS density matrix=1.00D-08 within 128 cycles.
 Requested convergence on MAX density matrix=1.00D-06.
 Requested convergence on             energy=1.00D-06.
 No special actions if energy rises.
 SCF Done:  E(RHF) =  -76.0532787189     A.U. after    9 cycles
            NFock=  9  Conv=0.31D-08     -V/T= 1.9998
 Calling FoFJK, ICntrl=      2127 FMM=F ISym2X=1 I1Cent= 0 IOpClX= 0 NMat=1 NMatS=1 NMatT=0.
 ***** Axes restored to original set *****
 -------------------------------------------------------------------
 Center     Atomic                   Forces (Hartrees/Bohr)
 Number     Number              X              Y              Z
 -------------------------------------------------------------------
      1        8          -0.001597122    0.000000000   -0.001128734
      2        1          -0.001096870    0.000000000    0.003246340
      3        1           0.002693992    0.000000000   -0.002117606
 -------------------------------------------------------------------
 Cartesian Forces:  Max     0.003246340 RMS     0.001741919

 GradGradGradGradGradGradGradGradGradGradGradGradGradGradGradGradGradGrad
 Berny optimization.
 Using GEDIIS/GDIIS optimizer.
 FormGI is forming the generalized inverse of G from B-inverse, IUseBI=4.
 Internal  Forces:  Max     0.003206995 RMS     0.002895712
 Search for a local minimum.
 Step number   2 out of a maximum of   20
 All quantities printed in internal units (Hartrees-Bohrs-Radians)
 Mixed Optimization -- RFO/linear search
 Update second derivatives using D2CorX and points    1    2
 DE= -1.11D-03 DEPred=-1.28D-03 R= 8.61D-01
 TightC=F SS=  1.41D+00  RLast= 8.87D-02 DXNew= 5.0454D-01 2.6622D-01
 Trust test= 8.61D-01 RLast= 8.87D-02 DXMaxT set to 3.00D-01
 The second derivative matrix:
                          R1        R2        A1
           R1           0.58026
           R2           0.02552   0.58026
           A1           0.01851   0.01851   0.17219
 ITU=  1  0
 Use linear search instead of GDIIS.
     Eigenvalues ---    0.17062   0.55473   0.60736
 RFO step:  Lambda=-4.90509944D-07 EMin= 1.70616499D-01
 Quartic linear search produced a step of -0.12889.
 Iteration  1 RMS(Cart)=  0.00787367 RMS(Int)=  0.00002480
 Iteration  2 RMS(Cart)=  0.00001616 RMS(Int)=  0.00000000
 Iteration  3 RMS(Cart)=  0.00000000 RMS(Int)=  0.00000000
 ClnCor:  largest displacement from symmetrization is 9.44D-16 for atom     1.
 Variable       Old X    -DE/DX   Delta X   Delta X   Delta X     New X
                                 (Linear)    (Quad)   (Total)
    R1        1.77408   0.00321   0.00516  -0.00038   0.00479   1.77887
    R2        1.77408   0.00321   0.00516  -0.00038   0.00479   1.77887
    A1        1.84283   0.00214   0.00880   0.00145   0.01025   1.85308
         Item               Value     Threshold  Converged?
 Maximum Force            0.003207     0.000450     NO 
 RMS     Force            0.002896     0.000300     NO 
 Maximum Displacement     0.008443     0.001800     NO 
 RMS     Displacement     0.007875     0.001200     NO 
 Predicted change in Energy=-2.791042D-05
 GradGradGradGradGradGradGradGradGradGradGradGradGradGradGradGradGradGrad

                          Input orientation:                          
 ---------------------------------------------------------------------
 Center     Atomic      Atomic             Coordinates (Angstroms)
 Number     Number       Type             X           Y           Z
 ---------------------------------------------------------------------
      1          8           0       -0.006157    0.000000   -0.004352
      2          1           0        0.021163    0.000000    0.936588
      3          1           0        0.889931    0.000000   -0.292691
 ---------------------------------------------------------------------
                    Distance matrix (angstroms):
                    1          2          3
     1  O    0.000000
     2  H    0.941336   0.000000
     3  H    0.941336   1.505285   0.000000
 Stoichiometry    H2O
 Framework group  C2V[C2(O),SGV(H2)]
 Deg. of freedom     2
 Full point group                 C2V     NOp   4
 Largest Abelian subgroup         C2V     NOp   4
 Largest concise Abelian subgroup C2      NOp   2
                         Standard orientation:                         
 ---------------------------------------------------------------------
 Center     Atomic      Atomic             Coordinates (Angstroms)
 Number     Number       Type             X           Y           Z
 ---------------------------------------------------------------------
      1          8           0        0.000000    0.000000    0.113074
      2          1           0        0.000000    0.752642   -0.452295
      3          1           0        0.000000   -0.752642   -0.452295
 ---------------------------------------------------------------------
 Rotational constants (GHZ):    883.2493216    442.6135211    294.8556062
 Standard basis: 6-311+G(d,p) (5D, 7F)
 There are    17 symmetry adapted cartesian basis functions of A1  symmetry.
 There are     2 symmetry adapted cartesian basis functions of A2  symmetry.
 There are     6 symmetry adapted cartesian basis functions of B1  symmetry.
 There are    10 symmetry adapted cartesian basis functions of B2  symmetry.
 There are    16 symmetry adapted basis functions of A1  symmetry.
 There are     2 symmetry adapted basis functions of A2  symmetry.
 There are     6 symmetry adapted basis functions of B1  symmetry.
 There are    10 symmetry adapted basis functions of B2  symmetry.
    34 basis functions,    52 primitive gaussians,    35 cartesian basis functions
     5 alpha electrons        5 beta electrons
       nuclear repulsion energy         9.3460374097 Hartrees.
 NAtoms=    3 NActive=    3 NUniq=    2 SFac= 2.25D+00 NAtFMM=   60 NAOKFM=F Big=F
 Integral buffers will be    131072 words long.
 Raffenetti 1 integral format.
 Two-electron integral symmetry is turned on.
 One-electron integrals computed using PRISM.
 NBasis=    34 RedAO= T EigKep=  4.72D-03  NBF=    16     2     6    10
 NBsUse=    34 1.00D-06 EigRej= -1.00D+00 NBFU=    16     2     6    10
 Initial guess from the checkpoint file:  "H20rhf.chk"
 B after Tr=     0.000000    0.000000    0.000000
         Rot=    1.000000    0.000000    0.000000    0.000000 Ang=   0.00 deg.
 Initial guess orbital symmetries:
       Occupied  (A1) (A1) (B2) (A1) (B1)
       Virtual   (A1) (A1) (A1) (A1) (A1) (A1) (A1) (A1) (A1) (A1)
                 (A1) (A1) (A1) (A2) (A2) (B1) (B1) (B1) (B1) (B1)
                 (B2) (B2) (B2) (B2) (B2) (B2) (B2) (B2) (B2)
 Keep R1 ints in memory in symmetry-blocked form, NReq=1032961.
 Requested convergence on RMS density matrix=1.00D-08 within 128 cycles.
 Requested convergence on MAX density matrix=1.00D-06.
 Requested convergence on             energy=1.00D-06.
 No special actions if energy rises.
 SCF Done:  E(RHF) =  -76.0533051237     A.U. after    9 cycles
            NFock=  9  Conv=0.32D-09     -V/T= 2.0000
 Calling FoFJK, ICntrl=      2127 FMM=F ISym2X=1 I1Cent= 0 IOpClX= 0 NMat=1 NMatS=1 NMatT=0.
 ***** Axes restored to original set *****
 -------------------------------------------------------------------
 Center     Atomic                   Forces (Hartrees/Bohr)
 Number     Number              X              Y              Z
 -------------------------------------------------------------------
      1        8           0.000204000    0.000000000    0.000144173
      2        1          -0.000077085    0.000000000   -0.000107340
      3        1          -0.000126915    0.000000000   -0.000036832
 -------------------------------------------------------------------
 Cartesian Forces:  Max     0.000204000 RMS     0.000103992

 GradGradGradGradGradGradGradGradGradGradGradGradGradGradGradGradGradGrad
 Berny optimization.
 Using GEDIIS/GDIIS optimizer.
 FormGI is forming the generalized inverse of G from B-inverse, IUseBI=4.
 Internal  Forces:  Max     0.000131524 RMS     0.000117322
 Search for a local minimum.
 Step number   3 out of a maximum of   20
 All quantities printed in internal units (Hartrees-Bohrs-Radians)
 Mixed Optimization -- En-DIIS/RFO-DIIS
 Update second derivatives using D2CorX and points    1    2    3
 DE= -2.64D-05 DEPred=-2.79D-05 R= 9.46D-01
 TightC=F SS=  1.41D+00  RLast= 1.23D-02 DXNew= 5.0454D-01 3.6853D-02
 Trust test= 9.46D-01 RLast= 1.23D-02 DXMaxT set to 3.00D-01
 The second derivative matrix:
                          R1        R2        A1
           R1           0.59735
           R2           0.04262   0.59735
           A1           0.02463   0.02463   0.17309
 ITU=  1  1  0
 Use linear search instead of GDIIS.
     Eigenvalues ---    0.17050   0.55473   0.64255
 RFO step:  Lambda=-1.50393177D-07 EMin= 1.70501546D-01
 Quartic linear search produced a step of  0.00576.
 Iteration  1 RMS(Cart)=  0.00040072 RMS(Int)=  0.00000013
 Iteration  2 RMS(Cart)=  0.00000013 RMS(Int)=  0.00000000
 ClnCor:  largest displacement from symmetrization is 3.05D-15 for atom     3.
 Variable       Old X    -DE/DX   Delta X   Delta X   Delta X     New X
                                 (Linear)    (Quad)   (Total)
    R1        1.77887  -0.00011   0.00003  -0.00023  -0.00020   1.77866
    R2        1.77887  -0.00011   0.00003  -0.00023  -0.00020   1.77866
    A1        1.85308   0.00013   0.00006   0.00076   0.00082   1.85390
         Item               Value     Threshold  Converged?
 Maximum Force            0.000132     0.000450     YES
 RMS     Force            0.000117     0.000300     YES
 Maximum Displacement     0.000383     0.001800     YES
 RMS     Displacement     0.000401     0.001200     YES
 Predicted change in Energy=-7.595660D-08
 Optimization completed.
    -- Stationary point found.
                           ----------------------------
                           !   Optimized Parameters   !
                           ! (Angstroms and Degrees)  !
 --------------------------                            --------------------------
 ! Name  Definition              Value          Derivative Info.                !
 --------------------------------------------------------------------------------
 ! R1    R(1,2)                  0.9413         -DE/DX =   -0.0001              !
 ! R2    R(1,3)                  0.9413         -DE/DX =   -0.0001              !
 ! A1    A(2,1,3)              106.1738         -DE/DX =    0.0001              !
 --------------------------------------------------------------------------------
 GradGradGradGradGradGradGradGradGradGradGradGradGradGradGradGradGradGrad

                          Input orientation:                          
 ---------------------------------------------------------------------
 Center     Atomic      Atomic             Coordinates (Angstroms)
 Number     Number       Type             X           Y           Z
 ---------------------------------------------------------------------
      1          8           0       -0.006157    0.000000   -0.004352
      2          1           0        0.021163    0.000000    0.936588
      3          1           0        0.889931    0.000000   -0.292691
 ---------------------------------------------------------------------
                    Distance matrix (angstroms):
                    1          2          3
     1  O    0.000000
     2  H    0.941336   0.000000
     3  H    0.941336   1.505285   0.000000
 Stoichiometry    H2O
 Framework group  C2V[C2(O),SGV(H2)]
 Deg. of freedom     2
 Full point group                 C2V     NOp   4
 Largest Abelian subgroup         C2V     NOp   4
 Largest concise Abelian subgroup C2      NOp   2
                         Standard orientation:                         
 ---------------------------------------------------------------------
 Center     Atomic      Atomic             Coordinates (Angstroms)
 Number     Number       Type             X           Y           Z
 ---------------------------------------------------------------------
      1          8           0        0.000000    0.000000    0.113074
      2          1           0        0.000000    0.752642   -0.452295
      3          1           0        0.000000   -0.752642   -0.452295
 ---------------------------------------------------------------------
 Rotational constants (GHZ):    883.2493216    442.6135211    294.8556062

 **********************************************************************

            Population analysis using the SCF density.

 **********************************************************************

 Orbital symmetries:
       Occupied  (A1) (A1) (B2) (A1) (B1)
       Virtual   (A1) (B2) (A1) (B1) (B2) (A1) (B2) (A1) (B2) (A1)
                 (B1) (A1) (A2) (A1) (B1) (B2) (B2) (A1) (A1) (B2)
                 (B1) (A2) (A1) (A1) (B2) (B1) (A1) (B2) (A1)
 The electronic state is 1-A1.
 Alpha  occ. eigenvalues --  -20.56300  -1.36274  -0.73280  -0.58403  -0.51109
 Alpha virt. eigenvalues --    0.14699   0.21393   0.24100   0.24532   0.26539
 Alpha virt. eigenvalues --    0.30154   0.68307   0.69928   1.17156   1.18746
 Alpha virt. eigenvalues --    1.24393   1.45326   1.50364   1.56226   1.72768
 Alpha virt. eigenvalues --    1.93834   2.32055   2.45002   2.66572   2.83745
 Alpha virt. eigenvalues --    3.49051   3.55899   3.73144   4.10452   4.31485
 Alpha virt. eigenvalues --    5.49193   5.88513   6.25584  51.57116
          Condensed to atoms (all electrons):
               1          2          3
     1  O    7.839050   0.340418   0.340418
     2  H    0.340418   0.421221  -0.021583
     3  H    0.340418  -0.021583   0.421221
 Mulliken charges:
               1
     1  O   -0.519887
     2  H    0.259943
     3  H    0.259943
 Sum of Mulliken charges =   0.00000
 Mulliken charges with hydrogens summed into heavy atoms:
               1
     1  O    0.000000
 Electronic spatial extent (au):  <R**2>=             19.3046
 Charge=              0.0000 electrons
 Dipole moment (field-independent basis, Debye):
    X=              0.0000    Y=              0.0000    Z=             -2.1976  Tot=              2.1976
 Quadrupole moment (field-independent basis, Debye-Ang):
   XX=             -7.5257   YY=             -4.2112   ZZ=             -6.3303
   XY=              0.0000   XZ=              0.0000   YZ=              0.0000
 Traceless Quadrupole moment (field-independent basis, Debye-Ang):
   XX=             -1.5033   YY=              1.8112   ZZ=             -0.3080
   XY=              0.0000   XZ=              0.0000   YZ=              0.0000
 Octapole moment (field-independent basis, Debye-Ang**2):
  XXX=              0.0000  YYY=              0.0000  ZZZ=             -1.5439  XYY=              0.0000
  XXY=              0.0000  XXZ=             -0.4438  XZZ=              0.0000  YZZ=              0.0000
  YYZ=             -1.3981  XYZ=              0.0000
 Hexadecapole moment (field-independent basis, Debye-Ang**3):
 XXXX=             -6.5950 YYYY=             -5.6916 ZZZZ=             -7.1065 XXXY=              0.0000
 XXXZ=              0.0000 YYYX=              0.0000 YYYZ=              0.0000 ZZZX=              0.0000
 ZZZY=              0.0000 XXYY=             -2.3496 XXZZ=             -2.3345 YYZZ=             -1.8220
 XXYZ=              0.0000 YYXZ=              0.0000 ZZXY=              0.0000
 N-N= 9.346037409678D+00 E-N=-1.993450597872D+02  KE= 7.605371977159D+01
 Symmetry A1   KE= 6.797344912788D+01
 Symmetry A2   KE= 6.777233671286D-35
 Symmetry B1   KE= 4.475649772765D+00
 Symmetry B2   KE= 3.604620870946D+00
 B after Tr=     0.008145    0.000000    0.005756
         Rot=    1.000000    0.000000    0.000000    0.000000 Ang=   0.00 deg.
 Final structure in terms of initial Z-matrix:
 O
 H,1,B1
 H,1,B2,2,A1
      Variables:
 B1=0.94133567
 B2=0.94133567
 A1=106.17379432
 1\1\GINC-TC-NODE166\FOpt\RHF\6-311+G(d,p)\H2O1\MAXB2\09-Oct-2016\0\\# 
 opt freq rhf/6-311+g** geom=connectivity\\Title Card Required\\0,1\O,-
 0.0061573276,0.,-0.0043515689\H,0.0211626291,0.,0.9365875654\H,0.88993
 05296,0.,-0.2926905823\\Version=ES64L-G09RevD.01\State=1-A1\HF=-76.053
 3051\RMSD=3.249e-10\RMSF=1.040e-04\Dipole=0.7060615,0.,0.498995\Quadru
 pole=0.295854,-1.117643,0.821789,0.,-0.7425973,0.\PG=C02V [C2(O1),SGV(
 H2)]\\@


 SLITHERY-DITHERY
 FRIEDRICH A. KEKULE
 DREAMT ON A BUS OF THINGS
 FREUD WOULD THINK KEEN.
 MOST OF THE TIME THEY WERE
 HERPETOLOGICAL
 BITING THEIR TAILS IN THE
 SHAPE OF BENZENE.
 Job cpu time:       0 days  0 hours  0 minutes  8.4 seconds.
 File lengths (MBytes):  RWF=      5 Int=      0 D2E=      0 Chk=      2 Scr=      1
 Normal termination of Gaussian 09 at Sun Oct  9 16:41:37 2016.
 Link1:  Proceeding to internal job step number  2.
 ---------------------------------------------------------------------
 #N Geom=AllCheck Guess=TCheck SCRF=Check GenChk RHF/6-311+G(d,p) Freq
 ---------------------------------------------------------------------
 1/10=4,29=7,30=1,38=1,40=1/1,3;
 2/12=2,40=1/2;
 3/5=4,6=6,7=111,11=1,14=-4,16=1,25=1,30=1,70=2,71=2,116=1,140=1/1,2,3;
 4/5=101/1;
 5/5=2,98=1/2;
 8/6=4,10=90,11=11/1;
 10/13=10,15=4/2;
 11/6=3,8=1,9=11,15=111,16=1/1,2,10;
 10/6=1/2;
 6/7=2,8=2,9=2,10=2,18=1,28=1/1;
 7/8=1,10=1,25=1/1,2,3,16;
 1/10=4,30=1/3;
 99//99;
 Structure from the checkpoint file:  "H20rhf.chk"
 -------------------
 Title Card Required
 -------------------
 Charge =  0 Multiplicity = 1
 Redundant internal coordinates found in file.
 O,0,-0.0061573276,0.,-0.0043515689
 H,0,0.0211626291,0.,0.9365875654
 H,0,0.8899305296,0.,-0.2926905823
 Recover connectivity data from disk.

 GradGradGradGradGradGradGradGradGradGradGradGradGradGradGradGradGradGrad
 Berny optimization.
 Initialization pass.
                           ----------------------------
                           !    Initial Parameters    !
                           ! (Angstroms and Degrees)  !
 --------------------------                            --------------------------
 ! Name  Definition              Value          Derivative Info.                !
 --------------------------------------------------------------------------------
 ! R1    R(1,2)                  0.9413         calculate D2E/DX2 analytically  !
 ! R2    R(1,3)                  0.9413         calculate D2E/DX2 analytically  !
 ! A1    A(2,1,3)              106.1738         calculate D2E/DX2 analytically  !
 --------------------------------------------------------------------------------
 Trust Radius=3.00D-01 FncErr=1.00D-07 GrdErr=1.00D-07
 Number of steps in this run=      2 maximum allowed number of steps=      2.
 GradGradGradGradGradGradGradGradGradGradGradGradGradGradGradGradGradGrad

                          Input orientation:                          
 ---------------------------------------------------------------------
 Center     Atomic      Atomic             Coordinates (Angstroms)
 Number     Number       Type             X           Y           Z
 ---------------------------------------------------------------------
      1          8           0       -0.006157    0.000000   -0.004352
      2          1           0        0.021163    0.000000    0.936588
      3          1           0        0.889931    0.000000   -0.292691
 ---------------------------------------------------------------------
                    Distance matrix (angstroms):
                    1          2          3
     1  O    0.000000
     2  H    0.941336   0.000000
     3  H    0.941336   1.505285   0.000000
 Stoichiometry    H2O
 Framework group  C2V[C2(O),SGV(H2)]
 Deg. of freedom     2
 Full point group                 C2V     NOp   4
 Largest Abelian subgroup         C2V     NOp   4
 Largest concise Abelian subgroup C2      NOp   2
                         Standard orientation:                         
 ---------------------------------------------------------------------
 Center     Atomic      Atomic             Coordinates (Angstroms)
 Number     Number       Type             X           Y           Z
 ---------------------------------------------------------------------
      1          8           0        0.000000    0.000000    0.113074
      2          1           0        0.000000    0.752642   -0.452295
      3          1           0        0.000000   -0.752642   -0.452295
 ---------------------------------------------------------------------
 Rotational constants (GHZ):    883.2493216    442.6135211    294.8556062
 Standard basis: 6-311+G(d,p) (5D, 7F)
 There are    17 symmetry adapted cartesian basis functions of A1  symmetry.
 There are     2 symmetry adapted cartesian basis functions of A2  symmetry.
 There are     6 symmetry adapted cartesian basis functions of B1  symmetry.
 There are    10 symmetry adapted cartesian basis functions of B2  symmetry.
 There are    16 symmetry adapted basis functions of A1  symmetry.
 There are     2 symmetry adapted basis functions of A2  symmetry.
 There are     6 symmetry adapted basis functions of B1  symmetry.
 There are    10 symmetry adapted basis functions of B2  symmetry.
    34 basis functions,    52 primitive gaussians,    35 cartesian basis functions
     5 alpha electrons        5 beta electrons
       nuclear repulsion energy         9.3460374097 Hartrees.
 NAtoms=    3 NActive=    3 NUniq=    2 SFac= 2.25D+00 NAtFMM=   60 NAOKFM=F Big=F
 Integral buffers will be    131072 words long.
 Raffenetti 1 integral format.
 Two-electron integral symmetry is turned on.
 One-electron integrals computed using PRISM.
 NBasis=    34 RedAO= T EigKep=  4.72D-03  NBF=    16     2     6    10
 NBsUse=    34 1.00D-06 EigRej= -1.00D+00 NBFU=    16     2     6    10
 Initial guess from the checkpoint file:  "H20rhf.chk"
 B after Tr=     0.000000    0.000000    0.000000
         Rot=    1.000000    0.000000    0.000000    0.000000 Ang=   0.00 deg.
 Initial guess orbital symmetries:
       Occupied  (A1) (A1) (B2) (A1) (B1)
       Virtual   (A1) (B2) (A1) (B1) (B2) (A1) (B2) (A1) (B2) (A1)
                 (B1) (A1) (A2) (A1) (B1) (B2) (B2) (A1) (A1) (B2)
                 (B1) (A2) (A1) (A1) (B2) (B1) (A1) (B2) (A1)
 Keep R1 ints in memory in symmetry-blocked form, NReq=1032961.
 Requested convergence on RMS density matrix=1.00D-08 within 128 cycles.
 Requested convergence on MAX density matrix=1.00D-06.
 Requested convergence on             energy=1.00D-06.
 No special actions if energy rises.
 Skip diagonalization as Alpha Fock matrix is already diagonal.
 SCF Done:  E(RHF) =  -76.0533051237     A.U. after    1 cycles
            NFock=  1  Conv=0.00D+00     -V/T= 2.0000
 Range of M.O.s used for correlation:     1    34
 NBasis=    34 NAE=     5 NBE=     5 NFC=     0 NFV=     0
 NROrb=     34 NOA=     5 NOB=     5 NVA=    29 NVB=    29
          Differentiating once with respect to electric field.
                with respect to dipole field.
          Electric field/nuclear overlap derivatives assumed to be zero.
 Keep R1 ints in memory in symmetry-blocked form, NReq=1016541.
          There are     3 degrees of freedom in the 1st order CPHF.  IDoFFX=0 NUNeed=     3.
      3 vectors produced by pass  0 Test12= 4.83D-15 3.33D-08 XBig12= 1.37D+00 6.83D-01.
 AX will form     3 AO Fock derivatives at one time.
      3 vectors produced by pass  1 Test12= 4.83D-15 3.33D-08 XBig12= 7.79D-02 1.20D-01.
      3 vectors produced by pass  2 Test12= 4.83D-15 3.33D-08 XBig12= 9.20D-03 3.94D-02.
      3 vectors produced by pass  3 Test12= 4.83D-15 3.33D-08 XBig12= 3.43D-04 7.95D-03.
      3 vectors produced by pass  4 Test12= 4.83D-15 3.33D-08 XBig12= 7.63D-06 1.25D-03.
      3 vectors produced by pass  5 Test12= 4.83D-15 3.33D-08 XBig12= 1.09D-07 1.60D-04.
      3 vectors produced by pass  6 Test12= 4.83D-15 3.33D-08 XBig12= 3.98D-10 6.85D-06.
      3 vectors produced by pass  7 Test12= 4.83D-15 3.33D-08 XBig12= 4.23D-12 1.08D-06.
      1 vectors produced by pass  8 Test12= 4.83D-15 3.33D-08 XBig12= 6.02D-14 1.19D-07.
 InvSVY:  IOpt=1 It=  1 EMax= 1.23D-16
 Solved reduced A of dimension    25 with     3 vectors.
 End of Minotr F.D. properties file   721 does not exist.
 End of Minotr F.D. properties file   722 does not exist.
 End of Minotr F.D. properties file   788 does not exist.
 Symmetrizing basis deriv contribution to polar:
 IMax=3 JMax=2 DiffMx= 0.00D+00
 G2DrvN: will do     4 centers at a time, making    1 passes.
 PxScal for G2LodP:  IOpCl= 0 ISclPx=1 IMOff=     1 NMtTot=     4 NTT=     595 ScalPx= 2.73D+00
 Calling FoFCou, ICntrl=  3107 FMM=F I1Cent=   0 AccDes= 0.00D+00.
 End of G2Drv F.D. properties file   721 does not exist.
 End of G2Drv F.D. properties file   722 does not exist.
 End of G2Drv F.D. properties file   788 does not exist.
          IDoAtm=111
          Differentiating once with respect to electric field.
                with respect to dipole field.
          Differentiating once with respect to nuclear coordinates.
 Keep R1 ints in memory in symmetry-blocked form, NReq=1016610.
          There are     9 degrees of freedom in the 1st order CPHF.  IDoFFX=4 NUNeed=     9.
 Will reuse    3 saved solutions.
      6 vectors produced by pass  0 Test12= 1.61D-15 1.11D-08 XBig12= 3.13D-02 8.02D-02.
 AX will form     6 AO Fock derivatives at one time.
      6 vectors produced by pass  1 Test12= 1.61D-15 1.11D-08 XBig12= 2.68D-03 2.35D-02.
      6 vectors produced by pass  2 Test12= 1.61D-15 1.11D-08 XBig12= 2.27D-04 9.23D-03.
      6 vectors produced by pass  3 Test12= 1.61D-15 1.11D-08 XBig12= 6.56D-06 1.05D-03.
      6 vectors produced by pass  4 Test12= 1.61D-15 1.11D-08 XBig12= 1.56D-07 1.57D-04.
      6 vectors produced by pass  5 Test12= 1.61D-15 1.11D-08 XBig12= 1.62D-09 2.06D-05.
      5 vectors produced by pass  6 Test12= 1.61D-15 1.11D-08 XBig12= 5.65D-12 1.08D-06.
      2 vectors produced by pass  7 Test12= 1.61D-15 1.11D-08 XBig12= 1.49D-14 4.22D-08.
 InvSVY:  IOpt=1 It=  1 EMax= 2.22D-16
 Solved reduced A of dimension    43 with     6 vectors.
 Isotropic polarizability for W=    0.000000        6.24 Bohr**3.
 End of Minotr F.D. properties file   721 does not exist.
 End of Minotr F.D. properties file   722 does not exist.
 End of Minotr F.D. properties file   788 does not exist.

 **********************************************************************

            Population analysis using the SCF density.

 **********************************************************************

 Orbital symmetries:
       Occupied  (A1) (A1) (B2) (A1) (B1)
       Virtual   (A1) (B2) (A1) (B1) (B2) (A1) (B2) (A1) (B2) (A1)
                 (B1) (A1) (A2) (A1) (B1) (B2) (B2) (A1) (A1) (B2)
                 (B1) (A2) (A1) (A1) (B2) (B1) (A1) (B2) (A1)
 The electronic state is 1-A1.
 Alpha  occ. eigenvalues --  -20.56300  -1.36274  -0.73280  -0.58403  -0.51109
 Alpha virt. eigenvalues --    0.14699   0.21393   0.24100   0.24532   0.26539
 Alpha virt. eigenvalues --    0.30154   0.68307   0.69928   1.17156   1.18746
 Alpha virt. eigenvalues --    1.24393   1.45326   1.50364   1.56226   1.72768
 Alpha virt. eigenvalues --    1.93834   2.32055   2.45002   2.66572   2.83745
 Alpha virt. eigenvalues --    3.49051   3.55899   3.73144   4.10452   4.31485
 Alpha virt. eigenvalues --    5.49193   5.88513   6.25584  51.57116
          Condensed to atoms (all electrons):
               1          2          3
     1  O    7.839050   0.340418   0.340418
     2  H    0.340418   0.421221  -0.021583
     3  H    0.340418  -0.021583   0.421221
 Mulliken charges:
               1
     1  O   -0.519887
     2  H    0.259943
     3  H    0.259943
 Sum of Mulliken charges =   0.00000
 Mulliken charges with hydrogens summed into heavy atoms:
               1
     1  O    0.000000
 APT charges:
               1
     1  O   -0.619192
     2  H    0.309596
     3  H    0.309596
 Sum of APT charges =   0.00000
 APT charges with hydrogens summed into heavy atoms:
               1
     1  O    0.000000
 Electronic spatial extent (au):  <R**2>=             19.3046
 Charge=              0.0000 electrons
 Dipole moment (field-independent basis, Debye):
    X=              0.0000    Y=              0.0000    Z=             -2.1976  Tot=              2.1976
 Quadrupole moment (field-independent basis, Debye-Ang):
   XX=             -7.5257   YY=             -4.2112   ZZ=             -6.3303
   XY=              0.0000   XZ=              0.0000   YZ=              0.0000
 Traceless Quadrupole moment (field-independent basis, Debye-Ang):
   XX=             -1.5033   YY=              1.8112   ZZ=             -0.3080
   XY=              0.0000   XZ=              0.0000   YZ=              0.0000
 Octapole moment (field-independent basis, Debye-Ang**2):
  XXX=              0.0000  YYY=              0.0000  ZZZ=             -1.5439  XYY=              0.0000
  XXY=              0.0000  XXZ=             -0.4438  XZZ=              0.0000  YZZ=              0.0000
  YYZ=             -1.3981  XYZ=              0.0000
 Hexadecapole moment (field-independent basis, Debye-Ang**3):
 XXXX=             -6.5950 YYYY=             -5.6916 ZZZZ=             -7.1065 XXXY=              0.0000
 XXXZ=              0.0000 YYYX=              0.0000 YYYZ=              0.0000 ZZZX=              0.0000
 ZZZY=              0.0000 XXYY=             -2.3496 XXZZ=             -2.3345 YYZZ=             -1.8220
 XXYZ=              0.0000 YYXZ=              0.0000 ZZXY=              0.0000
 N-N= 9.346037409678D+00 E-N=-1.993450597872D+02  KE= 7.605371977159D+01
 Symmetry A1   KE= 6.797344912788D+01
 Symmetry A2   KE= 6.777233671285D-35
 Symmetry B1   KE= 4.475649772765D+00
 Symmetry B2   KE= 3.604620870946D+00
  Exact polarizability:   5.490   0.000   7.397   0.000   0.000   5.827
 Approx polarizability:   4.119   0.000   6.077   0.000   0.000   4.675
 Calling FoFJK, ICntrl=    100127 FMM=F ISym2X=1 I1Cent= 0 IOpClX= 0 NMat=1 NMatS=1 NMatT=0.
 Full mass-weighted force constant matrix:
 Low frequencies ---   -0.0014   -0.0006    0.0021   28.2093   41.0160   58.7491
 Low frequencies --- 1727.3301 4140.4750 4242.2455
 Diagonal vibrational polarizability:
        0.0000000       0.1321520       0.8143055
 Diagonal vibrational hyperpolarizability:
        0.0000000       0.0000000      -6.4946267
 Harmonic frequencies (cm**-1), IR intensities (KM/Mole), Raman scattering
 activities (A**4/AMU), depolarization ratios for plane and unpolarized
 incident light, reduced masses (AMU), force constants (mDyne/A),
 and normal coordinates:
                      1                      2                      3
                     A1                     A1                     B2
 Frequencies --   1727.3301              4140.4750              4242.2455
 Red. masses --      1.0826                 1.0453                 1.0835
 Frc consts  --      1.9031                10.5579                11.4889
 IR Inten    --     85.7826                25.8570                88.3756
 Raman Activ --      5.8981                72.5666                34.9405
 Depolar (P) --      0.4905                 0.1390                 0.7500
 Depolar (U) --      0.6582                 0.2440                 0.8571
  Atom  AN      X      Y      Z        X      Y      Z        X      Y      Z
     1   8     0.00   0.00   0.07     0.00   0.00   0.05     0.00   0.07   0.00
     2   1     0.00  -0.43  -0.56     0.00   0.58  -0.40     0.00  -0.56   0.42
     3   1     0.00   0.43  -0.56     0.00  -0.58  -0.40     0.00  -0.56  -0.42

 -------------------
 - Thermochemistry -
 -------------------
 Temperature   298.150 Kelvin.  Pressure   1.00000 Atm.
 Atom     1 has atomic number  8 and mass  15.99491
 Atom     2 has atomic number  1 and mass   1.00783
 Atom     3 has atomic number  1 and mass   1.00783
 Molecular mass:    18.01056 amu.
 Principal axes and moments of inertia in atomic units:
                           1         2         3
     Eigenvalues --     2.04330   4.07747   6.12076
           X            0.00000   0.00000   1.00000
           Y            1.00000   0.00000   0.00000
           Z            0.00000   1.00000   0.00000
 This molecule is an asymmetric top.
 Rotational symmetry number  2.
 Rotational temperatures (Kelvin)     42.38923    21.24207    14.15082
 Rotational constants (GHZ):         883.24932   442.61352   294.85561
 Zero-point vibrational energy      60471.5 (Joules/Mol)
                                   14.45304 (Kcal/Mol)
 Vibrational temperatures:   2485.24  5957.21  6103.64
          (Kelvin)
 
 Zero-point correction=                           0.023032 (Hartree/Particle)
 Thermal correction to Energy=                    0.025867
 Thermal correction to Enthalpy=                  0.026811
 Thermal correction to Gibbs Free Energy=         0.005456
 Sum of electronic and zero-point Energies=            -76.030273
 Sum of electronic and thermal Energies=               -76.027438
 Sum of electronic and thermal Enthalpies=             -76.026494
 Sum of electronic and thermal Free Energies=          -76.047849
 
                     E (Thermal)             CV                S
                      KCal/Mol        Cal/Mol-Kelvin    Cal/Mol-Kelvin
 Total                   16.232              5.995             44.945
 Electronic               0.000              0.000              0.000
 Translational            0.889              2.981             34.608
 Rotational               0.889              2.981             10.332
 Vibrational             14.454              0.033              0.004
                       Q            Log10(Q)             Ln(Q)
 Total Bot       0.309235D-02         -2.509711         -5.778823
 Total V=0       0.121459D+09          8.084431         18.615089
 Vib (Bot)       0.254661D-10        -10.594037        -24.393672
 Vib (V=0)       0.100024D+01          0.000104          0.000240
 Electronic      0.100000D+01          0.000000          0.000000
 Translational   0.300432D+07          6.477746         14.915562
 Rotational      0.404185D+02          1.606580          3.699287
 ***** Axes restored to original set *****
 -------------------------------------------------------------------
 Center     Atomic                   Forces (Hartrees/Bohr)
 Number     Number              X              Y              Z
 -------------------------------------------------------------------
      1        8           0.000204000    0.000000000    0.000144173
      2        1          -0.000077085    0.000000000   -0.000107341
      3        1          -0.000126915    0.000000000   -0.000036832
 -------------------------------------------------------------------
 Cartesian Forces:  Max     0.000204000 RMS     0.000103992
 FormGI is forming the generalized inverse of G from B-inverse, IUseBI=4.

 GradGradGradGradGradGradGradGradGradGradGradGradGradGradGradGradGradGrad
 Berny optimization.
 Internal  Forces:  Max     0.000131524 RMS     0.000117322
 Search for a local minimum.
 Step number   1 out of a maximum of    2
 All quantities printed in internal units (Hartrees-Bohrs-Radians)
 Second derivative matrix not updated -- analytic derivatives used.
 The second derivative matrix:
                          R1        R2        A1
           R1           0.63131
           R2          -0.00390   0.63131
           A1           0.02752   0.02752   0.16896
 ITU=  0
     Eigenvalues ---    0.16568   0.63070   0.63521
 Angle between quadratic step and forces=  30.20 degrees.
 Linear search not attempted -- first point.
 Iteration  1 RMS(Cart)=  0.00041461 RMS(Int)=  0.00000014
 Iteration  2 RMS(Cart)=  0.00000014 RMS(Int)=  0.00000000
 ClnCor:  largest displacement from symmetrization is 3.69D-15 for atom     3.
 Variable       Old X    -DE/DX   Delta X   Delta X   Delta X     New X
                                 (Linear)    (Quad)   (Total)
    R1        1.77887  -0.00011   0.00000  -0.00021  -0.00021   1.77865
    R2        1.77887  -0.00011   0.00000  -0.00021  -0.00021   1.77865
    A1        1.85308   0.00013   0.00000   0.00085   0.00085   1.85393
         Item               Value     Threshold  Converged?
 Maximum Force            0.000132     0.000450     YES
 RMS     Force            0.000117     0.000300     YES
 Maximum Displacement     0.000397     0.001800     YES
 RMS     Displacement     0.000415     0.001200     YES
 Predicted change in Energy=-7.892228D-08
 Optimization completed.
    -- Stationary point found.
                           ----------------------------
                           !   Optimized Parameters   !
                           ! (Angstroms and Degrees)  !
 --------------------------                            --------------------------
 ! Name  Definition              Value          Derivative Info.                !
 --------------------------------------------------------------------------------
 ! R1    R(1,2)                  0.9413         -DE/DX =   -0.0001              !
 ! R2    R(1,3)                  0.9413         -DE/DX =   -0.0001              !
 ! A1    A(2,1,3)              106.1738         -DE/DX =    0.0001              !
 --------------------------------------------------------------------------------
 GradGradGradGradGradGradGradGradGradGradGradGradGradGradGradGradGradGrad

 1\1\GINC-TC-NODE166\Freq\RHF\6-311+G(d,p)\H2O1\MAXB2\09-Oct-2016\0\\#N
  Geom=AllCheck Guess=TCheck SCRF=Check GenChk RHF/6-311+G(d,p) Freq\\T
 itle Card Required\\0,1\O,-0.0061573276,0.,-0.0043515689\H,0.021162629
 1,0.,0.9365875654\H,0.8899305296,0.,-0.2926905823\\Version=ES64L-G09Re
 vD.01\State=1-A1\HF=-76.0533051\RMSD=0.000e+00\RMSF=1.040e-04\ZeroPoin
 t=0.0230324\Thermal=0.0258668\Dipole=0.7060615,0.,0.498995\DipoleDeriv
 =-0.4992052,0.,0.0704857,0.,-0.8092452,0.,0.0704857,0.,-0.5491258,0.30
 06191,0.,-0.0781763,0.,0.4046226,0.,-0.0284412,0.,0.2235464,0.1985861,
 0.,0.0076906,0.,0.4046226,0.,-0.0420445,0.,0.3255794\Polar=6.350047,0.
 ,5.4895976,-0.7396923,0.,6.8739245\PolarDeriv=-6.6315643,0.,-0.9552139
 ,0.4866112,0.,-1.4171419,0.,-0.2581154,0.,0.,-0.1824179,0.,0.553473,0.
 ,-0.6750785,-1.5117491,0.,-6.2417361,0.1233887,0.,0.6330433,1.2515146,
 0.,0.3677769,0.,-0.2578778,0.,0.,0.63871,0.,0.5543974,0.,0.1176019,-0.
 0539666,0.,7.2890788,6.5081756,0.,0.3221706,-1.7381258,0.,1.049365,0.,
 0.5159932,0.,0.,-0.4562921,0.,-1.1078704,0.,0.5574766,1.5657157,0.,-1.
 0473427\HyperPolar=14.5010706,0.,-0.1774315,0.,-5.5952319,0.,-0.125396
 2,1.6561854,0.,17.0140515\PG=C02V [C2(O1),SGV(H2)]\NImag=0\\0.62385435
 ,0.,0.00023381,-0.13315927,0.,0.71816269,-0.05442338,0.,-0.05642705,0.
 05304143,0.,-0.00011691,0.,0.,0.00007363,0.00721257,0.,-0.61658514,0.0
 0127780,0.,0.63172596,-0.56943097,0.,0.18958632,0.00138195,0.,-0.00849
 037,0.56804901,0.,-0.00011691,0.,0.,0.00004328,0.,0.,0.00007363,0.1259
 4670,0.,-0.10157755,0.05514925,0.,-0.01514082,-0.18109595,0.,0.1167183
 7\\-0.00020400,0.,-0.00014417,0.00007708,0.,0.00010734,0.00012692,0.,0
 .00003683\\\@


 ACHIEVEMENT--  THE MAN WHO ROWS THE BOAT GENERALLY 
                DOESN'T HAVE TIME TO ROCK IT.

                   -- FROM THE BACK OF A SUGAR PACKET
 Job cpu time:       0 days  0 hours  0 minutes  6.2 seconds.
 File lengths (MBytes):  RWF=      5 Int=      0 D2E=      0 Chk=      2 Scr=      1
 Normal termination of Gaussian 09 at Sun Oct  9 16:41:41 2016.
