 Entering Gaussian System, Link 0=g09
 Initial command:
 /cluster/software/gaussian/gaussian-09-D.01/g09/l1.exe "/local/scratch/maxb2/Gau-1652.inp" -scrdir="/local/scratch/maxb2/"
 Entering Link 1 = /cluster/software/gaussian/gaussian-09-D.01/g09/l1.exe PID=      1653.
  
 Copyright (c) 1988,1990,1992,1993,1995,1998,2003,2009,2013,
            Gaussian, Inc.  All Rights Reserved.
  
 This is part of the Gaussian(R) 09 program.  It is based on
 the Gaussian(R) 03 system (copyright 2003, Gaussian, Inc.),
 the Gaussian(R) 98 system (copyright 1998, Gaussian, Inc.),
 the Gaussian(R) 94 system (copyright 1995, Gaussian, Inc.),
 the Gaussian 92(TM) system (copyright 1992, Gaussian, Inc.),
 the Gaussian 90(TM) system (copyright 1990, Gaussian, Inc.),
 the Gaussian 88(TM) system (copyright 1988, Gaussian, Inc.),
 the Gaussian 86(TM) system (copyright 1986, Carnegie Mellon
 University), and the Gaussian 82(TM) system (copyright 1983,
 Carnegie Mellon University). Gaussian is a federally registered
 trademark of Gaussian, Inc.
  
 This software contains proprietary and confidential information,
 including trade secrets, belonging to Gaussian, Inc.
  
 This software is provided under written license and may be
 used, copied, transmitted, or stored only in accord with that
 written license.
  
 The following legend is applicable only to US Government
 contracts under FAR:
  
                    RESTRICTED RIGHTS LEGEND
  
 Use, reproduction and disclosure by the US Government is
 subject to restrictions as set forth in subparagraphs (a)
 and (c) of the Commercial Computer Software - Restricted
 Rights clause in FAR 52.227-19.
  
 Gaussian, Inc.
 340 Quinnipiac St., Bldg. 40, Wallingford CT 06492
  
  
 ---------------------------------------------------------------
 Warning -- This program may not be used in any manner that
 competes with the business of Gaussian, Inc. or will provide
 assistance to any competitor of Gaussian, Inc.  The licensee
 of this program is prohibited from giving any competitor of
 Gaussian, Inc. access to this program.  By using this program,
 the user acknowledges that Gaussian, Inc. is engaged in the
 business of creating and licensing software in the field of
 computational chemistry and represents and warrants to the
 licensee that it is not a competitor of Gaussian, Inc. and that
 it will not use this program in any manner prohibited above.
 ---------------------------------------------------------------
  

 Cite this work as:
 Gaussian 09, Revision D.01,
 M. J. Frisch, G. W. Trucks, H. B. Schlegel, G. E. Scuseria, 
 M. A. Robb, J. R. Cheeseman, G. Scalmani, V. Barone, B. Mennucci, 
 G. A. Petersson, H. Nakatsuji, M. Caricato, X. Li, H. P. Hratchian, 
 A. F. Izmaylov, J. Bloino, G. Zheng, J. L. Sonnenberg, M. Hada, 
 M. Ehara, K. Toyota, R. Fukuda, J. Hasegawa, M. Ishida, T. Nakajima, 
 Y. Honda, O. Kitao, H. Nakai, T. Vreven, J. A. Montgomery, Jr., 
 J. E. Peralta, F. Ogliaro, M. Bearpark, J. J. Heyd, E. Brothers, 
 K. N. Kudin, V. N. Staroverov, T. Keith, R. Kobayashi, J. Normand, 
 K. Raghavachari, A. Rendell, J. C. Burant, S. S. Iyengar, J. Tomasi, 
 M. Cossi, N. Rega, J. M. Millam, M. Klene, J. E. Knox, J. B. Cross, 
 V. Bakken, C. Adamo, J. Jaramillo, R. Gomperts, R. E. Stratmann, 
 O. Yazyev, A. J. Austin, R. Cammi, C. Pomelli, J. W. Ochterski, 
 R. L. Martin, K. Morokuma, V. G. Zakrzewski, G. A. Voth, 
 P. Salvador, J. J. Dannenberg, S. Dapprich, A. D. Daniels, 
 O. Farkas, J. B. Foresman, J. V. Ortiz, J. Cioslowski, 
 and D. J. Fox, Gaussian, Inc., Wallingford CT, 2013.
 
 ******************************************
 Gaussian 09:  ES64L-G09RevD.01 24-Apr-2013
                 9-Oct-2016 
 ******************************************
 %mem=6GB
 %nprocshared=2
 Will use up to    2 processors via shared memory.
 %chk=H20b3lyp
 --------------------------------------------
 # opt freq b3lyp/6-311+g** geom=connectivity
 --------------------------------------------
 1/14=-1,18=20,19=15,26=3,38=1,57=2/1,3;
 2/9=110,12=2,17=6,18=5,40=1/2;
 3/5=4,6=6,7=111,11=2,16=1,25=1,30=1,71=1,74=-5/1,2,3;
 4//1;
 5/5=2,38=5/2;
 6/7=2,8=2,9=2,10=2,28=1/1;
 7//1,2,3,16;
 1/14=-1,18=20,19=15,26=3/3(2);
 2/9=110/2;
 99//99;
 2/9=110/2;
 3/5=4,6=6,7=111,11=2,16=1,25=1,30=1,71=1,74=-5/1,2,3;
 4/5=5,16=3,69=1/1;
 5/5=2,38=5/2;
 7//1,2,3,16;
 1/14=-1,18=20,19=15,26=3/3(-5);
 2/9=110/2;
 6/7=2,8=2,9=2,10=2,19=2,28=1/1;
 99/9=1/99;
 -------------------
 Title Card Required
 -------------------
 Symbolic Z-matrix:
 Charge =  0 Multiplicity = 1
 O
 H                    1    B1
 H                    1    B2       2    A1
       Variables:
  B1                    0.96                     
  B2                    0.96                     
  A1                  109.5                      
 

 GradGradGradGradGradGradGradGradGradGradGradGradGradGradGradGradGradGrad
 Berny optimization.
 Initialization pass.
                           ----------------------------
                           !    Initial Parameters    !
                           ! (Angstroms and Degrees)  !
 --------------------------                            --------------------------
 ! Name  Definition              Value          Derivative Info.                !
 --------------------------------------------------------------------------------
 ! R1    R(1,2)                  0.96           estimate D2E/DX2                !
 ! R2    R(1,3)                  0.96           estimate D2E/DX2                !
 ! A1    A(2,1,3)              109.5            estimate D2E/DX2                !
 --------------------------------------------------------------------------------
 Trust Radius=3.00D-01 FncErr=1.00D-07 GrdErr=1.00D-06
 Number of steps in this run=     20 maximum allowed number of steps=    100.
 GradGradGradGradGradGradGradGradGradGradGradGradGradGradGradGradGradGrad

                          Input orientation:                          
 ---------------------------------------------------------------------
 Center     Atomic      Atomic             Coordinates (Angstroms)
 Number     Number       Type             X           Y           Z
 ---------------------------------------------------------------------
      1          8           0        0.000000    0.000000    0.000000
      2          1           0        0.000000    0.000000    0.960000
      3          1           0        0.904936    0.000000   -0.320455
 ---------------------------------------------------------------------
                    Distance matrix (angstroms):
                    1          2          3
     1  O    0.000000
     2  H    0.960000   0.000000
     3  H    0.960000   1.567952   0.000000
 Stoichiometry    H2O
 Framework group  C2V[C2(O),SGV(H2)]
 Deg. of freedom     2
 Full point group                 C2V     NOp   4
 Largest Abelian subgroup         C2V     NOp   4
 Largest concise Abelian subgroup C2      NOp   2
                         Standard orientation:                         
 ---------------------------------------------------------------------
 Center     Atomic      Atomic             Coordinates (Angstroms)
 Number     Number       Type             X           Y           Z
 ---------------------------------------------------------------------
      1          8           0        0.000000    0.000000    0.110812
      2          1           0        0.000000    0.783976   -0.443248
      3          1           0        0.000000   -0.783976   -0.443248
 ---------------------------------------------------------------------
 Rotational constants (GHZ):    919.6759594    407.9403273    282.5913750
 Standard basis: 6-311+G(d,p) (5D, 7F)
 There are    17 symmetry adapted cartesian basis functions of A1  symmetry.
 There are     2 symmetry adapted cartesian basis functions of A2  symmetry.
 There are     6 symmetry adapted cartesian basis functions of B1  symmetry.
 There are    10 symmetry adapted cartesian basis functions of B2  symmetry.
 There are    16 symmetry adapted basis functions of A1  symmetry.
 There are     2 symmetry adapted basis functions of A2  symmetry.
 There are     6 symmetry adapted basis functions of B1  symmetry.
 There are    10 symmetry adapted basis functions of B2  symmetry.
    34 basis functions,    52 primitive gaussians,    35 cartesian basis functions
     5 alpha electrons        5 beta electrons
       nuclear repulsion energy         9.1571159853 Hartrees.
 NAtoms=    3 NActive=    3 NUniq=    2 SFac= 2.25D+00 NAtFMM=   60 NAOKFM=F Big=F
 Integral buffers will be    131072 words long.
 Raffenetti 2 integral format.
 Two-electron integral symmetry is turned on.
 One-electron integrals computed using PRISM.
 NBasis=    34 RedAO= T EigKep=  5.44D-03  NBF=    16     2     6    10
 NBsUse=    34 1.00D-06 EigRej= -1.00D+00 NBFU=    16     2     6    10
 ExpMin= 8.45D-02 ExpMax= 8.59D+03 ExpMxC= 1.30D+03 IAcc=2 IRadAn=         4 AccDes= 0.00D+00
 Harris functional with IExCor=  402 and IRadAn=       4 diagonalized for initial guess.
 HarFok:  IExCor=  402 AccDes= 0.00D+00 IRadAn=         4 IDoV= 1 UseB2=F ITyADJ=14
 ICtDFT=  3500011 ScaDFX=  1.000000  1.000000  1.000000  1.000000
 FoFCou: FMM=F IPFlag=           0 FMFlag=      100000 FMFlg1=           0
         NFxFlg=           0 DoJE=T BraDBF=F KetDBF=T FulRan=T
         wScrn=  0.000000 ICntrl=     500 IOpCl=  0 I1Cent=   200000004 NGrid=           0
         NMat0=    1 NMatS0=      1 NMatT0=    0 NMatD0=    1 NMtDS0=    0 NMtDT0=    0
 Petite list used in FoFCou.
 Initial guess orbital symmetries:
       Occupied  (A1) (A1) (B2) (A1) (B1)
       Virtual   (A1) (B2) (A1) (B1) (B2) (A1) (B2) (A1) (B2) (A1)
                 (B1) (A1) (A2) (A1) (B1) (B2) (B2) (A1) (A1) (B2)
                 (B1) (A2) (A1) (A1) (B2) (B1) (A1) (B2) (A1)
 The electronic state of the initial guess is 1-A1.
 Keep R1 ints in memory in symmetry-blocked form, NReq=1062515.
 Requested convergence on RMS density matrix=1.00D-08 within 128 cycles.
 Requested convergence on MAX density matrix=1.00D-06.
 Requested convergence on             energy=1.00D-06.
 No special actions if energy rises.
 Integral accuracy reduced to 1.0D-05 until final iterations.
 Initial convergence to 1.0D-05 achieved.  Increase integral accuracy.
 SCF Done:  E(RB3LYP) =  -76.4580254568     A.U. after   10 cycles
            NFock= 10  Conv=0.26D-08     -V/T= 2.0030

 **********************************************************************

            Population analysis using the SCF density.

 **********************************************************************

 Orbital symmetries:
       Occupied  (A1) (A1) (B2) (A1) (B1)
       Virtual   (A1) (B2) (A1) (B1) (B2) (A1) (A1) (B2) (B2) (A1)
                 (B1) (A1) (A2) (A1) (B1) (B2) (B2) (A1) (A1) (B2)
                 (B1) (A2) (A1) (A1) (B2) (B1) (A1) (B2) (A1)
 The electronic state is 1-A1.
 Alpha  occ. eigenvalues --  -19.13118  -1.02109  -0.55185  -0.38881  -0.32230
 Alpha virt. eigenvalues --    0.02012   0.09574   0.15112   0.15134   0.17777
 Alpha virt. eigenvalues --    0.19986   0.48187   0.48277   0.93385   0.94751
 Alpha virt. eigenvalues --    0.99343   1.22107   1.23772   1.35047   1.48231
 Alpha virt. eigenvalues --    1.62914   1.97883   2.07237   2.37345   2.52364
 Alpha virt. eigenvalues --    3.06675   3.15338   3.29266   3.69694   3.83129
 Alpha virt. eigenvalues --    4.92259   5.27010   5.64043  49.83915
          Condensed to atoms (all electrons):
               1          2          3
     1  O    7.875142   0.323908   0.323908
     2  H    0.323908   0.437863  -0.023249
     3  H    0.323908  -0.023249   0.437863
 Mulliken charges:
               1
     1  O   -0.522957
     2  H    0.261478
     3  H    0.261478
 Sum of Mulliken charges =   0.00000
 Mulliken charges with hydrogens summed into heavy atoms:
               1
     1  O    0.000000
 Electronic spatial extent (au):  <R**2>=             20.0733
 Charge=              0.0000 electrons
 Dipole moment (field-independent basis, Debye):
    X=              0.0000    Y=              0.0000    Z=             -2.0935  Tot=              2.0935
 Quadrupole moment (field-independent basis, Debye-Ang):
   XX=             -7.8121   YY=             -4.2498   ZZ=             -6.6740
   XY=              0.0000   XZ=              0.0000   YZ=              0.0000
 Traceless Quadrupole moment (field-independent basis, Debye-Ang):
   XX=             -1.5668   YY=              1.9955   ZZ=             -0.4287
   XY=              0.0000   XZ=              0.0000   YZ=              0.0000
 Octapole moment (field-independent basis, Debye-Ang**2):
  XXX=              0.0000  YYY=              0.0000  ZZZ=             -1.4457  XYY=              0.0000
  XXY=              0.0000  XXZ=             -0.4362  XZZ=              0.0000  YZZ=              0.0000
  YYZ=             -1.3637  XYZ=              0.0000
 Hexadecapole moment (field-independent basis, Debye-Ang**3):
 XXXX=             -7.7023 YYYY=             -6.3900 ZZZZ=             -8.1085 XXXY=              0.0000
 XXXZ=              0.0000 YYYX=              0.0000 YYYZ=              0.0000 ZZZX=              0.0000
 ZZZY=              0.0000 XXYY=             -2.6851 XXZZ=             -2.6794 YYZZ=             -2.1595
 XXYZ=              0.0000 YYXZ=              0.0000 ZZXY=              0.0000
 N-N= 9.157115985290D+00 E-N=-1.992034920860D+02  KE= 7.622622760889D+01
 Symmetry A1   KE= 6.803827803787D+01
 Symmetry A2   KE= 7.071005165011D-35
 Symmetry B1   KE= 4.530924369478D+00
 Symmetry B2   KE= 3.657025201548D+00
 Calling FoFJK, ICntrl=      2127 FMM=F ISym2X=1 I1Cent= 0 IOpClX= 0 NMat=1 NMatS=1 NMatT=0.
 ***** Axes restored to original set *****
 -------------------------------------------------------------------
 Center     Atomic                   Forces (Hartrees/Bohr)
 Number     Number              X              Y              Z
 -------------------------------------------------------------------
      1        8          -0.008115227    0.000000000   -0.005735275
      2        1           0.006131699    0.000000000   -0.000067125
      3        1           0.001983529    0.000000000    0.005802400
 -------------------------------------------------------------------
 Cartesian Forces:  Max     0.008115227 RMS     0.004396397

 GradGradGradGradGradGradGradGradGradGradGradGradGradGradGradGradGradGrad
 Berny optimization.
 FormGI is forming the generalized inverse of G from B-inverse, IUseBI=4.
 Internal  Forces:  Max     0.011123742 RMS     0.006422529
 Search for a local minimum.
 Step number   1 out of a maximum of   20
 All quantities printed in internal units (Hartrees-Bohrs-Radians)
 Mixed Optimization -- RFO/linear search
 Second derivative matrix not updated -- first step.
 The second derivative matrix:
                          R1        R2        A1
           R1           0.55473
           R2           0.00000   0.55473
           A1           0.00000   0.00000   0.16000
 ITU=  0
     Eigenvalues ---    0.16000   0.55473   0.55473
 RFO step:  Lambda=-7.69674103D-04 EMin= 1.60000000D-01
 Linear search not attempted -- first point.
 Iteration  1 RMS(Cart)=  0.03822709 RMS(Int)=  0.00088619
 Iteration  2 RMS(Cart)=  0.00077878 RMS(Int)=  0.00000001
 Iteration  3 RMS(Cart)=  0.00000001 RMS(Int)=  0.00000000
 ClnCor:  largest displacement from symmetrization is 1.59D-15 for atom     3.
 Variable       Old X    -DE/DX   Delta X   Delta X   Delta X     New X
                                 (Linear)    (Quad)   (Total)
    R1        1.81414  -0.00007   0.00000  -0.00012  -0.00012   1.81402
    R2        1.81414  -0.00007   0.00000  -0.00012  -0.00012   1.81402
    A1        1.91114  -0.01112   0.00000  -0.06919  -0.06919   1.84194
         Item               Value     Threshold  Converged?
 Maximum Force            0.011124     0.000450     NO 
 RMS     Force            0.006423     0.000300     NO 
 Maximum Displacement     0.040101     0.001800     NO 
 RMS     Displacement     0.038602     0.001200     NO 
 Predicted change in Energy=-3.866794D-04
 GradGradGradGradGradGradGradGradGradGradGradGradGradGradGradGradGradGrad

                          Input orientation:                          
 ---------------------------------------------------------------------
 Center     Atomic      Atomic             Coordinates (Angstroms)
 Number     Number       Type             X           Y           Z
 ---------------------------------------------------------------------
      1          8           0       -0.014561    0.000000   -0.010291
      2          1           0        0.018641    0.000000    0.949071
      3          1           0        0.900856    0.000000   -0.299234
 ---------------------------------------------------------------------
                    Distance matrix (angstroms):
                    1          2          3
     1  O    0.000000
     2  H    0.959936   0.000000
     3  H    0.959936   1.528584   0.000000
 Stoichiometry    H2O
 Framework group  C2V[C2(O),SGV(H2)]
 Deg. of freedom     2
 Full point group                 C2V     NOp   4
 Largest Abelian subgroup         C2V     NOp   4
 Largest concise Abelian subgroup C2      NOp   2
                         Standard orientation:                         
 ---------------------------------------------------------------------
 Center     Atomic      Atomic             Coordinates (Angstroms)
 Number     Number       Type             X           Y           Z
 ---------------------------------------------------------------------
      1          8           0        0.000000    0.000000    0.116161
      2          1           0        0.000000    0.764292   -0.464644
      3          1           0        0.000000   -0.764292   -0.464644
 ---------------------------------------------------------------------
 Rotational constants (GHZ):    836.9236527    429.2235828    283.7169001
 Standard basis: 6-311+G(d,p) (5D, 7F)
 There are    17 symmetry adapted cartesian basis functions of A1  symmetry.
 There are     2 symmetry adapted cartesian basis functions of A2  symmetry.
 There are     6 symmetry adapted cartesian basis functions of B1  symmetry.
 There are    10 symmetry adapted cartesian basis functions of B2  symmetry.
 There are    16 symmetry adapted basis functions of A1  symmetry.
 There are     2 symmetry adapted basis functions of A2  symmetry.
 There are     6 symmetry adapted basis functions of B1  symmetry.
 There are    10 symmetry adapted basis functions of B2  symmetry.
    34 basis functions,    52 primitive gaussians,    35 cartesian basis functions
     5 alpha electrons        5 beta electrons
       nuclear repulsion energy         9.1663955463 Hartrees.
 NAtoms=    3 NActive=    3 NUniq=    2 SFac= 2.25D+00 NAtFMM=   60 NAOKFM=F Big=F
 Integral buffers will be    131072 words long.
 Raffenetti 2 integral format.
 Two-electron integral symmetry is turned on.
 One-electron integrals computed using PRISM.
 NBasis=    34 RedAO= T EigKep=  5.06D-03  NBF=    16     2     6    10
 NBsUse=    34 1.00D-06 EigRej= -1.00D+00 NBFU=    16     2     6    10
 Initial guess from the checkpoint file:  "H20b3lyp.chk"
 B after Tr=     0.000000    0.000000    0.000000
         Rot=    1.000000    0.000000    0.000000    0.000000 Ang=   0.00 deg.
 Initial guess orbital symmetries:
       Occupied  (A1) (A1) (B2) (A1) (B1)
       Virtual   (A1) (A1) (A1) (A1) (A1) (A1) (A1) (A1) (A1) (A1)
                 (A1) (A1) (A1) (A2) (A2) (B1) (B1) (B1) (B1) (B1)
                 (B2) (B2) (B2) (B2) (B2) (B2) (B2) (B2) (B2)
 ExpMin= 8.45D-02 ExpMax= 8.59D+03 ExpMxC= 1.30D+03 IAcc=2 IRadAn=         4 AccDes= 0.00D+00
 Harris functional with IExCor=  402 and IRadAn=       4 diagonalized for initial guess.
 HarFok:  IExCor=  402 AccDes= 0.00D+00 IRadAn=         4 IDoV= 1 UseB2=F ITyADJ=14
 ICtDFT=  3500011 ScaDFX=  1.000000  1.000000  1.000000  1.000000
 FoFCou: FMM=F IPFlag=           0 FMFlag=      100000 FMFlg1=           0
         NFxFlg=           0 DoJE=T BraDBF=F KetDBF=T FulRan=T
         wScrn=  0.000000 ICntrl=     500 IOpCl=  0 I1Cent=   200000004 NGrid=           0
         NMat0=    1 NMatS0=      1 NMatT0=    0 NMatD0=    1 NMtDS0=    0 NMtDT0=    0
 Petite list used in FoFCou.
 Keep R1 ints in memory in symmetry-blocked form, NReq=1062515.
 Requested convergence on RMS density matrix=1.00D-08 within 128 cycles.
 Requested convergence on MAX density matrix=1.00D-06.
 Requested convergence on             energy=1.00D-06.
 No special actions if energy rises.
 Integral accuracy reduced to 1.0D-05 until final iterations.
 Initial convergence to 1.0D-05 achieved.  Increase integral accuracy.
 SCF Done:  E(RB3LYP) =  -76.4584507594     A.U. after    8 cycles
            NFock=  8  Conv=0.35D-08     -V/T= 2.0029
 Calling FoFJK, ICntrl=      2127 FMM=F ISym2X=1 I1Cent= 0 IOpClX= 0 NMat=1 NMatS=1 NMatT=0.
 ***** Axes restored to original set *****
 -------------------------------------------------------------------
 Center     Atomic                   Forces (Hartrees/Bohr)
 Number     Number              X              Y              Z
 -------------------------------------------------------------------
      1        8          -0.002635951    0.000000000   -0.001862906
      2        1           0.000634919    0.000000000    0.001897956
      3        1           0.002001032    0.000000000   -0.000035049
 -------------------------------------------------------------------
 Cartesian Forces:  Max     0.002635951 RMS     0.001430982

 GradGradGradGradGradGradGradGradGradGradGradGradGradGradGradGradGradGrad
 Berny optimization.
 Using GEDIIS/GDIIS optimizer.
 FormGI is forming the generalized inverse of G from B-inverse, IUseBI=4.
 Internal  Forces:  Max     0.001918781 RMS     0.001676148
 Search for a local minimum.
 Step number   2 out of a maximum of   20
 All quantities printed in internal units (Hartrees-Bohrs-Radians)
 Mixed Optimization -- RFO/linear search
 Update second derivatives using D2CorX and points    1    2
 DE= -4.25D-04 DEPred=-3.87D-04 R= 1.10D+00
 TightC=F SS=  1.41D+00  RLast= 6.92D-02 DXNew= 5.0454D-01 2.0757D-01
 Trust test= 1.10D+00 RLast= 6.92D-02 DXMaxT set to 3.00D-01
 The second derivative matrix:
                          R1        R2        A1
           R1           0.56037
           R2           0.00564   0.56037
           A1           0.02771   0.02771   0.14576
 ITU=  1  0
 Use linear search instead of GDIIS.
     Eigenvalues ---    0.14213   0.55473   0.56963
 RFO step:  Lambda=-1.60721396D-05 EMin= 1.42133970D-01
 Quartic linear search produced a step of  0.09693.
 Iteration  1 RMS(Cart)=  0.00405878 RMS(Int)=  0.00001590
 Iteration  2 RMS(Cart)=  0.00001767 RMS(Int)=  0.00000000
 Iteration  3 RMS(Cart)=  0.00000000 RMS(Int)=  0.00000000
 ClnCor:  largest displacement from symmetrization is 1.86D-15 for atom     3.
 Variable       Old X    -DE/DX   Delta X   Delta X   Delta X     New X
                                 (Linear)    (Quad)   (Total)
    R1        1.81402   0.00192  -0.00001   0.00380   0.00379   1.81781
    R2        1.81402   0.00192  -0.00001   0.00380   0.00379   1.81781
    A1        1.84194  -0.00103  -0.00671  -0.00150  -0.00820   1.83374
         Item               Value     Threshold  Converged?
 Maximum Force            0.001919     0.000450     NO 
 RMS     Force            0.001676     0.000300     NO 
 Maximum Displacement     0.004476     0.001800     NO 
 RMS     Displacement     0.004065     0.001200     NO 
 Predicted change in Energy=-1.169868D-05
 GradGradGradGradGradGradGradGradGradGradGradGradGradGradGradGradGradGrad

                          Input orientation:                          
 ---------------------------------------------------------------------
 Center     Atomic      Atomic             Coordinates (Angstroms)
 Number     Number       Type             X           Y           Z
 ---------------------------------------------------------------------
      1          8           0       -0.016930    0.000000   -0.011965
      2          1           0        0.020285    0.000000    0.949258
      3          1           0        0.901581    0.000000   -0.297747
 ---------------------------------------------------------------------
                    Distance matrix (angstroms):
                    1          2          3
     1  O    0.000000
     2  H    0.961943   0.000000
     3  H    0.961943   1.526992   0.000000
 Stoichiometry    H2O
 Framework group  C2V[C2(O),SGV(H2)]
 Deg. of freedom     2
 Full point group                 C2V     NOp   4
 Largest Abelian subgroup         C2V     NOp   4
 Largest concise Abelian subgroup C2      NOp   2
                         Standard orientation:                         
 ---------------------------------------------------------------------
 Center     Atomic      Atomic             Coordinates (Angstroms)
 Number     Number       Type             X           Y           Z
 ---------------------------------------------------------------------
      1          8           0        0.000000    0.000000    0.117031
      2          1           0        0.000000    0.763496   -0.468125
      3          1           0        0.000000   -0.763496   -0.468125
 ---------------------------------------------------------------------
 Rotational constants (GHZ):    824.5254373    430.1191291    282.6650452
 Standard basis: 6-311+G(d,p) (5D, 7F)
 There are    17 symmetry adapted cartesian basis functions of A1  symmetry.
 There are     2 symmetry adapted cartesian basis functions of A2  symmetry.
 There are     6 symmetry adapted cartesian basis functions of B1  symmetry.
 There are    10 symmetry adapted cartesian basis functions of B2  symmetry.
 There are    16 symmetry adapted basis functions of A1  symmetry.
 There are     2 symmetry adapted basis functions of A2  symmetry.
 There are     6 symmetry adapted basis functions of B1  symmetry.
 There are    10 symmetry adapted basis functions of B2  symmetry.
    34 basis functions,    52 primitive gaussians,    35 cartesian basis functions
     5 alpha electrons        5 beta electrons
       nuclear repulsion energy         9.1483588075 Hartrees.
 NAtoms=    3 NActive=    3 NUniq=    2 SFac= 2.25D+00 NAtFMM=   60 NAOKFM=F Big=F
 Integral buffers will be    131072 words long.
 Raffenetti 2 integral format.
 Two-electron integral symmetry is turned on.
 One-electron integrals computed using PRISM.
 NBasis=    34 RedAO= T EigKep=  5.06D-03  NBF=    16     2     6    10
 NBsUse=    34 1.00D-06 EigRej= -1.00D+00 NBFU=    16     2     6    10
 Initial guess from the checkpoint file:  "H20b3lyp.chk"
 B after Tr=     0.000000    0.000000    0.000000
         Rot=    1.000000    0.000000    0.000000    0.000000 Ang=   0.00 deg.
 Initial guess orbital symmetries:
       Occupied  (A1) (A1) (B2) (A1) (B1)
       Virtual   (A1) (A1) (A1) (A1) (A1) (A1) (A1) (A1) (A1) (A1)
                 (A1) (A1) (A1) (A2) (A2) (B1) (B1) (B1) (B1) (B1)
                 (B2) (B2) (B2) (B2) (B2) (B2) (B2) (B2) (B2)
 Keep R1 ints in memory in symmetry-blocked form, NReq=1062515.
 Requested convergence on RMS density matrix=1.00D-08 within 128 cycles.
 Requested convergence on MAX density matrix=1.00D-06.
 Requested convergence on             energy=1.00D-06.
 No special actions if energy rises.
 SCF Done:  E(RB3LYP) =  -76.4584627159     A.U. after    6 cycles
            NFock=  6  Conv=0.99D-08     -V/T= 2.0030
 Calling FoFJK, ICntrl=      2127 FMM=F ISym2X=1 I1Cent= 0 IOpClX= 0 NMat=1 NMatS=1 NMatT=0.
 ***** Axes restored to original set *****
 -------------------------------------------------------------------
 Center     Atomic                   Forces (Hartrees/Bohr)
 Number     Number              X              Y              Z
 -------------------------------------------------------------------
      1        8          -0.000120610    0.000000000   -0.000085239
      2        1           0.000004621    0.000000000    0.000121411
      3        1           0.000115989    0.000000000   -0.000036172
 -------------------------------------------------------------------
 Cartesian Forces:  Max     0.000121411 RMS     0.000075525

 GradGradGradGradGradGradGradGradGradGradGradGradGradGradGradGradGradGrad
 Berny optimization.
 Using GEDIIS/GDIIS optimizer.
 FormGI is forming the generalized inverse of G from B-inverse, IUseBI=4.
 Internal  Forces:  Max     0.000121499 RMS     0.000099203
 Search for a local minimum.
 Step number   3 out of a maximum of   20
 All quantities printed in internal units (Hartrees-Bohrs-Radians)
 Mixed Optimization -- En-DIIS/RFO-DIIS
 Update second derivatives using D2CorX and points    1    2    3
 DE= -1.20D-05 DEPred=-1.17D-05 R= 1.02D+00
 TightC=F SS=  1.41D+00  RLast= 9.80D-03 DXNew= 5.0454D-01 2.9401D-02
 Trust test= 1.02D+00 RLast= 9.80D-03 DXMaxT set to 3.00D-01
 The second derivative matrix:
                          R1        R2        A1
           R1           0.54505
           R2          -0.00968   0.54505
           A1           0.02837   0.02837   0.15204
 ITU=  1  1  0
 Use linear search instead of GDIIS.
     Eigenvalues ---    0.14789   0.53953   0.55473
 RFO step:  Lambda=-1.78146014D-08 EMin= 1.47891366D-01
 Quartic linear search produced a step of  0.04178.
 Iteration  1 RMS(Cart)=  0.00014671 RMS(Int)=  0.00000001
 Iteration  2 RMS(Cart)=  0.00000001 RMS(Int)=  0.00000000
 ClnCor:  largest displacement from symmetrization is 3.76D-15 for atom     3.
 Variable       Old X    -DE/DX   Delta X   Delta X   Delta X     New X
                                 (Linear)    (Quad)   (Total)
    R1        1.81781   0.00012   0.00016   0.00007   0.00023   1.81804
    R2        1.81781   0.00012   0.00016   0.00007   0.00023   1.81804
    A1        1.83374   0.00000  -0.00034   0.00026  -0.00009   1.83365
         Item               Value     Threshold  Converged?
 Maximum Force            0.000121     0.000450     YES
 RMS     Force            0.000099     0.000300     YES
 Maximum Displacement     0.000150     0.001800     YES
 RMS     Displacement     0.000147     0.001200     YES
 Predicted change in Energy=-2.811651D-08
 Optimization completed.
    -- Stationary point found.
                           ----------------------------
                           !   Optimized Parameters   !
                           ! (Angstroms and Degrees)  !
 --------------------------                            --------------------------
 ! Name  Definition              Value          Derivative Info.                !
 --------------------------------------------------------------------------------
 ! R1    R(1,2)                  0.9619         -DE/DX =    0.0001              !
 ! R2    R(1,3)                  0.9619         -DE/DX =    0.0001              !
 ! A1    A(2,1,3)              105.0657         -DE/DX =    0.0                 !
 --------------------------------------------------------------------------------
 GradGradGradGradGradGradGradGradGradGradGradGradGradGradGradGradGradGrad

                          Input orientation:                          
 ---------------------------------------------------------------------
 Center     Atomic      Atomic             Coordinates (Angstroms)
 Number     Number       Type             X           Y           Z
 ---------------------------------------------------------------------
      1          8           0       -0.016930    0.000000   -0.011965
      2          1           0        0.020285    0.000000    0.949258
      3          1           0        0.901581    0.000000   -0.297747
 ---------------------------------------------------------------------
                    Distance matrix (angstroms):
                    1          2          3
     1  O    0.000000
     2  H    0.961943   0.000000
     3  H    0.961943   1.526992   0.000000
 Stoichiometry    H2O
 Framework group  C2V[C2(O),SGV(H2)]
 Deg. of freedom     2
 Full point group                 C2V     NOp   4
 Largest Abelian subgroup         C2V     NOp   4
 Largest concise Abelian subgroup C2      NOp   2
                         Standard orientation:                         
 ---------------------------------------------------------------------
 Center     Atomic      Atomic             Coordinates (Angstroms)
 Number     Number       Type             X           Y           Z
 ---------------------------------------------------------------------
      1          8           0        0.000000    0.000000    0.117031
      2          1           0        0.000000    0.763496   -0.468125
      3          1           0        0.000000   -0.763496   -0.468125
 ---------------------------------------------------------------------
 Rotational constants (GHZ):    824.5254373    430.1191291    282.6650452

 **********************************************************************

            Population analysis using the SCF density.

 **********************************************************************

 Orbital symmetries:
       Occupied  (A1) (A1) (B2) (A1) (B1)
       Virtual   (A1) (B2) (B1) (A1) (B2) (A1) (B2) (A1) (B2) (A1)
                 (B1) (A1) (A2) (A1) (B1) (B2) (B2) (A1) (A1) (B2)
                 (B1) (A2) (A1) (A1) (B2) (B1) (A1) (B2) (A1)
 The electronic state is 1-A1.
 Alpha  occ. eigenvalues --  -19.13320  -1.02331  -0.54332  -0.39682  -0.32301
 Alpha virt. eigenvalues --    0.01912   0.09532   0.15126   0.15200   0.17637
 Alpha virt. eigenvalues --    0.20475   0.47334   0.48818   0.93841   0.94916
 Alpha virt. eigenvalues --    0.99292   1.20700   1.25025   1.30897   1.45958
 Alpha virt. eigenvalues --    1.65822   1.95565   2.07985   2.35010   2.53842
 Alpha virt. eigenvalues --    3.08721   3.13616   3.30298   3.66430   3.85510
 Alpha virt. eigenvalues --    4.92140   5.29604   5.60342  49.83489
          Condensed to atoms (all electrons):
               1          2          3
     1  O    7.875445   0.315149   0.315149
     2  H    0.315149   0.453787  -0.021807
     3  H    0.315149  -0.021807   0.453787
 Mulliken charges:
               1
     1  O   -0.505742
     2  H    0.252871
     3  H    0.252871
 Sum of Mulliken charges =   0.00000
 Mulliken charges with hydrogens summed into heavy atoms:
               1
     1  O    0.000000
 Electronic spatial extent (au):  <R**2>=             20.0860
 Charge=              0.0000 electrons
 Dipole moment (field-independent basis, Debye):
    X=              0.0000    Y=              0.0000    Z=             -2.1608  Tot=              2.1608
 Quadrupole moment (field-independent basis, Debye-Ang):
   XX=             -7.8051   YY=             -4.4383   ZZ=             -6.5416
   XY=              0.0000   XZ=              0.0000   YZ=              0.0000
 Traceless Quadrupole moment (field-independent basis, Debye-Ang):
   XX=             -1.5434   YY=              1.8234   ZZ=             -0.2799
   XY=              0.0000   XZ=              0.0000   YZ=              0.0000
 Octapole moment (field-independent basis, Debye-Ang**2):
  XXX=              0.0000  YYY=              0.0000  ZZZ=             -1.5181  XYY=              0.0000
  XXY=              0.0000  XXZ=             -0.4530  XZZ=              0.0000  YZZ=              0.0000
  YYZ=             -1.3554  XYZ=              0.0000
 Hexadecapole moment (field-independent basis, Debye-Ang**3):
 XXXX=             -7.6740 YYYY=             -6.5590 ZZZZ=             -8.1114 XXXY=              0.0000
 XXXZ=              0.0000 YYYX=              0.0000 YYYZ=              0.0000 ZZZX=              0.0000
 ZZZY=              0.0000 XXYY=             -2.6692 XXZZ=             -2.6854 YYZZ=             -2.1284
 XXYZ=              0.0000 YYXZ=              0.0000 ZZXY=              0.0000
 N-N= 9.148358807549D+00 E-N=-1.991805855418D+02  KE= 7.622825813947D+01
 Symmetry A1   KE= 6.802264531751D+01
 Symmetry A2   KE= 2.696408652138D-35
 Symmetry B1   KE= 4.535930618709D+00
 Symmetry B2   KE= 3.669682203253D+00
 B after Tr=     0.022395    0.000000    0.015827
         Rot=    1.000000    0.000000    0.000000    0.000000 Ang=   0.00 deg.
 Final structure in terms of initial Z-matrix:
 O
 H,1,B1
 H,1,B2,2,A1
      Variables:
 B1=0.96194253
 B2=0.96194253
 A1=105.06567168
 1\1\GINC-TC-NODE166\FOpt\RB3LYP\6-311+G(d,p)\H2O1\MAXB2\09-Oct-2016\0\
 \# opt freq b3lyp/6-311+g** geom=connectivity\\Title Card Required\\0,
 1\O,-0.0169298886,0.,-0.0119648623\H,0.0202849343,0.,0.9492575321\H,0.
 9015807854,0.,-0.2977472557\\Version=ES64L-G09RevD.01\State=1-A1\HF=-7
 6.4584627\RMSD=9.863e-09\RMSF=7.553e-05\Dipole=0.6942602,0.,0.4906546\
 Quadrupole=0.3127584,-1.1475106,0.8347522,0.,-0.7370325,0.\PG=C02V [C2
 (O1),SGV(H2)]\\@


 THE RED LIGHT IS ALWAYS LONGER THAN THE GREEN LIGHT.

                     -- PETER'S THEORY OF RELATIVITY
 Job cpu time:       0 days  0 hours  0 minutes  8.7 seconds.
 File lengths (MBytes):  RWF=      5 Int=      0 D2E=      0 Chk=      2 Scr=      1
 Normal termination of Gaussian 09 at Sun Oct  9 16:41:17 2016.
 Link1:  Proceeding to internal job step number  2.
 ----------------------------------------------------------------------
 #N Geom=AllCheck Guess=TCheck SCRF=Check GenChk RB3LYP/6-311+G(d,p) Fr
 eq
 ----------------------------------------------------------------------
 1/10=4,29=7,30=1,38=1,40=1/1,3;
 2/12=2,40=1/2;
 3/5=4,6=6,7=111,11=2,14=-4,16=1,25=1,30=1,70=2,71=2,74=-5,116=1,140=1/1,2,3;
 4/5=101/1;
 5/5=2,98=1/2;
 8/6=4,10=90,11=11/1;
 11/6=1,8=1,9=11,15=111,16=1/1,2,10;
 10/6=1/2;
 6/7=2,8=2,9=2,10=2,18=1,28=1/1;
 7/8=1,10=1,25=1/1,2,3,16;
 1/10=4,30=1/3;
 99//99;
 Structure from the checkpoint file:  "H20b3lyp.chk"
 -------------------
 Title Card Required
 -------------------
 Charge =  0 Multiplicity = 1
 Redundant internal coordinates found in file.
 O,0,-0.0169298886,0.,-0.0119648623
 H,0,0.0202849343,0.,0.9492575321
 H,0,0.9015807854,0.,-0.2977472557
 Recover connectivity data from disk.

 GradGradGradGradGradGradGradGradGradGradGradGradGradGradGradGradGradGrad
 Berny optimization.
 Initialization pass.
                           ----------------------------
                           !    Initial Parameters    !
                           ! (Angstroms and Degrees)  !
 --------------------------                            --------------------------
 ! Name  Definition              Value          Derivative Info.                !
 --------------------------------------------------------------------------------
 ! R1    R(1,2)                  0.9619         calculate D2E/DX2 analytically  !
 ! R2    R(1,3)                  0.9619         calculate D2E/DX2 analytically  !
 ! A1    A(2,1,3)              105.0657         calculate D2E/DX2 analytically  !
 --------------------------------------------------------------------------------
 Trust Radius=3.00D-01 FncErr=1.00D-07 GrdErr=1.00D-07
 Number of steps in this run=      2 maximum allowed number of steps=      2.
 GradGradGradGradGradGradGradGradGradGradGradGradGradGradGradGradGradGrad

                          Input orientation:                          
 ---------------------------------------------------------------------
 Center     Atomic      Atomic             Coordinates (Angstroms)
 Number     Number       Type             X           Y           Z
 ---------------------------------------------------------------------
      1          8           0       -0.016930    0.000000   -0.011965
      2          1           0        0.020285    0.000000    0.949258
      3          1           0        0.901581    0.000000   -0.297747
 ---------------------------------------------------------------------
                    Distance matrix (angstroms):
                    1          2          3
     1  O    0.000000
     2  H    0.961943   0.000000
     3  H    0.961943   1.526992   0.000000
 Stoichiometry    H2O
 Framework group  C2V[C2(O),SGV(H2)]
 Deg. of freedom     2
 Full point group                 C2V     NOp   4
 Largest Abelian subgroup         C2V     NOp   4
 Largest concise Abelian subgroup C2      NOp   2
                         Standard orientation:                         
 ---------------------------------------------------------------------
 Center     Atomic      Atomic             Coordinates (Angstroms)
 Number     Number       Type             X           Y           Z
 ---------------------------------------------------------------------
      1          8           0        0.000000    0.000000    0.117031
      2          1           0        0.000000    0.763496   -0.468125
      3          1           0        0.000000   -0.763496   -0.468125
 ---------------------------------------------------------------------
 Rotational constants (GHZ):    824.5254373    430.1191291    282.6650452
 Standard basis: 6-311+G(d,p) (5D, 7F)
 There are    17 symmetry adapted cartesian basis functions of A1  symmetry.
 There are     2 symmetry adapted cartesian basis functions of A2  symmetry.
 There are     6 symmetry adapted cartesian basis functions of B1  symmetry.
 There are    10 symmetry adapted cartesian basis functions of B2  symmetry.
 There are    16 symmetry adapted basis functions of A1  symmetry.
 There are     2 symmetry adapted basis functions of A2  symmetry.
 There are     6 symmetry adapted basis functions of B1  symmetry.
 There are    10 symmetry adapted basis functions of B2  symmetry.
    34 basis functions,    52 primitive gaussians,    35 cartesian basis functions
     5 alpha electrons        5 beta electrons
       nuclear repulsion energy         9.1483588075 Hartrees.
 NAtoms=    3 NActive=    3 NUniq=    2 SFac= 2.25D+00 NAtFMM=   60 NAOKFM=F Big=F
 Integral buffers will be    131072 words long.
 Raffenetti 2 integral format.
 Two-electron integral symmetry is turned on.
 One-electron integrals computed using PRISM.
 NBasis=    34 RedAO= T EigKep=  5.06D-03  NBF=    16     2     6    10
 NBsUse=    34 1.00D-06 EigRej= -1.00D+00 NBFU=    16     2     6    10
 Initial guess from the checkpoint file:  "H20b3lyp.chk"
 B after Tr=     0.000000    0.000000    0.000000
         Rot=    1.000000    0.000000    0.000000    0.000000 Ang=   0.00 deg.
 Initial guess orbital symmetries:
       Occupied  (A1) (A1) (B2) (A1) (B1)
       Virtual   (A1) (B2) (B1) (A1) (B2) (A1) (B2) (A1) (B2) (A1)
                 (B1) (A1) (A2) (A1) (B1) (B2) (B2) (A1) (A1) (B2)
                 (B1) (A2) (A1) (A1) (B2) (B1) (A1) (B2) (A1)
 Keep R1 ints in memory in symmetry-blocked form, NReq=1062515.
 Requested convergence on RMS density matrix=1.00D-08 within 128 cycles.
 Requested convergence on MAX density matrix=1.00D-06.
 Requested convergence on             energy=1.00D-06.
 No special actions if energy rises.
 SCF Done:  E(RB3LYP) =  -76.4584627159     A.U. after    1 cycles
            NFock=  1  Conv=0.89D-09     -V/T= 2.0030
 DoSCS=F DFT=T ScalE2(SS,OS)=  1.000000  1.000000
 Range of M.O.s used for correlation:     1    34
 NBasis=    34 NAE=     5 NBE=     5 NFC=     0 NFV=     0
 NROrb=     34 NOA=     5 NOB=     5 NVA=    29 NVB=    29
 Symmetrizing basis deriv contribution to polar:
 IMax=3 JMax=2 DiffMx= 0.00D+00
 G2DrvN: will do     4 centers at a time, making    1 passes.
 Calling FoFCou, ICntrl=  3107 FMM=F I1Cent=   0 AccDes= 0.00D+00.
 End of G2Drv F.D. properties file   721 does not exist.
 End of G2Drv F.D. properties file   722 does not exist.
 End of G2Drv F.D. properties file   788 does not exist.
          IDoAtm=111
          Differentiating once with respect to electric field.
                with respect to dipole field.
          Differentiating once with respect to nuclear coordinates.
 Keep R1 ints in memory in symmetry-blocked form, NReq=1039331.
          There are     9 degrees of freedom in the 1st order CPHF.  IDoFFX=4 NUNeed=     9.
      9 vectors produced by pass  0 Test12= 1.61D-15 1.11D-08 XBig12= 3.77D+00 1.38D+00.
 AX will form     9 AO Fock derivatives at one time.
      9 vectors produced by pass  1 Test12= 1.61D-15 1.11D-08 XBig12= 5.77D-01 3.38D-01.
      9 vectors produced by pass  2 Test12= 1.61D-15 1.11D-08 XBig12= 5.52D-03 3.19D-02.
      9 vectors produced by pass  3 Test12= 1.61D-15 1.11D-08 XBig12= 1.27D-05 1.39D-03.
      9 vectors produced by pass  4 Test12= 1.61D-15 1.11D-08 XBig12= 6.16D-08 9.24D-05.
      4 vectors produced by pass  5 Test12= 1.61D-15 1.11D-08 XBig12= 8.79D-11 3.30D-06.
      1 vectors produced by pass  6 Test12= 1.61D-15 1.11D-08 XBig12= 4.12D-14 7.91D-08.
 InvSVY:  IOpt=1 It=  1 EMax= 2.85D-16
 Solved reduced A of dimension    50 with     9 vectors.
 Isotropic polarizability for W=    0.000000        7.29 Bohr**3.
 End of Minotr F.D. properties file   721 does not exist.
 End of Minotr F.D. properties file   722 does not exist.
 End of Minotr F.D. properties file   788 does not exist.

 **********************************************************************

            Population analysis using the SCF density.

 **********************************************************************

 Orbital symmetries:
       Occupied  (A1) (A1) (B2) (A1) (B1)
       Virtual   (A1) (B2) (B1) (A1) (B2) (A1) (B2) (A1) (B2) (A1)
                 (B1) (A1) (A2) (A1) (B1) (B2) (B2) (A1) (A1) (B2)
                 (B1) (A2) (A1) (A1) (B2) (B1) (A1) (B2) (A1)
 The electronic state is 1-A1.
 Alpha  occ. eigenvalues --  -19.13320  -1.02331  -0.54332  -0.39682  -0.32301
 Alpha virt. eigenvalues --    0.01912   0.09532   0.15126   0.15200   0.17637
 Alpha virt. eigenvalues --    0.20475   0.47334   0.48818   0.93841   0.94916
 Alpha virt. eigenvalues --    0.99292   1.20700   1.25025   1.30897   1.45958
 Alpha virt. eigenvalues --    1.65822   1.95565   2.07985   2.35010   2.53842
 Alpha virt. eigenvalues --    3.08721   3.13616   3.30298   3.66430   3.85510
 Alpha virt. eigenvalues --    4.92140   5.29604   5.60342  49.83489
          Condensed to atoms (all electrons):
               1          2          3
     1  O    7.875445   0.315149   0.315149
     2  H    0.315149   0.453787  -0.021807
     3  H    0.315149  -0.021807   0.453787
 Mulliken charges:
               1
     1  O   -0.505742
     2  H    0.252871
     3  H    0.252871
 Sum of Mulliken charges =   0.00000
 Mulliken charges with hydrogens summed into heavy atoms:
               1
     1  O    0.000000
 APT charges:
               1
     1  O   -0.553025
     2  H    0.276512
     3  H    0.276512
 Sum of APT charges =   0.00000
 APT charges with hydrogens summed into heavy atoms:
               1
     1  O    0.000000
 Electronic spatial extent (au):  <R**2>=             20.0860
 Charge=              0.0000 electrons
 Dipole moment (field-independent basis, Debye):
    X=              0.0000    Y=              0.0000    Z=             -2.1608  Tot=              2.1608
 Quadrupole moment (field-independent basis, Debye-Ang):
   XX=             -7.8051   YY=             -4.4383   ZZ=             -6.5416
   XY=              0.0000   XZ=              0.0000   YZ=              0.0000
 Traceless Quadrupole moment (field-independent basis, Debye-Ang):
   XX=             -1.5434   YY=              1.8234   ZZ=             -0.2799
   XY=              0.0000   XZ=              0.0000   YZ=              0.0000
 Octapole moment (field-independent basis, Debye-Ang**2):
  XXX=              0.0000  YYY=              0.0000  ZZZ=             -1.5181  XYY=              0.0000
  XXY=              0.0000  XXZ=             -0.4530  XZZ=              0.0000  YZZ=              0.0000
  YYZ=             -1.3554  XYZ=              0.0000
 Hexadecapole moment (field-independent basis, Debye-Ang**3):
 XXXX=             -7.6740 YYYY=             -6.5590 ZZZZ=             -8.1114 XXXY=              0.0000
 XXXZ=              0.0000 YYYX=              0.0000 YYYZ=              0.0000 ZZZX=              0.0000
 ZZZY=              0.0000 XXYY=             -2.6692 XXZZ=             -2.6854 YYZZ=             -2.1284
 XXYZ=              0.0000 YYXZ=              0.0000 ZZXY=              0.0000
 N-N= 9.148358807549D+00 E-N=-1.991805857393D+02  KE= 7.622825823244D+01
 Symmetry A1   KE= 6.802264529940D+01
 Symmetry A2   KE= 1.100637019388D-34
 Symmetry B1   KE= 4.535930674701D+00
 Symmetry B2   KE= 3.669682258337D+00
  Exact polarizability:   6.804   0.000   8.269   0.000   0.000   6.793
 Approx polarizability:   6.942   0.000  10.085   0.000   0.000   7.909
 Calling FoFJK, ICntrl=    100127 FMM=F ISym2X=1 I1Cent= 0 IOpClX= 0 NMat=1 NMatS=1 NMatT=0.
 Full mass-weighted force constant matrix:
 Low frequencies ---  -74.0699  -60.8205  -49.1395   -0.0024   -0.0018   -0.0014
 Low frequencies --- 1602.4895 3818.5697 3923.8763
 Diagonal vibrational polarizability:
        0.0000000       0.1003171       0.7218485
 Harmonic frequencies (cm**-1), IR intensities (KM/Mole), Raman scattering
 activities (A**4/AMU), depolarization ratios for plane and unpolarized
 incident light, reduced masses (AMU), force constants (mDyne/A),
 and normal coordinates:
                      1                      2                      3
                     A1                     A1                     B2
 Frequencies --   1602.4895              3818.5697              3923.8762
 Red. masses --      1.0829                 1.0449                 1.0824
 Frc consts  --      1.6385                 8.9772                 9.8192
 IR Inten    --     67.1615                 9.7673                57.3948
  Atom  AN      X      Y      Z        X      Y      Z        X      Y      Z
     1   8     0.00   0.00   0.07     0.00   0.00   0.05     0.00   0.07   0.00
     2   1     0.00  -0.43  -0.56     0.00   0.59  -0.39     0.00  -0.56   0.43
     3   1     0.00   0.43  -0.56     0.00  -0.59  -0.39     0.00  -0.56  -0.43

 -------------------
 - Thermochemistry -
 -------------------
 Temperature   298.150 Kelvin.  Pressure   1.00000 Atm.
 Atom     1 has atomic number  8 and mass  15.99491
 Atom     2 has atomic number  1 and mass   1.00783
 Atom     3 has atomic number  1 and mass   1.00783
 Molecular mass:    18.01056 amu.
 Principal axes and moments of inertia in atomic units:
                           1         2         3
     Eigenvalues --     2.18882   4.19591   6.38473
           X            0.00000   0.00000   1.00000
           Y            1.00000   0.00000   0.00000
           Z            0.00000   1.00000   0.00000
 This molecule is an asymmetric top.
 Rotational symmetry number  2.
 Rotational temperatures (Kelvin)     39.57093    20.64244    13.56577
 Rotational constants (GHZ):         824.52544   430.11913   282.66505
 Zero-point vibrational energy      55895.1 (Joules/Mol)
                                   13.35926 (Kcal/Mol)
 Vibrational temperatures:   2305.62  5494.06  5645.58
          (Kelvin)
 
 Zero-point correction=                           0.021289 (Hartree/Particle)
 Thermal correction to Energy=                    0.024125
 Thermal correction to Enthalpy=                  0.025069
 Thermal correction to Gibbs Free Energy=         0.003647
 Sum of electronic and zero-point Energies=            -76.437173
 Sum of electronic and thermal Energies=               -76.434338
 Sum of electronic and thermal Enthalpies=             -76.433393
 Sum of electronic and thermal Free Energies=          -76.454816
 
                     E (Thermal)             CV                S
                      KCal/Mol        Cal/Mol-Kelvin    Cal/Mol-Kelvin
 Total                   15.139              6.014             45.087
 Electronic               0.000              0.000              0.000
 Translational            0.889              2.981             34.608
 Rotational               0.889              2.981             10.471
 Vibrational             13.361              0.052              0.008
                       Q            Log10(Q)             Ln(Q)
 Total Bot       0.210113D-01         -1.677548         -3.862697
 Total V=0       0.130270D+09          8.114843         18.685116
 Vib (Bot)       0.161361D-09         -9.792201        -22.547375
 Vib (V=0)       0.100044D+01          0.000190          0.000438
 Electronic      0.100000D+01          0.000000          0.000000
 Translational   0.300432D+07          6.477746         14.915562
 Rotational      0.433417D+02          1.636906          3.769116
 ***** Axes restored to original set *****
 -------------------------------------------------------------------
 Center     Atomic                   Forces (Hartrees/Bohr)
 Number     Number              X              Y              Z
 -------------------------------------------------------------------
      1        8          -0.000120609    0.000000000   -0.000085238
      2        1           0.000004621    0.000000000    0.000121410
      3        1           0.000115988    0.000000000   -0.000036172
 -------------------------------------------------------------------
 Cartesian Forces:  Max     0.000121410 RMS     0.000075524
 FormGI is forming the generalized inverse of G from B-inverse, IUseBI=4.

 GradGradGradGradGradGradGradGradGradGradGradGradGradGradGradGradGradGrad
 Berny optimization.
 Internal  Forces:  Max     0.000121497 RMS     0.000099202
 Search for a local minimum.
 Step number   1 out of a maximum of    2
 All quantities printed in internal units (Hartrees-Bohrs-Radians)
 Second derivative matrix not updated -- analytic derivatives used.
 The second derivative matrix:
                          R1        R2        A1
           R1           0.53853
           R2          -0.00544   0.53853
           A1           0.02903   0.02903   0.15319
 ITU=  0
     Eigenvalues ---    0.14881   0.53748   0.54397
 Angle between quadratic step and forces=  14.90 degrees.
 Linear search not attempted -- first point.
 Iteration  1 RMS(Cart)=  0.00014731 RMS(Int)=  0.00000001
 Iteration  2 RMS(Cart)=  0.00000001 RMS(Int)=  0.00000000
 ClnCor:  largest displacement from symmetrization is 4.00D-15 for atom     3.
 Variable       Old X    -DE/DX   Delta X   Delta X   Delta X     New X
                                 (Linear)    (Quad)   (Total)
    R1        1.81781   0.00012   0.00000   0.00023   0.00023   1.81804
    R2        1.81781   0.00012   0.00000   0.00023   0.00023   1.81804
    A1        1.83374   0.00000   0.00000  -0.00009  -0.00009   1.83365
         Item               Value     Threshold  Converged?
 Maximum Force            0.000121     0.000450     YES
 RMS     Force            0.000099     0.000300     YES
 Maximum Displacement     0.000151     0.001800     YES
 RMS     Displacement     0.000147     0.001200     YES
 Predicted change in Energy=-2.826122D-08
 Optimization completed.
    -- Stationary point found.
                           ----------------------------
                           !   Optimized Parameters   !
                           ! (Angstroms and Degrees)  !
 --------------------------                            --------------------------
 ! Name  Definition              Value          Derivative Info.                !
 --------------------------------------------------------------------------------
 ! R1    R(1,2)                  0.9619         -DE/DX =    0.0001              !
 ! R2    R(1,3)                  0.9619         -DE/DX =    0.0001              !
 ! A1    A(2,1,3)              105.0657         -DE/DX =    0.0                 !
 --------------------------------------------------------------------------------
 GradGradGradGradGradGradGradGradGradGradGradGradGradGradGradGradGradGrad

 1\1\GINC-TC-NODE166\Freq\RB3LYP\6-311+G(d,p)\H2O1\MAXB2\09-Oct-2016\0\
 \#N Geom=AllCheck Guess=TCheck SCRF=Check GenChk RB3LYP/6-311+G(d,p) F
 req\\Title Card Required\\0,1\O,-0.0169298886,0.,-0.0119648623\H,0.020
 2849343,0.,0.9492575321\H,0.9015807854,0.,-0.2977472557\\Version=ES64L
 -G09RevD.01\State=1-A1\HF=-76.4584627\RMSD=8.888e-10\RMSF=7.552e-05\Ze
 roPoint=0.0212893\Thermal=0.0241251\Dipole=0.6942602,0.,0.4906546\Dipo
 leDeriv=-0.4178848,0.,0.0769317,0.,-0.7688181,0.,0.0769317,0.,-0.47237
 07,0.2765386,0.,-0.0834628,0.,0.384409,0.,-0.041343,0.,0.1685892,0.141
 3462,0.,0.0065311,0.,0.384409,0.,-0.0355887,0.,0.3037816\Polar=7.28463
 13,0.,6.8035845,-0.695348,0.,7.7771025\PG=C02V [C2(O1),SGV(H2)]\NImag=
 0\\0.52808084,0.,-0.00025059,-0.11106717,0.,0.60674273,-0.04389215,0.,
 -0.05161937,0.04578765,0.,0.00012529,0.,0.,-0.00016727,0.00676936,0.,-
 0.52351963,0.00315143,0.,0.53906538,-0.48418868,0.,0.16268654,-0.00189
 549,0.,-0.00992079,0.48608418,0.,0.00012529,0.,0.,0.00004198,0.,0.,-0.
 00016727,0.10429781,0.,-0.08322310,0.04846794,0.,-0.01554576,-0.152765
 75,0.,0.09876886\\0.00012061,0.,0.00008524,-0.00000462,0.,-0.00012141,
 -0.00011599,0.,0.00003617\\\@


 Money is a good servant but a bad master.
                        -- French Proverb
 Job cpu time:       0 days  0 hours  0 minutes  5.9 seconds.
 File lengths (MBytes):  RWF=      5 Int=      0 D2E=      0 Chk=      2 Scr=      1
 Normal termination of Gaussian 09 at Sun Oct  9 16:41:20 2016.
