 Entering Gaussian System, Link 0=g09
 Initial command:
 /cluster/software/gaussian/gaussian-09-D.01/g09/l1.exe "/local/scratch/maxb2/Gau-1733.inp" -scrdir="/local/scratch/maxb2/"
 Entering Link 1 = /cluster/software/gaussian/gaussian-09-D.01/g09/l1.exe PID=      1738.
  
 Copyright (c) 1988,1990,1992,1993,1995,1998,2003,2009,2013,
            Gaussian, Inc.  All Rights Reserved.
  
 This is part of the Gaussian(R) 09 program.  It is based on
 the Gaussian(R) 03 system (copyright 2003, Gaussian, Inc.),
 the Gaussian(R) 98 system (copyright 1998, Gaussian, Inc.),
 the Gaussian(R) 94 system (copyright 1995, Gaussian, Inc.),
 the Gaussian 92(TM) system (copyright 1992, Gaussian, Inc.),
 the Gaussian 90(TM) system (copyright 1990, Gaussian, Inc.),
 the Gaussian 88(TM) system (copyright 1988, Gaussian, Inc.),
 the Gaussian 86(TM) system (copyright 1986, Carnegie Mellon
 University), and the Gaussian 82(TM) system (copyright 1983,
 Carnegie Mellon University). Gaussian is a federally registered
 trademark of Gaussian, Inc.
  
 This software contains proprietary and confidential information,
 including trade secrets, belonging to Gaussian, Inc.
  
 This software is provided under written license and may be
 used, copied, transmitted, or stored only in accord with that
 written license.
  
 The following legend is applicable only to US Government
 contracts under FAR:
  
                    RESTRICTED RIGHTS LEGEND
  
 Use, reproduction and disclosure by the US Government is
 subject to restrictions as set forth in subparagraphs (a)
 and (c) of the Commercial Computer Software - Restricted
 Rights clause in FAR 52.227-19.
  
 Gaussian, Inc.
 340 Quinnipiac St., Bldg. 40, Wallingford CT 06492
  
  
 ---------------------------------------------------------------
 Warning -- This program may not be used in any manner that
 competes with the business of Gaussian, Inc. or will provide
 assistance to any competitor of Gaussian, Inc.  The licensee
 of this program is prohibited from giving any competitor of
 Gaussian, Inc. access to this program.  By using this program,
 the user acknowledges that Gaussian, Inc. is engaged in the
 business of creating and licensing software in the field of
 computational chemistry and represents and warrants to the
 licensee that it is not a competitor of Gaussian, Inc. and that
 it will not use this program in any manner prohibited above.
 ---------------------------------------------------------------
  

 Cite this work as:
 Gaussian 09, Revision D.01,
 M. J. Frisch, G. W. Trucks, H. B. Schlegel, G. E. Scuseria, 
 M. A. Robb, J. R. Cheeseman, G. Scalmani, V. Barone, B. Mennucci, 
 G. A. Petersson, H. Nakatsuji, M. Caricato, X. Li, H. P. Hratchian, 
 A. F. Izmaylov, J. Bloino, G. Zheng, J. L. Sonnenberg, M. Hada, 
 M. Ehara, K. Toyota, R. Fukuda, J. Hasegawa, M. Ishida, T. Nakajima, 
 Y. Honda, O. Kitao, H. Nakai, T. Vreven, J. A. Montgomery, Jr., 
 J. E. Peralta, F. Ogliaro, M. Bearpark, J. J. Heyd, E. Brothers, 
 K. N. Kudin, V. N. Staroverov, T. Keith, R. Kobayashi, J. Normand, 
 K. Raghavachari, A. Rendell, J. C. Burant, S. S. Iyengar, J. Tomasi, 
 M. Cossi, N. Rega, J. M. Millam, M. Klene, J. E. Knox, J. B. Cross, 
 V. Bakken, C. Adamo, J. Jaramillo, R. Gomperts, R. E. Stratmann, 
 O. Yazyev, A. J. Austin, R. Cammi, C. Pomelli, J. W. Ochterski, 
 R. L. Martin, K. Morokuma, V. G. Zakrzewski, G. A. Voth, 
 P. Salvador, J. J. Dannenberg, S. Dapprich, A. D. Daniels, 
 O. Farkas, J. B. Foresman, J. V. Ortiz, J. Cioslowski, 
 and D. J. Fox, Gaussian, Inc., Wallingford CT, 2013.
 
 ******************************************
 Gaussian 09:  ES64L-G09RevD.01 24-Apr-2013
                 9-Oct-2016 
 ******************************************
 %mem=6GB
 %nprocshared=2
 Will use up to    2 processors via shared memory.
 %chk=H20mp2
 ------------------------------------------------
 # opt freq mp2(full)/6-311+g** geom=connectivity
 ------------------------------------------------
 1/18=20,19=15,38=1,57=2/1,3;
 2/9=110,12=2,17=6,18=5,40=1/2;
 3/5=4,6=6,7=111,11=9,16=1,25=1,30=1,71=1/1,2,3;
 4//1;
 5/5=2,38=5/2;
 8/6=4,10=90/1;
 9/15=2,16=-3/6;
 10/5=1/2;
 6/7=2,8=2,9=2,10=2/1;
 7/12=2/1,2,3,16;
 1/18=20,19=15/3(2);
 2/9=110/2;
 99//99;
 2/9=110/2;
 3/5=4,6=6,7=111,11=9,16=1,25=1,30=1,71=1/1,2,3;
 4/5=5,16=3,69=1/1;
 5/5=2,38=5/2;
 8/6=4,10=90/1;
 9/15=2,16=-3/6;
 10/5=1/2;
 7/12=2/1,2,3,16;
 1/18=20,19=15/3(-8);
 2/9=110/2;
 6/7=2,8=2,9=2,10=2/1;
 99//99;
 -------------------
 Title Card Required
 -------------------
 Symbolic Z-matrix:
 Charge =  0 Multiplicity = 1
 O
 H                    1    B1
 H                    1    B2       2    A1
       Variables:
  B1                    0.96                     
  B2                    0.96                     
  A1                  109.5                      
 

 GradGradGradGradGradGradGradGradGradGradGradGradGradGradGradGradGradGrad
 Berny optimization.
 Initialization pass.
                           ----------------------------
                           !    Initial Parameters    !
                           ! (Angstroms and Degrees)  !
 --------------------------                            --------------------------
 ! Name  Definition              Value          Derivative Info.                !
 --------------------------------------------------------------------------------
 ! R1    R(1,2)                  0.96           estimate D2E/DX2                !
 ! R2    R(1,3)                  0.96           estimate D2E/DX2                !
 ! A1    A(2,1,3)              109.5            estimate D2E/DX2                !
 --------------------------------------------------------------------------------
 Trust Radius=3.00D-01 FncErr=1.00D-07 GrdErr=1.00D-07
 Number of steps in this run=     20 maximum allowed number of steps=    100.
 GradGradGradGradGradGradGradGradGradGradGradGradGradGradGradGradGradGrad

                          Input orientation:                          
 ---------------------------------------------------------------------
 Center     Atomic      Atomic             Coordinates (Angstroms)
 Number     Number       Type             X           Y           Z
 ---------------------------------------------------------------------
      1          8           0        0.000000    0.000000    0.000000
      2          1           0        0.000000    0.000000    0.960000
      3          1           0        0.904936    0.000000   -0.320455
 ---------------------------------------------------------------------
                    Distance matrix (angstroms):
                    1          2          3
     1  O    0.000000
     2  H    0.960000   0.000000
     3  H    0.960000   1.567952   0.000000
 Stoichiometry    H2O
 Framework group  C2V[C2(O),SGV(H2)]
 Deg. of freedom     2
 Full point group                 C2V     NOp   4
 Largest Abelian subgroup         C2V     NOp   4
 Largest concise Abelian subgroup C2      NOp   2
                         Standard orientation:                         
 ---------------------------------------------------------------------
 Center     Atomic      Atomic             Coordinates (Angstroms)
 Number     Number       Type             X           Y           Z
 ---------------------------------------------------------------------
      1          8           0        0.000000    0.000000    0.110812
      2          1           0        0.000000    0.783976   -0.443248
      3          1           0        0.000000   -0.783976   -0.443248
 ---------------------------------------------------------------------
 Rotational constants (GHZ):    919.6759594    407.9403273    282.5913750
 Standard basis: 6-311+G(d,p) (5D, 7F)
 There are    17 symmetry adapted cartesian basis functions of A1  symmetry.
 There are     2 symmetry adapted cartesian basis functions of A2  symmetry.
 There are     6 symmetry adapted cartesian basis functions of B1  symmetry.
 There are    10 symmetry adapted cartesian basis functions of B2  symmetry.
 There are    16 symmetry adapted basis functions of A1  symmetry.
 There are     2 symmetry adapted basis functions of A2  symmetry.
 There are     6 symmetry adapted basis functions of B1  symmetry.
 There are    10 symmetry adapted basis functions of B2  symmetry.
    34 basis functions,    52 primitive gaussians,    35 cartesian basis functions
     5 alpha electrons        5 beta electrons
       nuclear repulsion energy         9.1571159853 Hartrees.
 NAtoms=    3 NActive=    3 NUniq=    2 SFac= 2.25D+00 NAtFMM=   60 NAOKFM=F Big=F
 Integral buffers will be    131072 words long.
 Raffenetti 1 integral format.
 Two-electron integral symmetry is turned on.
 One-electron integrals computed using PRISM.
 NBasis=    34 RedAO= T EigKep=  5.44D-03  NBF=    16     2     6    10
 NBsUse=    34 1.00D-06 EigRej= -1.00D+00 NBFU=    16     2     6    10
 ExpMin= 8.45D-02 ExpMax= 8.59D+03 ExpMxC= 1.30D+03 IAcc=2 IRadAn=         4 AccDes= 0.00D+00
 Harris functional with IExCor=  205 and IRadAn=       4 diagonalized for initial guess.
 HarFok:  IExCor=  205 AccDes= 0.00D+00 IRadAn=         4 IDoV= 1 UseB2=F ITyADJ=14
 ICtDFT=  3500011 ScaDFX=  1.000000  1.000000  1.000000  1.000000
 FoFCou: FMM=F IPFlag=           0 FMFlag=      100000 FMFlg1=           0
         NFxFlg=           0 DoJE=T BraDBF=F KetDBF=T FulRan=T
         wScrn=  0.000000 ICntrl=     500 IOpCl=  0 I1Cent=   200000004 NGrid=           0
         NMat0=    1 NMatS0=      1 NMatT0=    0 NMatD0=    1 NMtDS0=    0 NMtDT0=    0
 Petite list used in FoFCou.
 Initial guess orbital symmetries:
       Occupied  (A1) (A1) (B2) (A1) (B1)
       Virtual   (A1) (B2) (A1) (B1) (B2) (A1) (B2) (A1) (B2) (A1)
                 (B1) (A1) (A2) (A1) (B1) (B2) (B2) (A1) (A1) (B2)
                 (B1) (A2) (A1) (A1) (B2) (B1) (A1) (B2) (A1)
 The electronic state of the initial guess is 1-A1.
 Keep R1 ints in memory in symmetry-blocked form, NReq=1032961.
 Requested convergence on RMS density matrix=1.00D-08 within 128 cycles.
 Requested convergence on MAX density matrix=1.00D-06.
 Requested convergence on             energy=1.00D-06.
 No special actions if energy rises.
 SCF Done:  E(RHF) =  -76.0521730766     A.U. after   11 cycles
            NFock= 11  Conv=0.32D-08     -V/T= 2.0010
 Range of M.O.s used for correlation:     1    34
 NBasis=    34 NAE=     5 NBE=     5 NFC=     0 NFV=     0
 NROrb=     34 NOA=     5 NOB=     5 NVA=    29 NVB=    29
 Fully direct method using O(ONN) memory.
 JobTyp=1 Pass  1:  I=   1 to   5 NPSUse=  2 ParTrn=T ParDer=T DoDerP=T.
 Spin components of T(2) and E(2):
     alpha-alpha T2 =       0.7068756069D-02 E2=     -0.2927582163D-01
     alpha-beta  T2 =       0.4140613859D-01 E2=     -0.1821709314D+00
     beta-beta   T2 =       0.7068756069D-02 E2=     -0.2927582163D-01
 ANorm=    0.1027396540D+01
 E2 =    -0.2407225746D+00 EUMP2 =    -0.76292895651238D+02
          IDoAtm=111
          Differentiating once with respect to electric field.
                with respect to dipole field.
          Differentiating once with respect to nuclear coordinates.
 Keep R1 ints in memory in symmetry-blocked form, NReq=1016610.
          There are     1 degrees of freedom in the 1st order CPHF.  IDoFFX=0 NUNeed=     1.
 LinEq1:  Iter=  0 NonCon=     1 RMS=8.00D-03 Max=6.36D-02 NDo=     1
 AX will form     1 AO Fock derivatives at one time.
 LinEq1:  Iter=  1 NonCon=     1 RMS=8.31D-04 Max=4.89D-03 NDo=     1
 LinEq1:  Iter=  2 NonCon=     1 RMS=1.27D-04 Max=7.46D-04 NDo=     1
 LinEq1:  Iter=  3 NonCon=     1 RMS=5.40D-05 Max=4.11D-04 NDo=     1
 LinEq1:  Iter=  4 NonCon=     1 RMS=8.13D-06 Max=3.83D-05 NDo=     1
 LinEq1:  Iter=  5 NonCon=     1 RMS=1.51D-06 Max=5.71D-06 NDo=     1
 LinEq1:  Iter=  6 NonCon=     1 RMS=2.65D-07 Max=1.20D-06 NDo=     1
 LinEq1:  Iter=  7 NonCon=     1 RMS=3.38D-08 Max=2.47D-07 NDo=     1
 LinEq1:  Iter=  8 NonCon=     1 RMS=3.80D-09 Max=2.31D-08 NDo=     1
 LinEq1:  Iter=  9 NonCon=     1 RMS=4.20D-10 Max=2.27D-09 NDo=     1
 LinEq1:  Iter= 10 NonCon=     0 RMS=3.07D-11 Max=1.98D-10 NDo=     1
 Linear equations converged to 1.000D-10 1.000D-09 after    10 iterations.
 End of Minotr F.D. properties file   721 does not exist.
 End of Minotr F.D. properties file   722 does not exist.
 End of Minotr F.D. properties file   788 does not exist.

 **********************************************************************

            Population analysis using the SCF density.

 **********************************************************************

 Orbital symmetries:
       Occupied  (A1) (A1) (B2) (A1) (B1)
       Virtual   (A1) (B2) (A1) (B1) (B2) (A1) (A1) (B2) (B2) (A1)
                 (B1) (A1) (A2) (A1) (B1) (B2) (B2) (A1) (A1) (B2)
                 (B1) (A2) (A1) (A1) (B2) (B1) (A1) (B2) (A1)
 The electronic state is 1-A1.
 Alpha  occ. eigenvalues --  -20.56480  -1.35061  -0.72859  -0.57405  -0.50850
 Alpha virt. eigenvalues --    0.14447   0.21173   0.24108   0.24576   0.26534
 Alpha virt. eigenvalues --    0.30006   0.67315   0.67712   1.17206   1.19267
 Alpha virt. eigenvalues --    1.24475   1.47278   1.48901   1.60567   1.74006
 Alpha virt. eigenvalues --    1.89425   2.30558   2.40520   2.68626   2.83222
 Alpha virt. eigenvalues --    3.45608   3.55162   3.69048   4.11664   4.27262
 Alpha virt. eigenvalues --    5.49081   5.83865   6.21853  51.55175
          Condensed to atoms (all electrons):
               1          2          3
     1  O    7.858740   0.339026   0.339026
     2  H    0.339026   0.413841  -0.021263
     3  H    0.339026  -0.021263   0.413841
 Mulliken charges:
               1
     1  O   -0.536792
     2  H    0.268396
     3  H    0.268396
 Sum of Mulliken charges =   0.00000
 Mulliken charges with hydrogens summed into heavy atoms:
               1
     1  O    0.000000
 Electronic spatial extent (au):  <R**2>=             19.5552
 Charge=              0.0000 electrons
 Dipole moment (field-independent basis, Debye):
    X=              0.0000    Y=              0.0000    Z=             -2.1630  Tot=              2.1630
 Quadrupole moment (field-independent basis, Debye-Ang):
   XX=             -7.5787   YY=             -4.0158   ZZ=             -6.4444
   XY=              0.0000   XZ=              0.0000   YZ=              0.0000
 Traceless Quadrupole moment (field-independent basis, Debye-Ang):
   XX=             -1.5658   YY=              1.9972   ZZ=             -0.4314
   XY=              0.0000   XZ=              0.0000   YZ=              0.0000
 Octapole moment (field-independent basis, Debye-Ang**2):
  XXX=              0.0000  YYY=              0.0000  ZZZ=             -1.4717  XYY=              0.0000
  XXY=              0.0000  XXZ=             -0.4211  XZZ=              0.0000  YZZ=              0.0000
  YYZ=             -1.4643  XYZ=              0.0000
 Hexadecapole moment (field-independent basis, Debye-Ang**3):
 XXXX=             -6.6782 YYYY=             -5.6751 ZZZZ=             -7.2414 XXXY=              0.0000
 XXXZ=              0.0000 YYYX=              0.0000 YYYZ=              0.0000 ZZZX=              0.0000
 ZZZY=              0.0000 XXYY=             -2.4169 XXZZ=             -2.3667 YYZZ=             -1.8649
 XXYZ=              0.0000 YYXZ=              0.0000 ZZXY=              0.0000
 N-N= 9.157115985290D+00 E-N=-1.989378847151D+02  KE= 7.597240592404D+01
 Symmetry A1   KE= 6.795430566893D+01
 Symmetry A2   KE= 7.195682317262D-35
 Symmetry B1   KE= 4.473960671615D+00
 Symmetry B2   KE= 3.544139583495D+00
 Calling FoFJK, ICntrl=  10002127 FMM=F ISym2X=1 I1Cent= 0 IOpClX= 0 NMat=1 NMatS=1 NMatT=0.
 ***** Axes restored to original set *****
 -------------------------------------------------------------------
 Center     Atomic                   Forces (Hartrees/Bohr)
 Number     Number              X              Y              Z
 -------------------------------------------------------------------
      1        8          -0.007617808    0.000000000   -0.005383734
      2        1           0.008491909    0.000000000   -0.003934432
      3        1          -0.000874101    0.000000000    0.009318166
 -------------------------------------------------------------------
 Cartesian Forces:  Max     0.009318166 RMS     0.005397532

 GradGradGradGradGradGradGradGradGradGradGradGradGradGradGradGradGradGrad
 Berny optimization.
 FormGI is forming the generalized inverse of G from B-inverse, IUseBI=4.
 Internal  Forces:  Max     0.015405487 RMS     0.009456718
 Search for a local minimum.
 Step number   1 out of a maximum of   20
 All quantities printed in internal units (Hartrees-Bohrs-Radians)
 Mixed Optimization -- RFO/linear search
 Second derivative matrix not updated -- first step.
 The second derivative matrix:
                          R1        R2        A1
           R1           0.55473
           R2           0.00000   0.55473
           A1           0.00000   0.00000   0.16000
 ITU=  0
     Eigenvalues ---    0.16000   0.55473   0.55473
 RFO step:  Lambda=-1.52496042D-03 EMin= 1.60000000D-01
 Linear search not attempted -- first point.
 Iteration  1 RMS(Cart)=  0.05521019 RMS(Int)=  0.00169658
 Iteration  2 RMS(Cart)=  0.00140696 RMS(Int)=  0.00000014
 Iteration  3 RMS(Cart)=  0.00000014 RMS(Int)=  0.00000000
 ClnCor:  largest displacement from symmetrization is 4.58D-16 for atom     3.
 Variable       Old X    -DE/DX   Delta X   Delta X   Delta X     New X
                                 (Linear)    (Quad)   (Total)
    R1        1.81414  -0.00393   0.00000  -0.00707  -0.00707   1.80706
    R2        1.81414  -0.00393   0.00000  -0.00707  -0.00707   1.80706
    A1        1.91114  -0.01541   0.00000  -0.09538  -0.09538   1.81576
         Item               Value     Threshold  Converged?
 Maximum Force            0.015405     0.000450     NO 
 RMS     Force            0.009457     0.000300     NO 
 Maximum Displacement     0.059208     0.001800     NO 
 RMS     Displacement     0.055858     0.001200     NO 
 Predicted change in Energy=-7.694918D-04
 GradGradGradGradGradGradGradGradGradGradGradGradGradGradGradGradGradGrad

                          Input orientation:                          
 ---------------------------------------------------------------------
 Center     Atomic      Atomic             Coordinates (Angstroms)
 Number     Number       Type             X           Y           Z
 ---------------------------------------------------------------------
      1          8           0       -0.018749    0.000000   -0.013251
      2          1           0        0.026835    0.000000    0.941919
      3          1           0        0.896850    0.000000   -0.289123
 ---------------------------------------------------------------------
                    Distance matrix (angstroms):
                    1          2          3
     1  O    0.000000
     2  H    0.956257   0.000000
     3  H    0.956257   1.507445   0.000000
 Stoichiometry    H2O
 Framework group  C2V[C2(O),SGV(H2)]
 Deg. of freedom     2
 Full point group                 C2V     NOp   4
 Largest Abelian subgroup         C2V     NOp   4
 Largest concise Abelian subgroup C2      NOp   2
                         Standard orientation:                         
 ---------------------------------------------------------------------
 Center     Atomic      Atomic             Coordinates (Angstroms)
 Number     Number       Type             X           Y           Z
 ---------------------------------------------------------------------
      1          8           0        0.000000    0.000000    0.117700
      2          1           0        0.000000    0.753723   -0.470798
      3          1           0        0.000000   -0.753723   -0.470798
 ---------------------------------------------------------------------
 Rotational constants (GHZ):    815.1878319    441.3456364    286.3271067
 Standard basis: 6-311+G(d,p) (5D, 7F)
 There are    17 symmetry adapted cartesian basis functions of A1  symmetry.
 There are     2 symmetry adapted cartesian basis functions of A2  symmetry.
 There are     6 symmetry adapted cartesian basis functions of B1  symmetry.
 There are    10 symmetry adapted cartesian basis functions of B2  symmetry.
 There are    16 symmetry adapted basis functions of A1  symmetry.
 There are     2 symmetry adapted basis functions of A2  symmetry.
 There are     6 symmetry adapted basis functions of B1  symmetry.
 There are    10 symmetry adapted basis functions of B2  symmetry.
    34 basis functions,    52 primitive gaussians,    35 cartesian basis functions
     5 alpha electrons        5 beta electrons
       nuclear repulsion energy         9.2051833414 Hartrees.
 NAtoms=    3 NActive=    3 NUniq=    2 SFac= 2.25D+00 NAtFMM=   60 NAOKFM=F Big=F
 Integral buffers will be    131072 words long.
 Raffenetti 1 integral format.
 Two-electron integral symmetry is turned on.
 One-electron integrals computed using PRISM.
 NBasis=    34 RedAO= T EigKep=  4.85D-03  NBF=    16     2     6    10
 NBsUse=    34 1.00D-06 EigRej= -1.00D+00 NBFU=    16     2     6    10
 Initial guess from the checkpoint file:  "H20mp2.chk"
 B after Tr=     0.000000    0.000000    0.000000
         Rot=    1.000000    0.000000    0.000000    0.000000 Ang=   0.00 deg.
 Initial guess orbital symmetries:
       Occupied  (A1) (A1) (B2) (A1) (B1)
       Virtual   (A1) (A1) (A1) (A1) (A1) (A1) (A1) (A1) (A1) (A1)
                 (A1) (A1) (A1) (A2) (A2) (B1) (B1) (B1) (B1) (B1)
                 (B2) (B2) (B2) (B2) (B2) (B2) (B2) (B2) (B2)
 ExpMin= 8.45D-02 ExpMax= 8.59D+03 ExpMxC= 1.30D+03 IAcc=2 IRadAn=         4 AccDes= 0.00D+00
 Harris functional with IExCor=  205 and IRadAn=       4 diagonalized for initial guess.
 HarFok:  IExCor=  205 AccDes= 0.00D+00 IRadAn=         4 IDoV= 1 UseB2=F ITyADJ=14
 ICtDFT=  3500011 ScaDFX=  1.000000  1.000000  1.000000  1.000000
 FoFCou: FMM=F IPFlag=           0 FMFlag=      100000 FMFlg1=           0
         NFxFlg=           0 DoJE=T BraDBF=F KetDBF=T FulRan=T
         wScrn=  0.000000 ICntrl=     500 IOpCl=  0 I1Cent=   200000004 NGrid=           0
         NMat0=    1 NMatS0=      1 NMatT0=    0 NMatD0=    1 NMtDS0=    0 NMtDT0=    0
 Petite list used in FoFCou.
 Keep R1 ints in memory in symmetry-blocked form, NReq=1032961.
 Requested convergence on RMS density matrix=1.00D-08 within 128 cycles.
 Requested convergence on MAX density matrix=1.00D-06.
 Requested convergence on             energy=1.00D-06.
 No special actions if energy rises.
 SCF Done:  E(RHF) =  -76.0527508644     A.U. after    9 cycles
            NFock=  9  Conv=0.95D-08     -V/T= 2.0007
 Range of M.O.s used for correlation:     1    34
 NBasis=    34 NAE=     5 NBE=     5 NFC=     0 NFV=     0
 NROrb=     34 NOA=     5 NOB=     5 NVA=    29 NVB=    29
 Fully direct method using O(ONN) memory.
 JobTyp=1 Pass  1:  I=   1 to   5 NPSUse=  2 ParTrn=T ParDer=T DoDerP=T.
 Spin components of T(2) and E(2):
     alpha-alpha T2 =       0.7066602981D-02 E2=     -0.2930276825D-01
     alpha-beta  T2 =       0.4140482422D-01 E2=     -0.1823491864D+00
     beta-beta   T2 =       0.7066602981D-02 E2=     -0.2930276825D-01
 ANorm=    0.1027393805D+01
 E2 =    -0.2409547229D+00 EUMP2 =    -0.76293705587263D+02
          IDoAtm=111
          Differentiating once with respect to electric field.
                with respect to dipole field.
          Differentiating once with respect to nuclear coordinates.
 Keep R1 ints in memory in symmetry-blocked form, NReq=1016610.
          There are     1 degrees of freedom in the 1st order CPHF.  IDoFFX=0 NUNeed=     1.
 LinEq1:  Iter=  0 NonCon=     1 RMS=7.96D-03 Max=6.35D-02 NDo=     1
 AX will form     1 AO Fock derivatives at one time.
 LinEq1:  Iter=  1 NonCon=     1 RMS=8.44D-04 Max=4.94D-03 NDo=     1
 LinEq1:  Iter=  2 NonCon=     1 RMS=1.26D-04 Max=7.51D-04 NDo=     1
 LinEq1:  Iter=  3 NonCon=     1 RMS=5.06D-05 Max=3.79D-04 NDo=     1
 LinEq1:  Iter=  4 NonCon=     1 RMS=8.41D-06 Max=3.92D-05 NDo=     1
 LinEq1:  Iter=  5 NonCon=     1 RMS=1.52D-06 Max=6.14D-06 NDo=     1
 LinEq1:  Iter=  6 NonCon=     1 RMS=2.58D-07 Max=1.24D-06 NDo=     1
 LinEq1:  Iter=  7 NonCon=     1 RMS=3.28D-08 Max=2.41D-07 NDo=     1
 LinEq1:  Iter=  8 NonCon=     1 RMS=3.72D-09 Max=2.35D-08 NDo=     1
 LinEq1:  Iter=  9 NonCon=     1 RMS=4.16D-10 Max=2.24D-09 NDo=     1
 LinEq1:  Iter= 10 NonCon=     0 RMS=2.91D-11 Max=1.70D-10 NDo=     1
 Linear equations converged to 1.000D-10 1.000D-09 after    10 iterations.
 End of Minotr F.D. properties file   721 does not exist.
 End of Minotr F.D. properties file   722 does not exist.
 End of Minotr F.D. properties file   788 does not exist.
 Calling FoFJK, ICntrl=  10002127 FMM=F ISym2X=1 I1Cent= 0 IOpClX= 0 NMat=1 NMatS=1 NMatT=0.
 ***** Axes restored to original set *****
 -------------------------------------------------------------------
 Center     Atomic                   Forces (Hartrees/Bohr)
 Number     Number              X              Y              Z
 -------------------------------------------------------------------
      1        8          -0.003367407    0.000000000   -0.002379848
      2        1           0.000703854    0.000000000    0.002576379
      3        1           0.002663553    0.000000000   -0.000196531
 -------------------------------------------------------------------
 Cartesian Forces:  Max     0.003367407 RMS     0.001863968

 GradGradGradGradGradGradGradGradGradGradGradGradGradGradGradGradGradGrad
 Berny optimization.
 Using GEDIIS/GDIIS optimizer.
 FormGI is forming the generalized inverse of G from B-inverse, IUseBI=4.
 Internal  Forces:  Max     0.002607002 RMS     0.002213017
 Search for a local minimum.
 Step number   2 out of a maximum of   20
 All quantities printed in internal units (Hartrees-Bohrs-Radians)
 Mixed Optimization -- RFO/linear search
 Update second derivatives using D2CorX and points    1    2
 DE= -8.10D-04 DEPred=-7.69D-04 R= 1.05D+00
 TightC=F SS=  1.41D+00  RLast= 9.59D-02 DXNew= 5.0454D-01 2.8770D-01
 Trust test= 1.05D+00 RLast= 9.59D-02 DXMaxT set to 3.00D-01
 The second derivative matrix:
                          R1        R2        A1
           R1           0.57382
           R2           0.01908   0.57382
           A1           0.02462   0.02462   0.14688
 ITU=  1  0
 Use linear search instead of GDIIS.
     Eigenvalues ---    0.14418   0.55473   0.59560
 RFO step:  Lambda=-3.09248007D-05 EMin= 1.44179082D-01
 Quartic linear search produced a step of  0.04041.
 Iteration  1 RMS(Cart)=  0.00428444 RMS(Int)=  0.00001834
 Iteration  2 RMS(Cart)=  0.00002065 RMS(Int)=  0.00000000
 Iteration  3 RMS(Cart)=  0.00000000 RMS(Int)=  0.00000000
 ClnCor:  largest displacement from symmetrization is 7.02D-16 for atom     3.
 Variable       Old X    -DE/DX   Delta X   Delta X   Delta X     New X
                                 (Linear)    (Quad)   (Total)
    R1        1.80706   0.00261  -0.00029   0.00504   0.00475   1.81182
    R2        1.80706   0.00261  -0.00029   0.00504   0.00475   1.81182
    A1        1.81576  -0.00105  -0.00385  -0.00459  -0.00844   1.80732
         Item               Value     Threshold  Converged?
 Maximum Force            0.002607     0.000450     NO 
 RMS     Force            0.002213     0.000300     NO 
 Maximum Displacement     0.004870     0.001800     NO 
 RMS     Displacement     0.004291     0.001200     NO 
 Predicted change in Energy=-1.698138D-05
 GradGradGradGradGradGradGradGradGradGradGradGradGradGradGradGradGradGrad

                          Input orientation:                          
 ---------------------------------------------------------------------
 Center     Atomic      Atomic             Coordinates (Angstroms)
 Number     Number       Type             X           Y           Z
 ---------------------------------------------------------------------
      1          8           0       -0.021326    0.000000   -0.015072
      2          1           0        0.028421    0.000000    0.942409
      3          1           0        0.897841    0.000000   -0.287792
 ---------------------------------------------------------------------
                    Distance matrix (angstroms):
                    1          2          3
     1  O    0.000000
     2  H    0.958772   0.000000
     3  H    0.958772   1.506414   0.000000
 Stoichiometry    H2O
 Framework group  C2V[C2(O),SGV(H2)]
 Deg. of freedom     2
 Full point group                 C2V     NOp   4
 Largest Abelian subgroup         C2V     NOp   4
 Largest concise Abelian subgroup C2      NOp   2
                         Standard orientation:                         
 ---------------------------------------------------------------------
 Center     Atomic      Atomic             Coordinates (Angstroms)
 Number     Number       Type             X           Y           Z
 ---------------------------------------------------------------------
      1          8           0        0.000000    0.000000    0.118646
      2          1           0        0.000000    0.753207   -0.474585
      3          1           0        0.000000   -0.753207   -0.474585
 ---------------------------------------------------------------------
 Rotational constants (GHZ):    802.2313872    441.9501932    284.9634829
 Standard basis: 6-311+G(d,p) (5D, 7F)
 There are    17 symmetry adapted cartesian basis functions of A1  symmetry.
 There are     2 symmetry adapted cartesian basis functions of A2  symmetry.
 There are     6 symmetry adapted cartesian basis functions of B1  symmetry.
 There are    10 symmetry adapted cartesian basis functions of B2  symmetry.
 There are    16 symmetry adapted basis functions of A1  symmetry.
 There are     2 symmetry adapted basis functions of A2  symmetry.
 There are     6 symmetry adapted basis functions of B1  symmetry.
 There are    10 symmetry adapted basis functions of B2  symmetry.
    34 basis functions,    52 primitive gaussians,    35 cartesian basis functions
     5 alpha electrons        5 beta electrons
       nuclear repulsion energy         9.1821980514 Hartrees.
 NAtoms=    3 NActive=    3 NUniq=    2 SFac= 2.25D+00 NAtFMM=   60 NAOKFM=F Big=F
 Integral buffers will be    131072 words long.
 Raffenetti 1 integral format.
 Two-electron integral symmetry is turned on.
 One-electron integrals computed using PRISM.
 NBasis=    34 RedAO= T EigKep=  4.87D-03  NBF=    16     2     6    10
 NBsUse=    34 1.00D-06 EigRej= -1.00D+00 NBFU=    16     2     6    10
 Initial guess from the checkpoint file:  "H20mp2.chk"
 B after Tr=     0.000000    0.000000    0.000000
         Rot=    1.000000    0.000000    0.000000    0.000000 Ang=   0.00 deg.
 Initial guess orbital symmetries:
       Occupied  (A1) (A1) (B2) (A1) (B1)
       Virtual   (A1) (A1) (A1) (A1) (A1) (A1) (A1) (A1) (A1) (A1)
                 (A1) (A1) (A1) (A2) (A2) (B1) (B1) (B1) (B1) (B1)
                 (B2) (B2) (B2) (B2) (B2) (B2) (B2) (B2) (B2)
 Keep R1 ints in memory in symmetry-blocked form, NReq=1032961.
 Requested convergence on RMS density matrix=1.00D-08 within 128 cycles.
 Requested convergence on MAX density matrix=1.00D-06.
 Requested convergence on             energy=1.00D-06.
 No special actions if energy rises.
 SCF Done:  E(RHF) =  -76.0525410659     A.U. after    8 cycles
            NFock=  8  Conv=0.54D-08     -V/T= 2.0009
 Range of M.O.s used for correlation:     1    34
 NBasis=    34 NAE=     5 NBE=     5 NFC=     0 NFV=     0
 NROrb=     34 NOA=     5 NOB=     5 NVA=    29 NVB=    29
 Fully direct method using O(ONN) memory.
 JobTyp=1 Pass  1:  I=   1 to   5 NPSUse=  2 ParTrn=T ParDer=T DoDerP=T.
 Spin components of T(2) and E(2):
     alpha-alpha T2 =       0.7085809365D-02 E2=     -0.2932450191D-01
     alpha-beta  T2 =       0.4154595215D-01 E2=     -0.1825333754D+00
     beta-beta   T2 =       0.7085809365D-02 E2=     -0.2932450191D-01
 ANorm=    0.1027481178D+01
 E2 =    -0.2411823792D+00 EUMP2 =    -0.76293723445115D+02
          IDoAtm=111
          Differentiating once with respect to electric field.
                with respect to dipole field.
          Differentiating once with respect to nuclear coordinates.
 Keep R1 ints in memory in symmetry-blocked form, NReq=1016610.
          There are     1 degrees of freedom in the 1st order CPHF.  IDoFFX=0 NUNeed=     1.
 LinEq1:  Iter=  0 NonCon=     1 RMS=7.99D-03 Max=6.38D-02 NDo=     1
 AX will form     1 AO Fock derivatives at one time.
 LinEq1:  Iter=  1 NonCon=     1 RMS=8.52D-04 Max=5.01D-03 NDo=     1
 LinEq1:  Iter=  2 NonCon=     1 RMS=1.28D-04 Max=7.64D-04 NDo=     1
 LinEq1:  Iter=  3 NonCon=     1 RMS=5.15D-05 Max=3.85D-04 NDo=     1
 LinEq1:  Iter=  4 NonCon=     1 RMS=8.56D-06 Max=4.02D-05 NDo=     1
 LinEq1:  Iter=  5 NonCon=     1 RMS=1.54D-06 Max=6.28D-06 NDo=     1
 LinEq1:  Iter=  6 NonCon=     1 RMS=2.59D-07 Max=1.26D-06 NDo=     1
 LinEq1:  Iter=  7 NonCon=     1 RMS=3.31D-08 Max=2.43D-07 NDo=     1
 LinEq1:  Iter=  8 NonCon=     1 RMS=3.76D-09 Max=2.39D-08 NDo=     1
 LinEq1:  Iter=  9 NonCon=     1 RMS=4.22D-10 Max=2.26D-09 NDo=     1
 LinEq1:  Iter= 10 NonCon=     0 RMS=2.96D-11 Max=1.72D-10 NDo=     1
 Linear equations converged to 1.000D-10 1.000D-09 after    10 iterations.
 End of Minotr F.D. properties file   721 does not exist.
 End of Minotr F.D. properties file   722 does not exist.
 End of Minotr F.D. properties file   788 does not exist.
 Calling FoFJK, ICntrl=  10002127 FMM=F ISym2X=1 I1Cent= 0 IOpClX= 0 NMat=1 NMatS=1 NMatT=0.
 ***** Axes restored to original set *****
 -------------------------------------------------------------------
 Center     Atomic                   Forces (Hartrees/Bohr)
 Number     Number              X              Y              Z
 -------------------------------------------------------------------
      1        8          -0.000225715    0.000000000   -0.000159519
      2        1           0.000017925    0.000000000    0.000214086
      3        1           0.000207790    0.000000000   -0.000054567
 -------------------------------------------------------------------
 Cartesian Forces:  Max     0.000225715 RMS     0.000136911

 GradGradGradGradGradGradGradGradGradGradGradGradGradGradGradGradGradGrad
 Berny optimization.
 Using GEDIIS/GDIIS optimizer.
 FormGI is forming the generalized inverse of G from B-inverse, IUseBI=4.
 Internal  Forces:  Max     0.000214728 RMS     0.000175468
 Search for a local minimum.
 Step number   3 out of a maximum of   20
 All quantities printed in internal units (Hartrees-Bohrs-Radians)
 Mixed Optimization -- En-DIIS/RFO-DIIS
 Update second derivatives using D2CorX and points    1    2    3
 DE= -1.79D-05 DEPred=-1.70D-05 R= 1.05D+00
 TightC=F SS=  1.41D+00  RLast= 1.08D-02 DXNew= 5.0454D-01 3.2378D-02
 Trust test= 1.05D+00 RLast= 1.08D-02 DXMaxT set to 3.00D-01
 The second derivative matrix:
                          R1        R2        A1
           R1           0.55188
           R2          -0.00285   0.55188
           A1           0.02570   0.02570   0.15164
 ITU=  1  1  0
 Use linear search instead of GDIIS.
     Eigenvalues ---    0.14835   0.55232   0.55473
 RFO step:  Lambda=-2.83464736D-08 EMin= 1.48345810D-01
 Quartic linear search produced a step of  0.06856.
 Iteration  1 RMS(Cart)=  0.00024769 RMS(Int)=  0.00000003
 Iteration  2 RMS(Cart)=  0.00000003 RMS(Int)=  0.00000000
 ClnCor:  largest displacement from symmetrization is 1.11D-15 for atom     2.
 Variable       Old X    -DE/DX   Delta X   Delta X   Delta X     New X
                                 (Linear)    (Quad)   (Total)
    R1        1.81182   0.00021   0.00033   0.00008   0.00040   1.81222
    R2        1.81182   0.00021   0.00033   0.00008   0.00040   1.81222
    A1        1.80732  -0.00001  -0.00058   0.00035  -0.00022   1.80709
         Item               Value     Threshold  Converged?
 Maximum Force            0.000215     0.000450     YES
 RMS     Force            0.000175     0.000300     YES
 Maximum Displacement     0.000234     0.001800     YES
 RMS     Displacement     0.000248     0.001200     YES
 Predicted change in Energy=-8.749688D-08
 Optimization completed.
    -- Stationary point found.
                           ----------------------------
                           !   Optimized Parameters   !
                           ! (Angstroms and Degrees)  !
 --------------------------                            --------------------------
 ! Name  Definition              Value          Derivative Info.                !
 --------------------------------------------------------------------------------
 ! R1    R(1,2)                  0.9588         -DE/DX =    0.0002              !
 ! R2    R(1,3)                  0.9588         -DE/DX =    0.0002              !
 ! A1    A(2,1,3)              103.5516         -DE/DX =    0.0                 !
 --------------------------------------------------------------------------------
 GradGradGradGradGradGradGradGradGradGradGradGradGradGradGradGradGradGrad

                          Input orientation:                          
 ---------------------------------------------------------------------
 Center     Atomic      Atomic             Coordinates (Angstroms)
 Number     Number       Type             X           Y           Z
 ---------------------------------------------------------------------
      1          8           0       -0.021326    0.000000   -0.015072
      2          1           0        0.028421    0.000000    0.942409
      3          1           0        0.897841    0.000000   -0.287792
 ---------------------------------------------------------------------
                    Distance matrix (angstroms):
                    1          2          3
     1  O    0.000000
     2  H    0.958772   0.000000
     3  H    0.958772   1.506414   0.000000
 Stoichiometry    H2O
 Framework group  C2V[C2(O),SGV(H2)]
 Deg. of freedom     2
 Full point group                 C2V     NOp   4
 Largest Abelian subgroup         C2V     NOp   4
 Largest concise Abelian subgroup C2      NOp   2
                         Standard orientation:                         
 ---------------------------------------------------------------------
 Center     Atomic      Atomic             Coordinates (Angstroms)
 Number     Number       Type             X           Y           Z
 ---------------------------------------------------------------------
      1          8           0        0.000000    0.000000    0.118646
      2          1           0        0.000000    0.753207   -0.474585
      3          1           0        0.000000   -0.753207   -0.474585
 ---------------------------------------------------------------------
 Rotational constants (GHZ):    802.2313872    441.9501932    284.9634829

 **********************************************************************

            Population analysis using the SCF density.

 **********************************************************************

 Orbital symmetries:
       Occupied  (A1) (A1) (B2) (A1) (B1)
       Virtual   (A1) (B2) (A1) (B1) (B2) (A1) (B2) (A1) (B2) (A1)
                 (B1) (A1) (A2) (A1) (B1) (B2) (B2) (A1) (A1) (B2)
                 (B1) (A2) (A1) (A1) (B2) (B1) (A1) (B2) (A1)
 The electronic state is 1-A1.
 Alpha  occ. eigenvalues --  -20.56729  -1.35549  -0.71795  -0.58596  -0.51042
 Alpha virt. eigenvalues --    0.14361   0.21284   0.24218   0.24547   0.26378
 Alpha virt. eigenvalues --    0.30462   0.66496   0.68802   1.17816   1.19260
 Alpha virt. eigenvalues --    1.24380   1.43950   1.50822   1.55656   1.70843
 Alpha virt. eigenvalues --    1.93961   2.27783   2.42438   2.65730   2.85327
 Alpha virt. eigenvalues --    3.48807   3.53135   3.71116   4.07367   4.30893
 Alpha virt. eigenvalues --    5.48924   5.87949   6.17833  51.54960
          Condensed to atoms (all electrons):
               1          2          3
     1  O    7.847960   0.332046   0.332046
     2  H    0.332046   0.432159  -0.020231
     3  H    0.332046  -0.020231   0.432159
 Mulliken charges:
               1
     1  O   -0.512052
     2  H    0.256026
     3  H    0.256026
 Sum of Mulliken charges =   0.00000
 Mulliken charges with hydrogens summed into heavy atoms:
               1
     1  O    0.000000
 Electronic spatial extent (au):  <R**2>=             19.5278
 Charge=              0.0000 electrons
 Dipole moment (field-independent basis, Debye):
    X=              0.0000    Y=              0.0000    Z=             -2.2562  Tot=              2.2562
 Quadrupole moment (field-independent basis, Debye-Ang):
   XX=             -7.5616   YY=             -4.2877   ZZ=             -6.2618
   XY=              0.0000   XZ=              0.0000   YZ=              0.0000
 Traceless Quadrupole moment (field-independent basis, Debye-Ang):
   XX=             -1.5245   YY=              1.7493   ZZ=             -0.2248
   XY=              0.0000   XZ=              0.0000   YZ=              0.0000
 Octapole moment (field-independent basis, Debye-Ang**2):
  XXX=              0.0000  YYY=              0.0000  ZZZ=             -1.5856  XYY=              0.0000
  XXY=              0.0000  XXZ=             -0.4444  XZZ=              0.0000  YZZ=              0.0000
  YYZ=             -1.4424  XYZ=              0.0000
 Hexadecapole moment (field-independent basis, Debye-Ang**3):
 XXXX=             -6.6329 YYYY=             -5.8950 ZZZZ=             -7.2321 XXXY=              0.0000
 XXXZ=              0.0000 YYYX=              0.0000 YYYZ=              0.0000 ZZZX=              0.0000
 ZZZY=              0.0000 XXYY=             -2.3867 XXZZ=             -2.3717 YYZZ=             -1.8204
 XXYZ=              0.0000 YYXZ=              0.0000 ZZXY=              0.0000
 N-N= 9.182198051366D+00 E-N=-1.989831980701D+02  KE= 7.598793630093D+01
 Symmetry A1   KE= 6.793733348535D+01
 Symmetry A2   KE= 9.024079952310D-35
 Symmetry B1   KE= 4.481764898465D+00
 Symmetry B2   KE= 3.568837917120D+00
 B after Tr=     0.028210    0.000000    0.019937
         Rot=    1.000000    0.000000    0.000000    0.000000 Ang=   0.00 deg.
 Final structure in terms of initial Z-matrix:
 O
 H,1,B1
 H,1,B2,2,A1
      Variables:
 B1=0.95877211
 B2=0.95877211
 A1=103.5515717
 1\1\GINC-TC-NODE166\FOpt\RMP2-Full\6-311+G(d,p)\H2O1\MAXB2\09-Oct-2016
 \0\\# opt freq mp2(full)/6-311+g** geom=connectivity\\Title Card Requi
 red\\0,1\O,-0.0213261645,0.,-0.015071843\H,0.028421184,0.,0.9424087888
 \H,0.8978408117,0.,-0.2877915316\\Version=ES64L-G09RevD.01\State=1-A1\
 HF=-76.0525411\MP2=-76.2937234\RMSD=5.360e-09\RMSF=1.369e-04\Dipole=0.
 7033712,0.,0.4970936\PG=C02V [C2(O1),SGV(H2)]\\@


 We make a living by what we get,
 we make a life by what we give.
                   -- Sir Winston Churchill
 Job cpu time:       0 days  0 hours  0 minutes 10.3 seconds.
 File lengths (MBytes):  RWF=      5 Int=      0 D2E=      0 Chk=      2 Scr=      1
 Normal termination of Gaussian 09 at Sun Oct  9 16:41:27 2016.
 Link1:  Proceeding to internal job step number  2.
 ----------------------------------------------------------------------
 #N Geom=AllCheck Guess=TCheck SCRF=Check GenChk RMP2-Full/6-311+G(d,p)
  Freq
 ----------------------------------------------------------------------
 1/10=4,29=7,30=1,38=1,40=1/1,3;
 2/12=2,40=1/2;
 3/5=4,6=6,7=111,11=1,14=-4,16=1,25=1,30=1,70=2,71=2,116=1,140=1/1,2,3;
 4/5=101/1;
 5/5=2,98=1/2;
 8/6=3,8=1,10=90,19=11/1;
 9/15=3,16=-3/6;
 11/6=1,8=1,15=11,17=11,24=-1,27=1,28=-2,29=300,32=6,42=3/1,2,10;
 10/6=2,21=1/2;
 8/6=4,8=1,10=90,19=11/11,4;
 10/5=1,20=4/2;
 11/12=2,14=11,16=1,28=-2,42=3/2,10,12;
 6/7=2,8=2,9=2,10=2/1;
 7/8=1,10=1,12=2,25=1,44=2/1,2,3,16;
 1/10=4,30=1/3;
 99//99;
 Structure from the checkpoint file:  "H20mp2.chk"
 -------------------
 Title Card Required
 -------------------
 Charge =  0 Multiplicity = 1
 Redundant internal coordinates found in file.
 O,0,-0.0213261645,0.,-0.015071843
 H,0,0.028421184,0.,0.9424087888
 H,0,0.8978408117,0.,-0.2877915316
 Recover connectivity data from disk.

 GradGradGradGradGradGradGradGradGradGradGradGradGradGradGradGradGradGrad
 Berny optimization.
 Initialization pass.
                           ----------------------------
                           !    Initial Parameters    !
                           ! (Angstroms and Degrees)  !
 --------------------------                            --------------------------
 ! Name  Definition              Value          Derivative Info.                !
 --------------------------------------------------------------------------------
 ! R1    R(1,2)                  0.9588         calculate D2E/DX2 analytically  !
 ! R2    R(1,3)                  0.9588         calculate D2E/DX2 analytically  !
 ! A1    A(2,1,3)              103.5516         calculate D2E/DX2 analytically  !
 --------------------------------------------------------------------------------
 Trust Radius=3.00D-01 FncErr=1.00D-07 GrdErr=1.00D-07
 Number of steps in this run=      2 maximum allowed number of steps=      2.
 GradGradGradGradGradGradGradGradGradGradGradGradGradGradGradGradGradGrad

                          Input orientation:                          
 ---------------------------------------------------------------------
 Center     Atomic      Atomic             Coordinates (Angstroms)
 Number     Number       Type             X           Y           Z
 ---------------------------------------------------------------------
      1          8           0       -0.021326    0.000000   -0.015072
      2          1           0        0.028421    0.000000    0.942409
      3          1           0        0.897841    0.000000   -0.287792
 ---------------------------------------------------------------------
                    Distance matrix (angstroms):
                    1          2          3
     1  O    0.000000
     2  H    0.958772   0.000000
     3  H    0.958772   1.506414   0.000000
 Stoichiometry    H2O
 Framework group  C2V[C2(O),SGV(H2)]
 Deg. of freedom     2
 Full point group                 C2V     NOp   4
 Largest Abelian subgroup         C2V     NOp   4
 Largest concise Abelian subgroup C2      NOp   2
                         Standard orientation:                         
 ---------------------------------------------------------------------
 Center     Atomic      Atomic             Coordinates (Angstroms)
 Number     Number       Type             X           Y           Z
 ---------------------------------------------------------------------
      1          8           0        0.000000    0.000000    0.118646
      2          1           0        0.000000    0.753207   -0.474585
      3          1           0        0.000000   -0.753207   -0.474585
 ---------------------------------------------------------------------
 Rotational constants (GHZ):    802.2313872    441.9501932    284.9634829
 Standard basis: 6-311+G(d,p) (5D, 7F)
 There are    17 symmetry adapted cartesian basis functions of A1  symmetry.
 There are     2 symmetry adapted cartesian basis functions of A2  symmetry.
 There are     6 symmetry adapted cartesian basis functions of B1  symmetry.
 There are    10 symmetry adapted cartesian basis functions of B2  symmetry.
 There are    16 symmetry adapted basis functions of A1  symmetry.
 There are     2 symmetry adapted basis functions of A2  symmetry.
 There are     6 symmetry adapted basis functions of B1  symmetry.
 There are    10 symmetry adapted basis functions of B2  symmetry.
    34 basis functions,    52 primitive gaussians,    35 cartesian basis functions
     5 alpha electrons        5 beta electrons
       nuclear repulsion energy         9.1821980514 Hartrees.
 NAtoms=    3 NActive=    3 NUniq=    2 SFac= 2.25D+00 NAtFMM=   60 NAOKFM=F Big=F
 Integral buffers will be    131072 words long.
 Raffenetti 1 integral format.
 Two-electron integral symmetry is turned on.
 One-electron integrals computed using PRISM.
 NBasis=    34 RedAO= T EigKep=  4.87D-03  NBF=    16     2     6    10
 NBsUse=    34 1.00D-06 EigRej= -1.00D+00 NBFU=    16     2     6    10
 Initial guess from the checkpoint file:  "H20mp2.chk"
 B after Tr=     0.000000    0.000000    0.000000
         Rot=    1.000000    0.000000    0.000000    0.000000 Ang=   0.00 deg.
 Initial guess orbital symmetries:
       Occupied  (A1) (A1) (B2) (A1) (B1)
       Virtual   (A1) (B2) (A1) (B1) (B2) (A1) (B2) (A1) (B2) (A1)
                 (B1) (A1) (A2) (A1) (B1) (B2) (B2) (A1) (A1) (B2)
                 (B1) (A2) (A1) (A1) (B2) (B1) (A1) (B2) (A1)
 Keep R1 ints in memory in symmetry-blocked form, NReq=1032961.
 Requested convergence on RMS density matrix=1.00D-08 within 128 cycles.
 Requested convergence on MAX density matrix=1.00D-06.
 Requested convergence on             energy=1.00D-06.
 No special actions if energy rises.
 SCF Done:  E(RHF) =  -76.0525410659     A.U. after    1 cycles
            NFock=  1  Conv=0.90D-09     -V/T= 2.0009
 Range of M.O.s used for correlation:     1    34
 NBasis=    34 NAE=     5 NBE=     5 NFC=     0 NFV=     0
 NROrb=     34 NOA=     5 NOB=     5 NVA=    29 NVB=    29
 Disk-based method using ON**2 memory for  5 occupieds at a time.
 Permanent disk used for amplitudes=       25085 words.
 Estimated scratch disk usage=      944236 words.
 Actual    scratch disk usage=      944236 words.
 JobTyp=1 Pass  1:  I=   1 to   5 NPSUse=  2 ParTrn=T ParDer=T DoDerP=T.
 (rs|ai) integrals will be sorted in core.
 Spin components of T(2) and E(2):
     alpha-alpha T2 =       0.7085809386D-02 E2=     -0.2932450196D-01
     alpha-beta  T2 =       0.4154595222D-01 E2=     -0.1825333755D+00
     beta-beta   T2 =       0.7085809386D-02 E2=     -0.2932450196D-01
 ANorm=    0.1027481178D+01
 E2 =    -0.2411823794D+00 EUMP2 =    -0.76293723445348D+02
 G2DrvN: will do     4 centers at a time, making    1 passes.
 Calling FoFCou, ICntrl=  3107 FMM=F I1Cent=   0 AccDes= 0.00D+00.
 End of G2Drv F.D. properties file   721 does not exist.
 End of G2Drv F.D. properties file   722 does not exist.
 End of G2Drv F.D. properties file   788 does not exist.
          IDoAtm=111
          Differentiating once with respect to electric field.
                with respect to dipole field.
          Differentiating once with respect to nuclear coordinates.
 Keep R1 ints in memory in symmetry-blocked form, NReq=1016610.
          There are    12 degrees of freedom in the 1st order CPHF.  IDoFFX=6 NUNeed=    12.
      9 vectors produced by pass  0 Test12= 1.21D-15 8.33D-09 XBig12= 1.43D+00 7.06D-01.
 AX will form     9 AO Fock derivatives at one time.
      9 vectors produced by pass  1 Test12= 1.21D-15 8.33D-09 XBig12= 8.80D-02 1.26D-01.
      9 vectors produced by pass  2 Test12= 1.21D-15 8.33D-09 XBig12= 2.14D-03 1.67D-02.
      9 vectors produced by pass  3 Test12= 1.21D-15 8.33D-09 XBig12= 2.55D-05 2.05D-03.
      9 vectors produced by pass  4 Test12= 1.21D-15 8.33D-09 XBig12= 2.27D-07 2.04D-04.
      9 vectors produced by pass  5 Test12= 1.21D-15 8.33D-09 XBig12= 1.16D-09 1.24D-05.
      7 vectors produced by pass  6 Test12= 1.21D-15 8.33D-09 XBig12= 3.88D-12 6.37D-07.
      2 vectors produced by pass  7 Test12= 1.21D-15 8.33D-09 XBig12= 1.44D-14 4.81D-08.
 InvSVY:  IOpt=1 It=  1 EMax= 4.44D-16
 Solved reduced A of dimension    63 with     9 vectors.
 End of Minotr F.D. properties file   721 does not exist.
 End of Minotr F.D. properties file   722 does not exist.
 End of Minotr F.D. properties file   788 does not exist.
 MDV=   805306368.
 Form MO integral derivatives with frozen-active canonical formalism.
 Discarding MO integrals.
 Reordered first order wavefunction length =        42050
 In DefCFB: NBatch=  1 ICI=  5 ICA= 29 LFMax= 29
            Large arrays: LIAPS=      690200 LIARS=      817075 words.
 Semi-Direct transformation.
 ModeAB=           4 MOrb=             5 LenV=     805126245
 LASXX=        85460 LTotXX=       85460 LenRXX=      178485
 LTotAB=       93025 MaxLAS=       85170 LenRXY=           0
 NonZer=      263945 LenScr=      791552 LnRSAI=       85170
 LnScr1=      785920 LExtra=           0 Total=      1841127
 MaxDsk=          -1 SrtSym=           T ITran=            4
 JobTyp=0 Pass  1:  I=   1 to   5.
 (rs|ai) integrals will be sorted in core.
 Spin components of T(2) and E(2):
     alpha-alpha T2 =       0.7085809386D-02 E2=     -0.2932450196D-01
     alpha-beta  T2 =       0.4154595222D-01 E2=     -0.1825333755D+00
     beta-beta   T2 =       0.7085809386D-02 E2=     -0.2932450196D-01
 ANorm=    0.1453077817D+01
 E2 =    -0.2411823794D+00 EUMP2 =    -0.76293723445348D+02
          IDoAtm=111
          Differentiating once with respect to electric field.
                with respect to dipole field.
          Differentiating once with respect to nuclear coordinates.
          There are     1 degrees of freedom in the 1st order CPHF.  IDoFFX=0 NUNeed=     1.
 LinEq1:  Iter=  0 NonCon=     1 RMS=7.99D-03 Max=6.38D-02 NDo=     1
 LinEq1:  Iter=  1 NonCon=     1 RMS=8.52D-04 Max=5.01D-03 NDo=     1
 LinEq1:  Iter=  2 NonCon=     1 RMS=1.28D-04 Max=7.64D-04 NDo=     1
 LinEq1:  Iter=  3 NonCon=     1 RMS=5.15D-05 Max=3.85D-04 NDo=     1
 LinEq1:  Iter=  4 NonCon=     1 RMS=8.56D-06 Max=4.02D-05 NDo=     1
 LinEq1:  Iter=  5 NonCon=     1 RMS=1.54D-06 Max=6.28D-06 NDo=     1
 LinEq1:  Iter=  6 NonCon=     1 RMS=2.59D-07 Max=1.26D-06 NDo=     1
 LinEq1:  Iter=  7 NonCon=     1 RMS=3.31D-08 Max=2.43D-07 NDo=     1
 LinEq1:  Iter=  8 NonCon=     1 RMS=3.76D-09 Max=2.39D-08 NDo=     1
 LinEq1:  Iter=  9 NonCon=     1 RMS=4.22D-10 Max=2.26D-09 NDo=     1
 LinEq1:  Iter= 10 NonCon=     0 RMS=2.96D-11 Max=1.72D-10 NDo=     1
 Linear equations converged to 1.000D-10 1.000D-09 after    10 iterations.
 End of Minotr F.D. properties file   721 does not exist.
 End of Minotr F.D. properties file   722 does not exist.
 End of Minotr F.D. properties file   788 does not exist.
 Symmetrizing basis deriv contribution to polar:
 IMax=3 JMax=2 DiffMx= 0.00D+00
 G2DrvN: will do     4 centers at a time, making    1 passes.
 Calling FoFCou, ICntrl=  3107 FMM=F I1Cent=   0 AccDes= 0.00D+00.
 End of G2Drv F.D. properties file   721 does not exist.
 End of G2Drv F.D. properties file   722 does not exist.
 End of G2Drv F.D. properties file   788 does not exist.
 R2 and R3 integrals will be kept in memory, NReq=     1217530.
 DD1Dir will call FoFMem   1 times, MxPair=        30
 NAB=    15 NAA=     0 NBB=     0.
 Discarding MO integrals.

 **********************************************************************

            Population analysis using the SCF density.

 **********************************************************************

 Orbital symmetries:
       Occupied  (A1) (A1) (B2) (A1) (B1)
       Virtual   (A1) (B2) (A1) (B1) (B2) (A1) (B2) (A1) (B2) (A1)
                 (B1) (A1) (A2) (A1) (B1) (B2) (B2) (A1) (A1) (B2)
                 (B1) (A2) (A1) (A1) (B2) (B1) (A1) (B2) (A1)
 The electronic state is 1-A1.
 Alpha  occ. eigenvalues --  -20.56729  -1.35549  -0.71795  -0.58596  -0.51042
 Alpha virt. eigenvalues --    0.14361   0.21284   0.24218   0.24547   0.26378
 Alpha virt. eigenvalues --    0.30462   0.66496   0.68802   1.17816   1.19260
 Alpha virt. eigenvalues --    1.24380   1.43950   1.50822   1.55656   1.70843
 Alpha virt. eigenvalues --    1.93961   2.27783   2.42438   2.65730   2.85327
 Alpha virt. eigenvalues --    3.48807   3.53135   3.71116   4.07367   4.30893
 Alpha virt. eigenvalues --    5.48924   5.87949   6.17833  51.54960
          Condensed to atoms (all electrons):
               1          2          3
     1  O    7.847960   0.332046   0.332046
     2  H    0.332046   0.432159  -0.020231
     3  H    0.332046  -0.020231   0.432159
 Mulliken charges:
               1
     1  O   -0.512052
     2  H    0.256026
     3  H    0.256026
 Sum of Mulliken charges =   0.00000
 Mulliken charges with hydrogens summed into heavy atoms:
               1
     1  O    0.000000
 APT charges:
               1
     1  O   -0.557887
     2  H    0.278943
     3  H    0.278943
 Sum of APT charges =   0.00000
 APT charges with hydrogens summed into heavy atoms:
               1
     1  O    0.000000
 Electronic spatial extent (au):  <R**2>=             19.5278
 Charge=              0.0000 electrons
 Dipole moment (field-independent basis, Debye):
    X=              0.0000    Y=              0.0000    Z=             -2.2562  Tot=              2.2562
 Quadrupole moment (field-independent basis, Debye-Ang):
   XX=             -7.5616   YY=             -4.2877   ZZ=             -6.2618
   XY=              0.0000   XZ=              0.0000   YZ=              0.0000
 Traceless Quadrupole moment (field-independent basis, Debye-Ang):
   XX=             -1.5245   YY=              1.7493   ZZ=             -0.2248
   XY=              0.0000   XZ=              0.0000   YZ=              0.0000
 Octapole moment (field-independent basis, Debye-Ang**2):
  XXX=              0.0000  YYY=              0.0000  ZZZ=             -1.5856  XYY=              0.0000
  XXY=              0.0000  XXZ=             -0.4444  XZZ=              0.0000  YZZ=              0.0000
  YYZ=             -1.4424  XYZ=              0.0000
 Hexadecapole moment (field-independent basis, Debye-Ang**3):
 XXXX=             -6.6329 YYYY=             -5.8950 ZZZZ=             -7.2321 XXXY=              0.0000
 XXXZ=              0.0000 YYYX=              0.0000 YYYZ=              0.0000 ZZZX=              0.0000
 ZZZY=              0.0000 XXYY=             -2.3867 XXZZ=             -2.3717 YYZZ=             -1.8204
 XXYZ=              0.0000 YYXZ=              0.0000 ZZXY=              0.0000
 N-N= 9.182198051366D+00 E-N=-1.989831980870D+02  KE= 7.598793631120D+01
 Symmetry A1   KE= 6.793733348689D+01
 Symmetry A2   KE= 1.503256420733D-34
 Symmetry B1   KE= 4.481764882431D+00
 Symmetry B2   KE= 3.568837941882D+00
  Exact polarizability:   6.701   0.000   7.939   0.000   0.000   6.598
 Approx polarizability:   4.168   0.000   6.220   0.000   0.000   4.955
 Calling FoFJK, ICntrl=  10100127 FMM=F ISym2X=1 I1Cent= 0 IOpClX= 0 NMat=1 NMatS=1 NMatT=0.
 Full mass-weighted force constant matrix:
 Low frequencies ---  -60.3287  -56.9780  -55.0452    0.0006    0.0014    0.0017
 Low frequencies --- 1627.5885 3890.3412 4009.5794
 Diagonal vibrational polarizability:
        0.0000000       0.1069947       0.6163601
 Harmonic frequencies (cm**-1), IR intensities (KM/Mole), Raman scattering
 activities (A**4/AMU), depolarization ratios for plane and unpolarized
 incident light, reduced masses (AMU), force constants (mDyne/A),
 and normal coordinates:
                      1                      2                      3
                     A1                     A1                     B2
 Frequencies --   1627.5885              3890.3412              4009.5794
 Red. masses --      1.0815                 1.0463                 1.0809
 Frc consts  --      1.6879                 9.3299                10.2385
 IR Inten    --     58.2838                13.6462                63.9185
  Atom  AN      X      Y      Z        X      Y      Z        X      Y      Z
     1   8     0.00   0.00   0.07     0.00   0.00   0.05     0.00   0.07   0.00
     2   1     0.00  -0.43  -0.56     0.00   0.58  -0.40     0.00  -0.55   0.44
     3   1     0.00   0.43  -0.56     0.00  -0.58  -0.40     0.00  -0.55  -0.44

 -------------------
 - Thermochemistry -
 -------------------
 Temperature   298.150 Kelvin.  Pressure   1.00000 Atm.
 Atom     1 has atomic number  8 and mass  15.99491
 Atom     2 has atomic number  1 and mass   1.00783
 Atom     3 has atomic number  1 and mass   1.00783
 Molecular mass:    18.01056 amu.
 Principal axes and moments of inertia in atomic units:
                           1         2         3
     Eigenvalues --     2.24965   4.08359   6.33324
           X            0.00000   0.00000   1.00000
           Y            1.00000   0.00000   0.00000
           Z            0.00000   1.00000   0.00000
 This molecule is an asymmetric top.
 Rotational symmetry number  2.
 Rotational temperatures (Kelvin)     38.50099    21.21024    13.67607
 Rotational constants (GHZ):         802.23139   441.95019   284.96348
 Zero-point vibrational energy      56987.2 (Joules/Mol)
                                   13.62026 (Kcal/Mol)
 Vibrational temperatures:   2341.73  5597.33  5768.88
          (Kelvin)
 
 Zero-point correction=                           0.021705 (Hartree/Particle)
 Thermal correction to Energy=                    0.024541
 Thermal correction to Enthalpy=                  0.025485
 Thermal correction to Gibbs Free Energy=         0.004067
 Sum of electronic and zero-point Energies=            -76.272018
 Sum of electronic and thermal Energies=               -76.269183
 Sum of electronic and thermal Enthalpies=             -76.268239
 Sum of electronic and thermal Free Energies=          -76.289657
 
                     E (Thermal)             CV                S
                      KCal/Mol        Cal/Mol-Kelvin    Cal/Mol-Kelvin
 Total                   15.400              6.009             45.078
 Electronic               0.000              0.000              0.000
 Translational            0.889              2.981             34.608
 Rotational               0.889              2.981             10.463
 Vibrational             13.622              0.048              0.007
                       Q            Log10(Q)             Ln(Q)
 Total Bot       0.134715D-01         -1.870584         -4.307179
 Total V=0       0.129755D+09          8.113123         18.681155
 Vib (Bot)       0.103863D-09         -9.983538        -22.987946
 Vib (V=0)       0.100039D+01          0.000169          0.000388
 Electronic      0.100000D+01          0.000000          0.000000
 Translational   0.300432D+07          6.477746         14.915562
 Rotational      0.431726D+02          1.635208          3.765205
 ***** Axes restored to original set *****
 -------------------------------------------------------------------
 Center     Atomic                   Forces (Hartrees/Bohr)
 Number     Number              X              Y              Z
 -------------------------------------------------------------------
      1        8          -0.000225716    0.000000000   -0.000159521
      2        1           0.000017926    0.000000000    0.000214087
      3        1           0.000207791    0.000000000   -0.000054566
 -------------------------------------------------------------------
 Cartesian Forces:  Max     0.000225716 RMS     0.000136912
 FormGI is forming the generalized inverse of G from B-inverse, IUseBI=4.

 GradGradGradGradGradGradGradGradGradGradGradGradGradGradGradGradGradGrad
 Berny optimization.
 Internal  Forces:  Max     0.000214728 RMS     0.000175469
 Search for a local minimum.
 Step number   1 out of a maximum of    2
 All quantities printed in internal units (Hartrees-Bohrs-Radians)
 Second derivative matrix not updated -- analytic derivatives used.
 The second derivative matrix:
                          R1        R2        A1
           R1           0.56070
           R2          -0.00821   0.56070
           A1           0.03043   0.03043   0.15741
 ITU=  0
     Eigenvalues ---    0.15278   0.55712   0.56891
 Angle between quadratic step and forces=  20.02 degrees.
 Linear search not attempted -- first point.
 Iteration  1 RMS(Cart)=  0.00024679 RMS(Int)=  0.00000003
 Iteration  2 RMS(Cart)=  0.00000003 RMS(Int)=  0.00000000
 ClnCor:  largest displacement from symmetrization is 7.45D-16 for atom     3.
 Variable       Old X    -DE/DX   Delta X   Delta X   Delta X     New X
                                 (Linear)    (Quad)   (Total)
    R1        1.81182   0.00021   0.00000   0.00040   0.00040   1.81222
    R2        1.81182   0.00021   0.00000   0.00040   0.00040   1.81222
    A1        1.80732  -0.00001   0.00000  -0.00023  -0.00023   1.80708
         Item               Value     Threshold  Converged?
 Maximum Force            0.000215     0.000450     YES
 RMS     Force            0.000175     0.000300     YES
 Maximum Displacement     0.000230     0.001800     YES
 RMS     Displacement     0.000247     0.001200     YES
 Predicted change in Energy=-8.765192D-08
 Optimization completed.
    -- Stationary point found.
                           ----------------------------
                           !   Optimized Parameters   !
                           ! (Angstroms and Degrees)  !
 --------------------------                            --------------------------
 ! Name  Definition              Value          Derivative Info.                !
 --------------------------------------------------------------------------------
 ! R1    R(1,2)                  0.9588         -DE/DX =    0.0002              !
 ! R2    R(1,3)                  0.9588         -DE/DX =    0.0002              !
 ! A1    A(2,1,3)              103.5516         -DE/DX =    0.0                 !
 --------------------------------------------------------------------------------
 GradGradGradGradGradGradGradGradGradGradGradGradGradGradGradGradGradGrad

 1\1\GINC-TC-NODE166\Freq\RMP2-Full\6-311+G(d,p)\H2O1\MAXB2\09-Oct-2016
 \0\\#N Geom=AllCheck Guess=TCheck SCRF=Check GenChk RMP2-Full/6-311+G(
 d,p) Freq\\Title Card Required\\0,1\O,-0.0213261645,0.,-0.015071843\H,
 0.028421184,0.,0.9424087888\H,0.8978408117,0.,-0.2877915316\\Version=E
 S64L-G09RevD.01\State=1-A1\HF=-76.0525411\MP2=-76.2937234\RMSD=9.004e-
 10\RMSF=1.369e-04\ZeroPoint=0.0217053\Thermal=0.0245407\Dipole=0.70337
 12,0.,0.4970936\DipoleDeriv=-0.4208611,0.,0.0898556,0.,-0.7682991,0.,0
 .0898556,0.,-0.4845002,0.2678559,0.,-0.0910966,0.,0.3841495,0.,-0.0394
 297,0.,0.1848248,0.1530053,0.,0.001241,0.,0.3841495,0.,-0.0504259,0.,0
 .2996754\Polar=7.0443951,0.,6.7011643,-0.6320029,0.,7.4920031\PG=C02V 
 [C2(O1),SGV(H2)]\NImag=0\\0.55129827,0.,-0.00024655,-0.10659408,0.,0.6
 2679216,-0.04436149,0.,-0.05984153,0.04747456,0.,0.00012328,0.,0.,-0.0
 0011942,0.00262911,0.,-0.54468373,0.00987567,0.,0.56106246,-0.50693678
 ,0.,0.16643561,-0.00311307,0.,-0.01250478,0.51004986,0.,0.00012328,0.,
 0.,-0.00000386,0.,0.,-0.00011942,0.10396497,0.,-0.08210843,0.04996586,
 0.,-0.01637874,-0.15393083,0.,0.09848717\\0.00022572,0.,0.00015952,-0.
 00001793,0.,-0.00021409,-0.00020779,0.,0.00005457\\\@


 A COMPLEXITY IS MERELY A DISARRANGEMENT OF SIMPLICITIES.

                                    -- G. O. ABELL IN "EXPLORATION OF THE UNIVERSE"
 Job cpu time:       0 days  0 hours  0 minutes  8.4 seconds.
 File lengths (MBytes):  RWF=     19 Int=      0 D2E=      0 Chk=      2 Scr=      1
 Normal termination of Gaussian 09 at Sun Oct  9 16:41:32 2016.
