 Entering Gaussian System, Link 0=g09
 Initial command:
 /share/sw/gaussian/D.01/g09/l1.exe "/local/scratch/epluhar/Gau-127143.inp" -scrdir="/local/scratch/epluhar/"
 Entering Link 1 = /share/sw/gaussian/D.01/g09/l1.exe PID=    127144.
  
 Copyright (c) 1988,1990,1992,1993,1995,1998,2003,2009,2013,
            Gaussian, Inc.  All Rights Reserved.
  
 This is part of the Gaussian(R) 09 program.  It is based on
 the Gaussian(R) 03 system (copyright 2003, Gaussian, Inc.),
 the Gaussian(R) 98 system (copyright 1998, Gaussian, Inc.),
 the Gaussian(R) 94 system (copyright 1995, Gaussian, Inc.),
 the Gaussian 92(TM) system (copyright 1992, Gaussian, Inc.),
 the Gaussian 90(TM) system (copyright 1990, Gaussian, Inc.),
 the Gaussian 88(TM) system (copyright 1988, Gaussian, Inc.),
 the Gaussian 86(TM) system (copyright 1986, Carnegie Mellon
 University), and the Gaussian 82(TM) system (copyright 1983,
 Carnegie Mellon University). Gaussian is a federally registered
 trademark of Gaussian, Inc.
  
 This software contains proprietary and confidential information,
 including trade secrets, belonging to Gaussian, Inc.
  
 This software is provided under written license and may be
 used, copied, transmitted, or stored only in accord with that
 written license.
  
 The following legend is applicable only to US Government
 contracts under FAR:
  
                    RESTRICTED RIGHTS LEGEND
  
 Use, reproduction and disclosure by the US Government is
 subject to restrictions as set forth in subparagraphs (a)
 and (c) of the Commercial Computer Software - Restricted
 Rights clause in FAR 52.227-19.
  
 Gaussian, Inc.
 340 Quinnipiac St., Bldg. 40, Wallingford CT 06492
  
  
 ---------------------------------------------------------------
 Warning -- This program may not be used in any manner that
 competes with the business of Gaussian, Inc. or will provide
 assistance to any competitor of Gaussian, Inc.  The licensee
 of this program is prohibited from giving any competitor of
 Gaussian, Inc. access to this program.  By using this program,
 the user acknowledges that Gaussian, Inc. is engaged in the
 business of creating and licensing software in the field of
 computational chemistry and represents and warrants to the
 licensee that it is not a competitor of Gaussian, Inc. and that
 it will not use this program in any manner prohibited above.
 ---------------------------------------------------------------
  

 Cite this work as:
 Gaussian 09, Revision D.01,
 M. J. Frisch, G. W. Trucks, H. B. Schlegel, G. E. Scuseria, 
 M. A. Robb, J. R. Cheeseman, G. Scalmani, V. Barone, B. Mennucci, 
 G. A. Petersson, H. Nakatsuji, M. Caricato, X. Li, H. P. Hratchian, 
 A. F. Izmaylov, J. Bloino, G. Zheng, J. L. Sonnenberg, M. Hada, 
 M. Ehara, K. Toyota, R. Fukuda, J. Hasegawa, M. Ishida, T. Nakajima, 
 Y. Honda, O. Kitao, H. Nakai, T. Vreven, J. A. Montgomery, Jr., 
 J. E. Peralta, F. Ogliaro, M. Bearpark, J. J. Heyd, E. Brothers, 
 K. N. Kudin, V. N. Staroverov, T. Keith, R. Kobayashi, J. Normand, 
 K. Raghavachari, A. Rendell, J. C. Burant, S. S. Iyengar, J. Tomasi, 
 M. Cossi, N. Rega, J. M. Millam, M. Klene, J. E. Knox, J. B. Cross, 
 V. Bakken, C. Adamo, J. Jaramillo, R. Gomperts, R. E. Stratmann, 
 O. Yazyev, A. J. Austin, R. Cammi, C. Pomelli, J. W. Ochterski, 
 R. L. Martin, K. Morokuma, V. G. Zakrzewski, G. A. Voth, 
 P. Salvador, J. J. Dannenberg, S. Dapprich, A. D. Daniels, 
 O. Farkas, J. B. Foresman, J. V. Ortiz, J. Cioslowski, 
 and D. J. Fox, Gaussian, Inc., Wallingford CT, 2013.
 
 ******************************************
 Gaussian 09:  ES64L-G09RevD.01 24-Apr-2013
                 2-Sep-2016 
 ******************************************
 %nprocshared=2
 Will use up to    2 processors via shared memory.
 %mem=256MW
 %chk=A01.NH3.C3v.90.chk
 -----------------------------
 # opt=(z-matrix) rhf/6-31g(d)
 -----------------------------
 1/10=7,18=40,38=1/1,3;
 2/12=2,17=6,18=5,29=3,40=1/2;
 3/5=1,6=6,7=1,11=1,16=1,25=1,30=1,71=1,116=1/1,2,3;
 4//1;
 5/5=2,38=5/2;
 6/7=2,8=2,9=2,10=2,28=1/1;
 7/29=1/1,2,3,16;
 1/10=7,18=40/3(2);
 2/29=3/2;
 99//99;
 2/29=3/2;
 3/5=1,6=6,7=1,11=1,16=1,25=1,30=1,71=1,116=1/1,2,3;
 4/5=5,16=3,69=1/1;
 5/5=2,38=5/2;
 7//1,2,3,16;
 1/18=40/3(-5);
 2/29=3/2;
 6/7=2,8=2,9=2,10=2,19=2,28=1/1;
 99/9=1/99;
 -----------
 Ammonia c3v
 -----------
 Symbolic Z-matrix:
 Charge =  0 Multiplicity = 1
 N
 X                    1     1. 
 H                    1    B1       2    A1
 H                    1    B1       2    A1       3     120.     0
 H                    1    B1       2    A1       3    -120.     0
       Variables:
  B1                    1.                       
       Constants:
  A1                   90.                       
 

 GradGradGradGradGradGradGradGradGradGradGradGradGradGradGradGradGradGrad
 Berny optimization.
 Initialization pass.
                       ----------------------------
                       !    Initial Parameters    !
                       ! (Angstroms and Degrees)  !
 ----------------------                            ----------------------
 !      Name          Value   Derivative information (Atomic Units)     !
 ------------------------------------------------------------------------
 !       B1          1.0      estimate D2E/DX2                          !
 !       A1         90.0      Frozen                                    !
 ------------------------------------------------------------------------
 Trust Radius=3.00D-01 FncErr=1.00D-07 GrdErr=1.00D-07
 Number of steps in this run=     20 maximum allowed number of steps=    100.
 GradGradGradGradGradGradGradGradGradGradGradGradGradGradGradGradGradGrad

 ---------------------------------------------------------------------------------------------------
                            Z-MATRIX (ANGSTROMS AND DEGREES)
   CD    Cent   Atom    N1       Length/X        N2       Alpha/Y        N3        Beta/Z          J
 ---------------------------------------------------------------------------------------------------
      1      1  N 
      2         X        1   1.000000(     1)
      3      2  H        1   1.000000(     2)      2   90.000(     5)
      4      3  H        1   1.000000(     3)      2   90.000(     6)      3  120.000(     8)      0
      5      4  H        1   1.000000(     4)      2   90.000(     7)      3 -120.000(     9)      0
 ---------------------------------------------------------------------------------------------------
                         Z-Matrix orientation:                         
 ---------------------------------------------------------------------
 Center     Atomic      Atomic             Coordinates (Angstroms)
 Number     Number       Type             X           Y           Z
 ---------------------------------------------------------------------
      1          7           0        0.000000    0.000000    0.000000
      2         -1           0        0.000000    0.000000    1.000000
      3          1           0        1.000000    0.000000    0.000000
      4          1           0       -0.500000   -0.866025    0.000000
      5          1           0       -0.500000    0.866025    0.000000
 ---------------------------------------------------------------------
                    Distance matrix (angstroms):
                    1          2          3          4          5
     1  N    0.000000
     2  X    1.000000   0.000000
     3  H    1.000000   1.414214   0.000000
     4  H    1.000000   1.414214   1.732051   0.000000
     5  H    1.000000   1.414214   1.732051   1.732051   0.000000
 Stoichiometry    H3N
 Framework group  D3H[O(N),3C2(H)]
 Deg. of freedom     1
 Full point group                 D3H     NOp  12
 Largest Abelian subgroup         C2V     NOp   4
 Largest concise Abelian subgroup C2      NOp   2
                         Standard orientation:                         
 ---------------------------------------------------------------------
 Center     Atomic      Atomic             Coordinates (Angstroms)
 Number     Number       Type             X           Y           Z
 ---------------------------------------------------------------------
      1          7           0        0.000000    0.000000    0.000000
      2          1           0        0.000000    1.000000    0.000000
      3          1           0        0.866025   -0.500000    0.000000
      4          1           0       -0.866025   -0.500000    0.000000
 ---------------------------------------------------------------------
 Rotational constants (GHZ):    334.3034002    334.3034002    167.1517001
 Standard basis: 6-31G(d) (6D, 7F)
 There are    12 symmetry adapted cartesian basis functions of A1  symmetry.
 There are     1 symmetry adapted cartesian basis functions of A2  symmetry.
 There are     5 symmetry adapted cartesian basis functions of B1  symmetry.
 There are     3 symmetry adapted cartesian basis functions of B2  symmetry.
 There are    12 symmetry adapted basis functions of A1  symmetry.
 There are     1 symmetry adapted basis functions of A2  symmetry.
 There are     5 symmetry adapted basis functions of B1  symmetry.
 There are     3 symmetry adapted basis functions of B2  symmetry.
    21 basis functions,    40 primitive gaussians,    21 cartesian basis functions
     5 alpha electrons        5 beta electrons
       nuclear repulsion energy        12.0292831919 Hartrees.
 NAtoms=    4 NActive=    4 NUniq=    2 SFac= 4.00D+00 NAtFMM=   60 NAOKFM=F Big=F
 Integral buffers will be    131072 words long.
 Raffenetti 1 integral format.
 Two-electron integral symmetry is turned on.
 One-electron integrals computed using PRISM.
 NBasis=    21 RedAO= T EigKep=  4.43D-02  NBF=    12     1     5     3
 NBsUse=    21 1.00D-06 EigRej= -1.00D+00 NBFU=    12     1     5     3
 ExpMin= 1.61D-01 ExpMax= 4.17D+03 ExpMxC= 6.27D+02 IAcc=1 IRadAn=         1 AccDes= 0.00D+00
 Harris functional with IExCor=  205 and IRadAn=       1 diagonalized for initial guess.
 HarFok:  IExCor=  205 AccDes= 0.00D+00 IRadAn=         1 IDoV= 1 UseB2=F ITyADJ=14
 ICtDFT=  3500011 ScaDFX=  1.000000  1.000000  1.000000  1.000000
 FoFCou: FMM=F IPFlag=           0 FMFlag=      100000 FMFlg1=           0
         NFxFlg=           0 DoJE=T BraDBF=F KetDBF=T FulRan=T
         wScrn=  0.000000 ICntrl=     500 IOpCl=  0 I1Cent=   200000004 NGrid=           0
         NMat0=    1 NMatS0=      1 NMatT0=    0 NMatD0=    1 NMtDS0=    0 NMtDT0=    0
 Petite list used in FoFCou.
 Initial guess orbital symmetries:
       Occupied  (A1') (A1') (E') (E') (A2")
       Virtual   (A1') (E') (E') (A2") (E') (E') (A1') (E') (E')
                 (A1') (E") (E") (A1') (E') (E') (A1')
 The electronic state of the initial guess is 1-A1'.
 Keep R1 ints in memory in symmetry-blocked form, NReq=875975.
 Requested convergence on RMS density matrix=1.00D-08 within 128 cycles.
 Requested convergence on MAX density matrix=1.00D-06.
 Requested convergence on             energy=1.00D-06.
 No special actions if energy rises.
 SCF Done:  E(RHF) =  -56.1735925442     A.U. after    9 cycles
            NFock=  9  Conv=0.18D-08     -V/T= 2.0029

 **********************************************************************

            Population analysis using the SCF density.

 **********************************************************************

 Orbital symmetries:
       Occupied  (A1') (A1') (E') (E') (A2")
       Virtual   (A1') (E') (E') (E') (E') (A2") (A1') (E') (E')
                 (A1') (E") (E") (A1') (E') (E') (A1')
 The electronic state is 1-A1'.
 Alpha  occ. eigenvalues --  -15.51805  -1.11262  -0.64005  -0.64005  -0.37856
 Alpha virt. eigenvalues --    0.22846   0.32964   0.32964   0.94194   0.94194
 Alpha virt. eigenvalues --    0.97431   1.04928   1.25461   1.25461   1.32139
 Alpha virt. eigenvalues --    1.99614   1.99614   2.50270   2.69344   2.69344
 Alpha virt. eigenvalues --    4.12196
          Condensed to atoms (all electrons):
               1          2          3          4
     1  N    7.057138   0.341977   0.341977   0.341977
     2  H    0.341977   0.336795  -0.019897  -0.019897
     3  H    0.341977  -0.019897   0.336795  -0.019897
     4  H    0.341977  -0.019897  -0.019897   0.336795
 Mulliken charges:
               1
     1  N   -1.083068
     2  H    0.361023
     3  H    0.361023
     4  H    0.361023
 Sum of Mulliken charges =   0.00000
 Mulliken charges with hydrogens summed into heavy atoms:
               1
     1  N    0.000000
 Electronic spatial extent (au):  <R**2>=             25.7566
 Charge=              0.0000 electrons
 Dipole moment (field-independent basis, Debye):
    X=              0.0000    Y=              0.0000    Z=              0.0000  Tot=              0.0000
 Quadrupole moment (field-independent basis, Debye-Ang):
   XX=             -5.4224   YY=             -5.4224   ZZ=             -9.3890
   XY=              0.0000   XZ=              0.0000   YZ=              0.0000
 Traceless Quadrupole moment (field-independent basis, Debye-Ang):
   XX=              1.3222   YY=              1.3222   ZZ=             -2.6444
   XY=              0.0000   XZ=              0.0000   YZ=              0.0000
 Octapole moment (field-independent basis, Debye-Ang**2):
  XXX=              0.0000  YYY=              1.2846  ZZZ=              0.0000  XYY=              0.0000
  XXY=             -1.2846  XXZ=              0.0000  XZZ=              0.0000  YZZ=              0.0000
  YYZ=              0.0000  XYZ=              0.0000
 Hexadecapole moment (field-independent basis, Debye-Ang**3):
 XXXX=             -8.3307 YYYY=             -8.3307 ZZZZ=             -8.9025 XXXY=              0.0000
 XXXZ=              0.0000 YYYX=              0.0000 YYYZ=              0.0000 ZZZX=              0.0000
 ZZZY=              0.0000 XXYY=             -2.7769 XXZZ=             -3.2725 YYZZ=             -3.2725
 XXYZ=              0.0000 YYXZ=              0.0000 ZZXY=              0.0000
 N-N= 1.202928319188D+01 E-N=-1.558397701682D+02  KE= 5.601269191899D+01
 Symmetry A1   KE= 5.032015744580D+01
 Symmetry A2   KE= 1.638195667613D-32
 Symmetry B1   KE= 2.593032812357D+00
 Symmetry B2   KE= 3.099501660838D+00
 Calling FoFJK, ICntrl=      2127 FMM=F ISym2X=1 I1Cent= 0 IOpClX= 0 NMat=1 NMatS=1 NMatT=0.
 ***** Axes restored to original set *****
 -------------------------------------------------------------------
 Center     Atomic                   Forces (Hartrees/Bohr)
 Number     Number              X              Y              Z
 -------------------------------------------------------------------
      1        7           0.000000000    0.000000000    0.000000000
      2        1          -0.011830969    0.000000000    0.000000000
      3        1           0.005915485    0.010245920    0.000000000
      4        1           0.005915485   -0.010245920    0.000000000
 -------------------------------------------------------------------
 Cartesian Forces:  Max     0.011830969 RMS     0.005915485
 -----------------------------------------------------------------------------------------------
                       Internal Coordinate Forces (Hartree/Bohr or radian)
  Cent   Atom   N1       Length/X         N2         Alpha/Y        N3         Beta/Z          J
 -----------------------------------------------------------------------------------------------
      1  N 
         X        1   0.000000(     1)
      2  H        1  -0.011831(     2)      2   0.000000(     5)
      3  H        1  -0.011831(     3)      2   0.000000(     6)      3   0.000000(     8)     0
      4  H        1  -0.011831(     4)      2   0.000000(     7)      3   0.000000(     9)     0
 -----------------------------------------------------------------------------------------------
 Internal  Forces:  Max     0.011830969 RMS     0.006830613

 GradGradGradGradGradGradGradGradGradGradGradGradGradGradGradGradGradGrad
 Berny optimization.
 Search for a local minimum.
 Step number   1 out of a maximum of   20
 All quantities printed in internal units (Hartrees-Bohrs-Radians)
 Second derivative matrix not updated -- first step.
 The second derivative matrix:
                          B1        A1
           B1           1.43065
           A1           0.00000   0.40500
 ITU=  0
     Eigenvalues ---    1.430651000.00000
 RFO step:  Lambda=-8.79999845D-04 EMin= 1.43064988D+00
 Linear search not attempted -- first point.
 Variable       Old X    -DE/DX   Delta X   Delta X   Delta X     New X
                                 (Linear)    (Quad)   (Total)
    B1        1.88973  -0.03549   0.00000  -0.02479  -0.02479   1.86493
    A1        1.57080   0.00000   0.00000   0.00000   0.00000   1.57080
         Item               Value     Threshold  Converged?
 Maximum Force            0.035493     0.000450     NO 
 RMS     Force            0.035493     0.000300     NO 
 Maximum Displacement     0.024794     0.001800     NO 
 RMS     Displacement     0.017532     0.001200     NO 
 Predicted change in Energy=-4.402706D-04
 GradGradGradGradGradGradGradGradGradGradGradGradGradGradGradGradGradGrad

 ---------------------------------------------------------------------------------------------------
                            Z-MATRIX (ANGSTROMS AND DEGREES)
   CD    Cent   Atom    N1       Length/X        N2       Alpha/Y        N3        Beta/Z          J
 ---------------------------------------------------------------------------------------------------
      1      1  N 
      2         X        1   1.000000(     1)
      3      2  H        1   0.986880(     2)      2   90.000(     5)
      4      3  H        1   0.986880(     3)      2   90.000(     6)      3  120.000(     8)      0
      5      4  H        1   0.986880(     4)      2   90.000(     7)      3 -120.000(     9)      0
 ---------------------------------------------------------------------------------------------------
                         Z-Matrix orientation:                         
 ---------------------------------------------------------------------
 Center     Atomic      Atomic             Coordinates (Angstroms)
 Number     Number       Type             X           Y           Z
 ---------------------------------------------------------------------
      1          7           0        0.000000    0.000000    0.000000
      2         -1           0        0.000000    0.000000    1.000000
      3          1           0        0.986880    0.000000    0.000000
      4          1           0       -0.493440   -0.854663    0.000000
      5          1           0       -0.493440    0.854663    0.000000
 ---------------------------------------------------------------------
                    Distance matrix (angstroms):
                    1          2          3          4          5
     1  N    0.000000
     2  X    1.000000   0.000000
     3  H    0.986880   1.404967   0.000000
     4  H    0.986880   1.404967   1.709326   0.000000
     5  H    0.986880   1.404967   1.709326   1.709326   0.000000
 Stoichiometry    H3N
 Framework group  D3H[O(N),3C2(H)]
 Deg. of freedom     1
 Full point group                 D3H     NOp  12
 Largest Abelian subgroup         C2V     NOp   4
 Largest concise Abelian subgroup C2      NOp   2
                         Standard orientation:                         
 ---------------------------------------------------------------------
 Center     Atomic      Atomic             Coordinates (Angstroms)
 Number     Number       Type             X           Y           Z
 ---------------------------------------------------------------------
      1          7           0        0.000000    0.000000    0.000000
      2          1           0        0.000000    0.986880    0.000000
      3          1           0        0.854663   -0.493440    0.000000
      4          1           0       -0.854663   -0.493440    0.000000
 ---------------------------------------------------------------------
 Rotational constants (GHZ):    343.2514050    343.2514050    171.6257025
 Standard basis: 6-31G(d) (6D, 7F)
 There are    12 symmetry adapted cartesian basis functions of A1  symmetry.
 There are     1 symmetry adapted cartesian basis functions of A2  symmetry.
 There are     5 symmetry adapted cartesian basis functions of B1  symmetry.
 There are     3 symmetry adapted cartesian basis functions of B2  symmetry.
 There are    12 symmetry adapted basis functions of A1  symmetry.
 There are     1 symmetry adapted basis functions of A2  symmetry.
 There are     5 symmetry adapted basis functions of B1  symmetry.
 There are     3 symmetry adapted basis functions of B2  symmetry.
    21 basis functions,    40 primitive gaussians,    21 cartesian basis functions
     5 alpha electrons        5 beta electrons
       nuclear repulsion energy        12.1892087284 Hartrees.
 NAtoms=    4 NActive=    4 NUniq=    2 SFac= 4.00D+00 NAtFMM=   60 NAOKFM=F Big=F
 Integral buffers will be    131072 words long.
 Raffenetti 1 integral format.
 Two-electron integral symmetry is turned on.
 One-electron integrals computed using PRISM.
 NBasis=    21 RedAO= T EigKep=  4.30D-02  NBF=    12     1     5     3
 NBsUse=    21 1.00D-06 EigRej= -1.00D+00 NBFU=    12     1     5     3
 Initial guess from the checkpoint file:  "A01.NH3.C3v.90.chk"
 B after Tr=     0.000000    0.000000    0.000000
         Rot=    1.000000    0.000000    0.000000    0.000000 Ang=   0.00 deg.
 Initial guess orbital symmetries:
       Occupied  (A1') (A1') (E') (E') (A2")
       Virtual   (?A) (?A) (?A) (?A) (?A) (?A) (?A) (?A) (?A) (E")
                 (?A) (?A) (?A) (?A) (E") (A2")
 ExpMin= 1.61D-01 ExpMax= 4.17D+03 ExpMxC= 6.27D+02 IAcc=1 IRadAn=         1 AccDes= 0.00D+00
 Harris functional with IExCor=  205 and IRadAn=       1 diagonalized for initial guess.
 HarFok:  IExCor=  205 AccDes= 0.00D+00 IRadAn=         1 IDoV= 1 UseB2=F ITyADJ=14
 ICtDFT=  3500011 ScaDFX=  1.000000  1.000000  1.000000  1.000000
 FoFCou: FMM=F IPFlag=           0 FMFlag=      100000 FMFlg1=           0
         NFxFlg=           0 DoJE=T BraDBF=F KetDBF=T FulRan=T
         wScrn=  0.000000 ICntrl=     500 IOpCl=  0 I1Cent=   200000004 NGrid=           0
         NMat0=    1 NMatS0=      1 NMatT0=    0 NMatD0=    1 NMtDS0=    0 NMtDT0=    0
 Petite list used in FoFCou.
 Keep R1 ints in memory in symmetry-blocked form, NReq=875975.
 Requested convergence on RMS density matrix=1.00D-08 within 128 cycles.
 Requested convergence on MAX density matrix=1.00D-06.
 Requested convergence on             energy=1.00D-06.
 No special actions if energy rises.
 SCF Done:  E(RHF) =  -56.1739780024     A.U. after    7 cycles
            NFock=  7  Conv=0.85D-08     -V/T= 2.0016
 Calling FoFJK, ICntrl=      2127 FMM=F ISym2X=1 I1Cent= 0 IOpClX= 0 NMat=1 NMatS=1 NMatT=0.
 ***** Axes restored to original set *****
 -------------------------------------------------------------------
 Center     Atomic                   Forces (Hartrees/Bohr)
 Number     Number              X              Y              Z
 -------------------------------------------------------------------
      1        7           0.000000000    0.000000000    0.000000000
      2        1           0.001652127    0.000000000    0.000000000
      3        1          -0.000826063   -0.001430784    0.000000000
      4        1          -0.000826063    0.001430784    0.000000000
 -------------------------------------------------------------------
 Cartesian Forces:  Max     0.001652127 RMS     0.000826063
 -----------------------------------------------------------------------------------------------
                       Internal Coordinate Forces (Hartree/Bohr or radian)
  Cent   Atom   N1       Length/X         N2         Alpha/Y        N3         Beta/Z          J
 -----------------------------------------------------------------------------------------------
      1  N 
         X        1   0.000000(     1)
      2  H        1   0.001652(     2)      2   0.000000(     5)
      3  H        1   0.001652(     3)      2   0.000000(     6)      3   0.000000(     8)     0
      4  H        1   0.001652(     4)      2   0.000000(     7)      3   0.000000(     9)     0
 -----------------------------------------------------------------------------------------------
 Internal  Forces:  Max     0.001652127 RMS     0.000953856

 GradGradGradGradGradGradGradGradGradGradGradGradGradGradGradGradGradGrad
 Berny optimization.
 Search for a local minimum.
 Step number   2 out of a maximum of   20
 All quantities printed in internal units (Hartrees-Bohrs-Radians)
 Update second derivatives using D2CorN and points    1    2
 DE= -3.85D-04 DEPred=-4.40D-04 R= 8.76D-01
 TightC=F SS=  1.41D+00  RLast= 2.48D-02 DXNew= 5.0454D-01 7.4381D-02
 Trust test= 8.76D-01 RLast= 2.48D-02 DXMaxT set to 3.00D-01
 The second derivative matrix:
                          B1        A1
           B1           1.63143
           A1           0.00000   0.40500
 ITU=  1  0
     Eigenvalues ---    1.631431000.00000
 RFO step:  Lambda= 0.00000000D+00 EMin= 1.63143475D+00
 Quartic linear search produced a step of -0.11821.
 Variable       Old X    -DE/DX   Delta X   Delta X   Delta X     New X
                                 (Linear)    (Quad)   (Total)
    B1        1.86493   0.00496   0.00293   0.00000   0.00293   1.86786
    A1        1.57080   0.00000   0.00000   0.00000   0.00000   1.57080
         Item               Value     Threshold  Converged?
 Maximum Force            0.004956     0.000450     NO 
 RMS     Force            0.004956     0.000300     NO 
 Maximum Displacement     0.002931     0.001800     NO 
 RMS     Displacement     0.002072     0.001200     NO 
 Predicted change in Energy=-7.519477D-06
 GradGradGradGradGradGradGradGradGradGradGradGradGradGradGradGradGradGrad

 ---------------------------------------------------------------------------------------------------
                            Z-MATRIX (ANGSTROMS AND DEGREES)
   CD    Cent   Atom    N1       Length/X        N2       Alpha/Y        N3        Beta/Z          J
 ---------------------------------------------------------------------------------------------------
      1      1  N 
      2         X        1   1.000000(     1)
      3      2  H        1   0.988431(     2)      2   90.000(     5)
      4      3  H        1   0.988431(     3)      2   90.000(     6)      3  120.000(     8)      0
      5      4  H        1   0.988431(     4)      2   90.000(     7)      3 -120.000(     9)      0
 ---------------------------------------------------------------------------------------------------
                         Z-Matrix orientation:                         
 ---------------------------------------------------------------------
 Center     Atomic      Atomic             Coordinates (Angstroms)
 Number     Number       Type             X           Y           Z
 ---------------------------------------------------------------------
      1          7           0        0.000000    0.000000    0.000000
      2         -1           0        0.000000    0.000000    1.000000
      3          1           0        0.988431    0.000000    0.000000
      4          1           0       -0.494215   -0.856006    0.000000
      5          1           0       -0.494215    0.856006    0.000000
 ---------------------------------------------------------------------
                    Distance matrix (angstroms):
                    1          2          3          4          5
     1  N    0.000000
     2  X    1.000000   0.000000
     3  H    0.988431   1.406057   0.000000
     4  H    0.988431   1.406057   1.712012   0.000000
     5  H    0.988431   1.406057   1.712012   1.712012   0.000000
 Stoichiometry    H3N
 Framework group  D3H[O(N),3C2(H)]
 Deg. of freedom     1
 Full point group                 D3H     NOp  12
 Largest Abelian subgroup         C2V     NOp   4
 Largest concise Abelian subgroup C2      NOp   2
                         Standard orientation:                         
 ---------------------------------------------------------------------
 Center     Atomic      Atomic             Coordinates (Angstroms)
 Number     Number       Type             X           Y           Z
 ---------------------------------------------------------------------
      1          7           0        0.000000    0.000000    0.000000
      2          1           0        0.000000    0.988431    0.000000
      3          1           0        0.856006   -0.494215    0.000000
      4          1           0       -0.856006   -0.494215    0.000000
 ---------------------------------------------------------------------
 Rotational constants (GHZ):    342.1750891    342.1750891    171.0875445
 Standard basis: 6-31G(d) (6D, 7F)
 There are    12 symmetry adapted cartesian basis functions of A1  symmetry.
 There are     1 symmetry adapted cartesian basis functions of A2  symmetry.
 There are     5 symmetry adapted cartesian basis functions of B1  symmetry.
 There are     3 symmetry adapted cartesian basis functions of B2  symmetry.
 There are    12 symmetry adapted basis functions of A1  symmetry.
 There are     1 symmetry adapted basis functions of A2  symmetry.
 There are     5 symmetry adapted basis functions of B1  symmetry.
 There are     3 symmetry adapted basis functions of B2  symmetry.
    21 basis functions,    40 primitive gaussians,    21 cartesian basis functions
     5 alpha electrons        5 beta electrons
       nuclear repulsion energy        12.1700831840 Hartrees.
 NAtoms=    4 NActive=    4 NUniq=    2 SFac= 4.00D+00 NAtFMM=   60 NAOKFM=F Big=F
 Integral buffers will be    131072 words long.
 Raffenetti 1 integral format.
 Two-electron integral symmetry is turned on.
 One-electron integrals computed using PRISM.
 NBasis=    21 RedAO= T EigKep=  4.31D-02  NBF=    12     1     5     3
 NBsUse=    21 1.00D-06 EigRej= -1.00D+00 NBFU=    12     1     5     3
 Initial guess from the checkpoint file:  "A01.NH3.C3v.90.chk"
 B after Tr=     0.000000    0.000000    0.000000
         Rot=    1.000000    0.000000    0.000000    0.000000 Ang=   0.00 deg.
 Initial guess orbital symmetries:
       Occupied  (A1') (A1') (E') (E') (A2")
       Virtual   (?A) (?A) (?A) (?A) (?A) (?A) (?A) (?A) (?A) (E")
                 (?A) (?A) (?A) (?A) (E") (A2")
 Keep R1 ints in memory in symmetry-blocked form, NReq=875975.
 Requested convergence on RMS density matrix=1.00D-08 within 128 cycles.
 Requested convergence on MAX density matrix=1.00D-06.
 Requested convergence on             energy=1.00D-06.
 No special actions if energy rises.
 SCF Done:  E(RHF) =  -56.1739852526     A.U. after    7 cycles
            NFock=  7  Conv=0.99D-09     -V/T= 2.0017
 Calling FoFJK, ICntrl=      2127 FMM=F ISym2X=1 I1Cent= 0 IOpClX= 0 NMat=1 NMatS=1 NMatT=0.
 ***** Axes restored to original set *****
 -------------------------------------------------------------------
 Center     Atomic                   Forces (Hartrees/Bohr)
 Number     Number              X              Y              Z
 -------------------------------------------------------------------
      1        7           0.000000000    0.000000000    0.000000000
      2        1          -0.000000232    0.000000000    0.000000000
      3        1           0.000000116    0.000000201    0.000000000
      4        1           0.000000116   -0.000000201    0.000000000
 -------------------------------------------------------------------
 Cartesian Forces:  Max     0.000000232 RMS     0.000000116
 -----------------------------------------------------------------------------------------------
                       Internal Coordinate Forces (Hartree/Bohr or radian)
  Cent   Atom   N1       Length/X         N2         Alpha/Y        N3         Beta/Z          J
 -----------------------------------------------------------------------------------------------
      1  N 
         X        1   0.000000(     1)
      2  H        1   0.000000(     2)      2   0.000000(     5)
      3  H        1   0.000000(     3)      2   0.000000(     6)      3   0.000000(     8)     0
      4  H        1   0.000000(     4)      2   0.000000(     7)      3   0.000000(     9)     0
 -----------------------------------------------------------------------------------------------
 Internal  Forces:  Max     0.000000232 RMS     0.000000134

 GradGradGradGradGradGradGradGradGradGradGradGradGradGradGradGradGradGrad
 Berny optimization.
 Search for a local minimum.
 Step number   3 out of a maximum of   20
 All quantities printed in internal units (Hartrees-Bohrs-Radians)
 Update second derivatives using D2CorN and points    2    3
 DE= -7.25D-06 DEPred=-7.52D-06 R= 9.64D-01
 TightC=F SS=  1.41D+00  RLast= 2.93D-03 DXNew= 5.0454D-01 8.7923D-03
 Trust test= 9.64D-01 RLast= 2.93D-03 DXMaxT set to 3.00D-01
 The second derivative matrix:
                          B1        A1
           B1           1.69138
           A1           0.00000   0.40500
 ITU=  1  1  0
     Eigenvalues ---    1.691381000.00000
 RFO step:  Lambda= 0.00000000D+00 EMin= 1.69138341D+00
 Quartic linear search produced a step of -0.00014.
 Variable       Old X    -DE/DX   Delta X   Delta X   Delta X     New X
                                 (Linear)    (Quad)   (Total)
    B1        1.86786   0.00000   0.00000   0.00000   0.00000   1.86786
    A1        1.57080   0.00000   0.00000   0.00000   0.00000   1.57080
         Item               Value     Threshold  Converged?
 Maximum Force            0.000001     0.000450     YES
 RMS     Force            0.000001     0.000300     YES
 Maximum Displacement     0.000000     0.001800     YES
 RMS     Displacement     0.000000     0.001200     YES
 Predicted change in Energy=-1.426948D-13
 Optimization completed.
    -- Stationary point found.
                       ----------------------------
                       !   Optimized Parameters   !
                       ! (Angstroms and Degrees)  !
 ----------------------                            ----------------------
 !      Name          Value   Derivative information (Atomic Units)     !
 ------------------------------------------------------------------------
 !       B1          0.9884   -DE/DX =    0.0                           !
 !       A1         90.0      -DE/DX =    0.0                           !
 ------------------------------------------------------------------------
 GradGradGradGradGradGradGradGradGradGradGradGradGradGradGradGradGradGrad

 ---------------------------------------------------------------------------------------------------
                            Z-MATRIX (ANGSTROMS AND DEGREES)
   CD    Cent   Atom    N1       Length/X        N2       Alpha/Y        N3        Beta/Z          J
 ---------------------------------------------------------------------------------------------------
      1      1  N 
      2         X        1   1.000000(     1)
      3      2  H        1   0.988431(     2)      2   90.000(     5)
      4      3  H        1   0.988431(     3)      2   90.000(     6)      3  120.000(     8)      0
      5      4  H        1   0.988431(     4)      2   90.000(     7)      3 -120.000(     9)      0
 ---------------------------------------------------------------------------------------------------
                         Z-Matrix orientation:                         
 ---------------------------------------------------------------------
 Center     Atomic      Atomic             Coordinates (Angstroms)
 Number     Number       Type             X           Y           Z
 ---------------------------------------------------------------------
      1          7           0        0.000000    0.000000    0.000000
      2         -1           0        0.000000    0.000000    1.000000
      3          1           0        0.988431    0.000000    0.000000
      4          1           0       -0.494215   -0.856006    0.000000
      5          1           0       -0.494215    0.856006    0.000000
 ---------------------------------------------------------------------
                    Distance matrix (angstroms):
                    1          2          3          4          5
     1  N    0.000000
     2  X    1.000000   0.000000
     3  H    0.988431   1.406057   0.000000
     4  H    0.988431   1.406057   1.712012   0.000000
     5  H    0.988431   1.406057   1.712012   1.712012   0.000000
 Stoichiometry    H3N
 Framework group  D3H[O(N),3C2(H)]
 Deg. of freedom     1
 Full point group                 D3H     NOp  12
 Largest Abelian subgroup         C2V     NOp   4
 Largest concise Abelian subgroup C2      NOp   2
                         Standard orientation:                         
 ---------------------------------------------------------------------
 Center     Atomic      Atomic             Coordinates (Angstroms)
 Number     Number       Type             X           Y           Z
 ---------------------------------------------------------------------
      1          7           0        0.000000    0.000000    0.000000
      2          1           0        0.000000    0.988431    0.000000
      3          1           0        0.856006   -0.494215    0.000000
      4          1           0       -0.856006   -0.494215    0.000000
 ---------------------------------------------------------------------
 Rotational constants (GHZ):    342.1750891    342.1750891    171.0875445

 **********************************************************************

            Population analysis using the SCF density.

 **********************************************************************

 Orbital symmetries:
       Occupied  (A1') (A1') (E') (E') (A2")
       Virtual   (A1') (E') (E') (E') (E') (A2") (A1') (E') (E')
                 (A1') (E") (E") (A1') (E') (E') (A1')
 The electronic state is 1-A1'.
 Alpha  occ. eigenvalues --  -15.51472  -1.11872  -0.64570  -0.64570  -0.37930
 Alpha virt. eigenvalues --    0.23180   0.33193   0.33193   0.93864   0.93864
 Alpha virt. eigenvalues --    0.97444   1.05890   1.26581   1.26581   1.32773
 Alpha virt. eigenvalues --    1.99331   1.99331   2.51422   2.70852   2.70852
 Alpha virt. eigenvalues --    4.13093
          Condensed to atoms (all electrons):
               1          2          3          4
     1  N    7.050454   0.344053   0.344053   0.344053
     2  H    0.344053   0.334924  -0.019925  -0.019925
     3  H    0.344053  -0.019925   0.334924  -0.019925
     4  H    0.344053  -0.019925  -0.019925   0.334924
 Mulliken charges:
               1
     1  N   -1.082614
     2  H    0.360871
     3  H    0.360871
     4  H    0.360871
 Sum of Mulliken charges =   0.00000
 Mulliken charges with hydrogens summed into heavy atoms:
               1
     1  N    0.000000
 Electronic spatial extent (au):  <R**2>=             25.4980
 Charge=              0.0000 electrons
 Dipole moment (field-independent basis, Debye):
    X=              0.0000    Y=              0.0000    Z=              0.0000  Tot=              0.0000
 Quadrupole moment (field-independent basis, Debye-Ang):
   XX=             -5.4355   YY=             -5.4355   ZZ=             -9.3467
   XY=              0.0000   XZ=              0.0000   YZ=              0.0000
 Traceless Quadrupole moment (field-independent basis, Debye-Ang):
   XX=              1.3037   YY=              1.3037   ZZ=             -2.6074
   XY=              0.0000   XZ=              0.0000   YZ=              0.0000
 Octapole moment (field-independent basis, Debye-Ang**2):
  XXX=              0.0000  YYY=              1.2336  ZZZ=              0.0000  XYY=              0.0000
  XXY=             -1.2336  XXZ=              0.0000  XZZ=              0.0000  YZZ=              0.0000
  YYZ=              0.0000  XYZ=              0.0000
 Hexadecapole moment (field-independent basis, Debye-Ang**3):
 XXXX=             -8.2193 YYYY=             -8.2193 ZZZZ=             -8.8498 XXXY=              0.0000
 XXXZ=              0.0000 YYYX=              0.0000 YYYZ=              0.0000 ZZZX=              0.0000
 ZZZY=              0.0000 XXYY=             -2.7398 XXZZ=             -3.2259 YYZZ=             -3.2259
 XXYZ=              0.0000 YYXZ=              0.0000 ZZXY=              0.0000
 N-N= 1.217008318399D+01 E-N=-1.561574456579D+02  KE= 5.607758559695D+01
 Symmetry A1   KE= 5.035883326385D+01
 Symmetry A2   KE= 2.930507284592D-34
 Symmetry B1   KE= 2.619902917536D+00
 Symmetry B2   KE= 3.098849415566D+00
 1\1\GINC-C11-03\FOpt\RHF\6-31G(d)\H3N1\EPLUHAR\02-Sep-2016\1\\# opt=(z
 -matrix) rhf/6-31g(d)\\Ammonia c3v\\0,1\N\X,1,1.\H,1,B1,2,A1\H,1,B1,2,
 A1,3,120.,0\H,1,B1,2,A1,3,-120.,0\\B1=0.98843065\A1=90.\\Version=ES64L
 -G09RevD.01\State=1-A1'\HF=-56.1739853\RMSD=9.941e-10\RMSF=1.158e-07\D
 ipole=0.,0.,0.\Quadrupole=0.9692875,0.9692875,-1.938575,0.,0.,0.\PG=D0
 3H [O(N1),3C2(H1)]\\@


 REVOLUTIONS HAVE NEVER LIGHTENED THE BURDEN OF TYRANNY:
 THEY HAVE MERELY SHIFTED IT TO OTHER SHOULDERS.
                                   -- G. B. SHAW (1903)
 Job cpu time:       0 days  0 hours  0 minutes 17.7 seconds.
 File lengths (MBytes):  RWF=      5 Int=      0 D2E=      0 Chk=      1 Scr=      1
 Normal termination of Gaussian 09 at Fri Sep  2 13:40:18 2016.
