 Entering Gaussian System, Link 0=g09
 Initial command:
 /share/sw/gaussian/D.01/g09/l1.exe "/local/scratch/epluhar/Gau-125523.inp" -scrdir="/local/scratch/epluhar/"
 Entering Link 1 = /share/sw/gaussian/D.01/g09/l1.exe PID=    125524.
  
 Copyright (c) 1988,1990,1992,1993,1995,1998,2003,2009,2013,
            Gaussian, Inc.  All Rights Reserved.
  
 This is part of the Gaussian(R) 09 program.  It is based on
 the Gaussian(R) 03 system (copyright 2003, Gaussian, Inc.),
 the Gaussian(R) 98 system (copyright 1998, Gaussian, Inc.),
 the Gaussian(R) 94 system (copyright 1995, Gaussian, Inc.),
 the Gaussian 92(TM) system (copyright 1992, Gaussian, Inc.),
 the Gaussian 90(TM) system (copyright 1990, Gaussian, Inc.),
 the Gaussian 88(TM) system (copyright 1988, Gaussian, Inc.),
 the Gaussian 86(TM) system (copyright 1986, Carnegie Mellon
 University), and the Gaussian 82(TM) system (copyright 1983,
 Carnegie Mellon University). Gaussian is a federally registered
 trademark of Gaussian, Inc.
  
 This software contains proprietary and confidential information,
 including trade secrets, belonging to Gaussian, Inc.
  
 This software is provided under written license and may be
 used, copied, transmitted, or stored only in accord with that
 written license.
  
 The following legend is applicable only to US Government
 contracts under FAR:
  
                    RESTRICTED RIGHTS LEGEND
  
 Use, reproduction and disclosure by the US Government is
 subject to restrictions as set forth in subparagraphs (a)
 and (c) of the Commercial Computer Software - Restricted
 Rights clause in FAR 52.227-19.
  
 Gaussian, Inc.
 340 Quinnipiac St., Bldg. 40, Wallingford CT 06492
  
  
 ---------------------------------------------------------------
 Warning -- This program may not be used in any manner that
 competes with the business of Gaussian, Inc. or will provide
 assistance to any competitor of Gaussian, Inc.  The licensee
 of this program is prohibited from giving any competitor of
 Gaussian, Inc. access to this program.  By using this program,
 the user acknowledges that Gaussian, Inc. is engaged in the
 business of creating and licensing software in the field of
 computational chemistry and represents and warrants to the
 licensee that it is not a competitor of Gaussian, Inc. and that
 it will not use this program in any manner prohibited above.
 ---------------------------------------------------------------
  

 Cite this work as:
 Gaussian 09, Revision D.01,
 M. J. Frisch, G. W. Trucks, H. B. Schlegel, G. E. Scuseria, 
 M. A. Robb, J. R. Cheeseman, G. Scalmani, V. Barone, B. Mennucci, 
 G. A. Petersson, H. Nakatsuji, M. Caricato, X. Li, H. P. Hratchian, 
 A. F. Izmaylov, J. Bloino, G. Zheng, J. L. Sonnenberg, M. Hada, 
 M. Ehara, K. Toyota, R. Fukuda, J. Hasegawa, M. Ishida, T. Nakajima, 
 Y. Honda, O. Kitao, H. Nakai, T. Vreven, J. A. Montgomery, Jr., 
 J. E. Peralta, F. Ogliaro, M. Bearpark, J. J. Heyd, E. Brothers, 
 K. N. Kudin, V. N. Staroverov, T. Keith, R. Kobayashi, J. Normand, 
 K. Raghavachari, A. Rendell, J. C. Burant, S. S. Iyengar, J. Tomasi, 
 M. Cossi, N. Rega, J. M. Millam, M. Klene, J. E. Knox, J. B. Cross, 
 V. Bakken, C. Adamo, J. Jaramillo, R. Gomperts, R. E. Stratmann, 
 O. Yazyev, A. J. Austin, R. Cammi, C. Pomelli, J. W. Ochterski, 
 R. L. Martin, K. Morokuma, V. G. Zakrzewski, G. A. Voth, 
 P. Salvador, J. J. Dannenberg, S. Dapprich, A. D. Daniels, 
 O. Farkas, J. B. Foresman, J. V. Ortiz, J. Cioslowski, 
 and D. J. Fox, Gaussian, Inc., Wallingford CT, 2013.
 
 ******************************************
 Gaussian 09:  ES64L-G09RevD.01 24-Apr-2013
                 2-Sep-2016 
 ******************************************
 %nprocshared=2
 Will use up to    2 processors via shared memory.
 %mem=256MW
 %chk=A01.NH3.C3v.103.chk
 -----------------------------
 # opt=(z-matrix) rhf/6-31g(d)
 -----------------------------
 1/10=7,18=40,38=1/1,3;
 2/12=2,17=6,18=5,29=3,40=1/2;
 3/5=1,6=6,7=1,11=1,16=1,25=1,30=1,71=1,116=1/1,2,3;
 4//1;
 5/5=2,38=5/2;
 6/7=2,8=2,9=2,10=2,28=1/1;
 7/29=1/1,2,3,16;
 1/10=7,18=40/3(2);
 2/29=3/2;
 99//99;
 2/29=3/2;
 3/5=1,6=6,7=1,11=1,16=1,25=1,30=1,71=1,116=1/1,2,3;
 4/5=5,16=3,69=1/1;
 5/5=2,38=5/2;
 7//1,2,3,16;
 1/18=40/3(-5);
 2/29=3/2;
 6/7=2,8=2,9=2,10=2,19=2,28=1/1;
 99/9=1/99;
 -----------
 Ammonia c3v
 -----------
 Symbolic Z-matrix:
 Charge =  0 Multiplicity = 1
 N
 X                    1     1. 
 H                    1    B1       2    A1
 H                    1    B1       2    A1       3     120.     0
 H                    1    B1       2    A1       3    -120.     0
       Variables:
  B1                    1.                       
       Constants:
  A1                  103.                       
 

 GradGradGradGradGradGradGradGradGradGradGradGradGradGradGradGradGradGrad
 Berny optimization.
 Initialization pass.
                       ----------------------------
                       !    Initial Parameters    !
                       ! (Angstroms and Degrees)  !
 ----------------------                            ----------------------
 !      Name          Value   Derivative information (Atomic Units)     !
 ------------------------------------------------------------------------
 !       B1          1.0      estimate D2E/DX2                          !
 !       A1        103.0      Frozen                                    !
 ------------------------------------------------------------------------
 Trust Radius=3.00D-01 FncErr=1.00D-07 GrdErr=1.00D-07
 Number of steps in this run=     20 maximum allowed number of steps=    100.
 GradGradGradGradGradGradGradGradGradGradGradGradGradGradGradGradGradGrad

 ---------------------------------------------------------------------------------------------------
                            Z-MATRIX (ANGSTROMS AND DEGREES)
   CD    Cent   Atom    N1       Length/X        N2       Alpha/Y        N3        Beta/Z          J
 ---------------------------------------------------------------------------------------------------
      1      1  N 
      2         X        1   1.000000(     1)
      3      2  H        1   1.000000(     2)      2  103.000(     5)
      4      3  H        1   1.000000(     3)      2  103.000(     6)      3  120.000(     8)      0
      5      4  H        1   1.000000(     4)      2  103.000(     7)      3 -120.000(     9)      0
 ---------------------------------------------------------------------------------------------------
                         Z-Matrix orientation:                         
 ---------------------------------------------------------------------
 Center     Atomic      Atomic             Coordinates (Angstroms)
 Number     Number       Type             X           Y           Z
 ---------------------------------------------------------------------
      1          7           0        0.000000    0.000000    0.000000
      2         -1           0        0.000000    0.000000    1.000000
      3          1           0        0.974370    0.000000   -0.224951
      4          1           0       -0.487185   -0.843829   -0.224951
      5          1           0       -0.487185    0.843829   -0.224951
 ---------------------------------------------------------------------
                    Distance matrix (angstroms):
                    1          2          3          4          5
     1  N    0.000000
     2  X    1.000000   0.000000
     3  H    1.000000   1.565216   0.000000
     4  H    1.000000   1.565216   1.687658   0.000000
     5  H    1.000000   1.565216   1.687658   1.687658   0.000000
 Stoichiometry    H3N
 Framework group  C3V[C3(N),3SGV(H)]
 Deg. of freedom     2
 Full point group                 C3V     NOp   6
 Largest Abelian subgroup         CS      NOp   2
 Largest concise Abelian subgroup CS      NOp   2
                         Standard orientation:                         
 ---------------------------------------------------------------------
 Center     Atomic      Atomic             Coordinates (Angstroms)
 Number     Number       Type             X           Y           Z
 ---------------------------------------------------------------------
      1          7           0        0.000000    0.000000    0.067485
      2          1           0        0.000000    0.974370   -0.157466
      3          1           0        0.843829   -0.487185   -0.157466
      4          1           0       -0.843829   -0.487185   -0.157466
 ---------------------------------------------------------------------
 Rotational constants (GHZ):    323.7393279    323.7393279    176.0609060
 Standard basis: 6-31G(d) (6D, 7F)
 There are    15 symmetry adapted cartesian basis functions of A'  symmetry.
 There are     6 symmetry adapted cartesian basis functions of A"  symmetry.
 There are    15 symmetry adapted basis functions of A'  symmetry.
 There are     6 symmetry adapted basis functions of A"  symmetry.
    21 basis functions,    40 primitive gaussians,    21 cartesian basis functions
     5 alpha electrons        5 beta electrons
       nuclear repulsion energy        12.0533925326 Hartrees.
 NAtoms=    4 NActive=    4 NUniq=    2 SFac= 4.00D+00 NAtFMM=   60 NAOKFM=F Big=F
 Integral buffers will be    131072 words long.
 Raffenetti 1 integral format.
 Two-electron integral symmetry is turned on.
 One-electron integrals computed using PRISM.
 NBasis=    21 RedAO= T EigKep=  3.01D-02  NBF=    15     6
 NBsUse=    21 1.00D-06 EigRej= -1.00D+00 NBFU=    15     6
 ExpMin= 1.61D-01 ExpMax= 4.17D+03 ExpMxC= 6.27D+02 IAcc=1 IRadAn=         1 AccDes= 0.00D+00
 Harris functional with IExCor=  205 and IRadAn=       1 diagonalized for initial guess.
 HarFok:  IExCor=  205 AccDes= 0.00D+00 IRadAn=         1 IDoV= 1 UseB2=F ITyADJ=14
 ICtDFT=  3500011 ScaDFX=  1.000000  1.000000  1.000000  1.000000
 FoFCou: FMM=F IPFlag=           0 FMFlag=      100000 FMFlg1=           0
         NFxFlg=           0 DoJE=T BraDBF=F KetDBF=T FulRan=T
         wScrn=  0.000000 ICntrl=     500 IOpCl=  0 I1Cent=   200000004 NGrid=           0
         NMat0=    1 NMatS0=      1 NMatT0=    0 NMatD0=    1 NMtDS0=    0 NMtDT0=    0
 Petite list used in FoFCou.
 Initial guess orbital symmetries:
       Occupied  (A1) (A1) (E) (E) (A1)
       Virtual   (A1) (E) (E) (A1) (E) (E) (A1) (E) (E) (A1) (E)
                 (E) (A1) (E) (E) (A1)
 The electronic state of the initial guess is 1-A1.
 Keep R1 ints in memory in symmetry-blocked form, NReq=875485.
 Requested convergence on RMS density matrix=1.00D-08 within 128 cycles.
 Requested convergence on MAX density matrix=1.00D-06.
 Requested convergence on             energy=1.00D-06.
 No special actions if energy rises.
 SCF Done:  E(RHF) =  -56.1802164667     A.U. after   10 cycles
            NFock= 10  Conv=0.35D-08     -V/T= 2.0022

 **********************************************************************

            Population analysis using the SCF density.

 **********************************************************************

 Orbital symmetries:
       Occupied  (A1) (A1) (E) (E) (A1)
       Virtual   (A1) (E) (E) (E) (E) (A1) (A1) (E) (E) (A1) (E)
                 (E) (A1) (E) (E) (A1)
 The electronic state is 1-A1.
 Alpha  occ. eigenvalues --  -15.52451  -1.12393  -0.63666  -0.63666  -0.39432
 Alpha virt. eigenvalues --    0.22727   0.32807   0.32807   0.92290   0.92290
 Alpha virt. eigenvalues --    0.97109   1.11823   1.24680   1.24680   1.32458
 Alpha virt. eigenvalues --    1.97880   1.97880   2.41779   2.73701   2.73701
 Alpha virt. eigenvalues --    4.11314
          Condensed to atoms (all electrons):
               1          2          3          4
     1  N    7.031871   0.337718   0.337718   0.337718
     2  H    0.337718   0.357256  -0.021657  -0.021657
     3  H    0.337718  -0.021657   0.357256  -0.021657
     4  H    0.337718  -0.021657  -0.021657   0.357256
 Mulliken charges:
               1
     1  N   -1.045024
     2  H    0.348341
     3  H    0.348341
     4  H    0.348341
 Sum of Mulliken charges =   0.00000
 Mulliken charges with hydrogens summed into heavy atoms:
               1
     1  N    0.000000
 Electronic spatial extent (au):  <R**2>=             25.8198
 Charge=              0.0000 electrons
 Dipole moment (field-independent basis, Debye):
    X=              0.0000    Y=              0.0000    Z=             -1.2770  Tot=              1.2770
 Quadrupole moment (field-independent basis, Debye-Ang):
   XX=             -5.6726   YY=             -5.6726   ZZ=             -9.1925
   XY=              0.0000   XZ=              0.0000   YZ=              0.0000
 Traceless Quadrupole moment (field-independent basis, Debye-Ang):
   XX=              1.1733   YY=              1.1733   ZZ=             -2.3466
   XY=              0.0000   XZ=              0.0000   YZ=              0.0000
 Octapole moment (field-independent basis, Debye-Ang**2):
  XXX=              0.0000  YYY=              1.1108  ZZZ=             -1.1873  XYY=              0.0000
  XXY=             -1.1108  XXZ=             -0.6530  XZZ=              0.0000  YZZ=              0.0000
  YYZ=             -0.6530  XYZ=              0.0000
 Hexadecapole moment (field-independent basis, Debye-Ang**3):
 XXXX=             -8.6468 YYYY=             -8.6468 ZZZZ=             -9.1925 XXXY=              0.0000
 XXXZ=              0.0000 YYYX=              0.0000 YYYZ=             -0.2279 ZZZX=              0.0000
 ZZZY=              0.0000 XXYY=             -2.8823 XXZZ=             -3.2304 YYZZ=             -3.2304
 XXYZ=              0.2279 YYXZ=              0.0000 ZZXY=              0.0000
 N-N= 1.205339253256D+01 E-N=-1.558919261487D+02  KE= 5.605686830874D+01
 Symmetry A'   KE= 5.345345349916D+01
 Symmetry A"   KE= 2.603414809576D+00
 Calling FoFJK, ICntrl=      2127 FMM=F ISym2X=1 I1Cent= 0 IOpClX= 0 NMat=1 NMatS=1 NMatT=0.
 ***** Axes restored to original set *****
 -------------------------------------------------------------------
 Center     Atomic                   Forces (Hartrees/Bohr)
 Number     Number              X              Y              Z
 -------------------------------------------------------------------
      1        7           0.000000000    0.000000000    0.018301778
      2        1          -0.007584144    0.000000000   -0.006100593
      3        1           0.003792072    0.006568061   -0.006100593
      4        1           0.003792072   -0.006568061   -0.006100593
 -------------------------------------------------------------------
 Cartesian Forces:  Max     0.018301778 RMS     0.007183108
 -----------------------------------------------------------------------------------------------
                       Internal Coordinate Forces (Hartree/Bohr or radian)
  Cent   Atom   N1       Length/X         N2         Alpha/Y        N3         Beta/Z          J
 -----------------------------------------------------------------------------------------------
      1  N 
         X        1   0.000000(     1)
      2  H        1  -0.006017(     2)      2   0.014457(     5)
      3  H        1  -0.006017(     3)      2   0.014457(     6)      3   0.000000(     8)     0
      4  H        1  -0.006017(     4)      2   0.014457(     7)      3   0.000000(     9)     0
 -----------------------------------------------------------------------------------------------
 Internal  Forces:  Max     0.014456964 RMS     0.009040893

 GradGradGradGradGradGradGradGradGradGradGradGradGradGradGradGradGradGrad
 Berny optimization.
 Search for a local minimum.
 Step number   1 out of a maximum of   20
 All quantities printed in internal units (Hartrees-Bohrs-Radians)
 Second derivative matrix not updated -- first step.
 The second derivative matrix:
                          B1        A1
           B1           1.43065
           A1           0.00000   0.34599
 ITU=  0
     Eigenvalues ---    1.430651000.00000
 RFO step:  Lambda=-2.27751791D-04 EMin= 1.43064988D+00
 Linear search not attempted -- first point.
 Variable       Old X    -DE/DX   Delta X   Delta X   Delta X     New X
                                 (Linear)    (Quad)   (Total)
    B1        1.88973  -0.01805   0.00000  -0.01262  -0.01262   1.87711
    A1        1.79769   0.04337   0.00000   0.00000   0.00000   1.79769
         Item               Value     Threshold  Converged?
 Maximum Force            0.018052     0.000450     NO 
 RMS     Force            0.018052     0.000300     NO 
 Maximum Displacement     0.012616     0.001800     NO 
 RMS     Displacement     0.008921     0.001200     NO 
 Predicted change in Energy=-1.138940D-04
 GradGradGradGradGradGradGradGradGradGradGradGradGradGradGradGradGradGrad

 ---------------------------------------------------------------------------------------------------
                            Z-MATRIX (ANGSTROMS AND DEGREES)
   CD    Cent   Atom    N1       Length/X        N2       Alpha/Y        N3        Beta/Z          J
 ---------------------------------------------------------------------------------------------------
      1      1  N 
      2         X        1   1.000000(     1)
      3      2  H        1   0.993324(     2)      2  103.000(     5)
      4      3  H        1   0.993324(     3)      2  103.000(     6)      3  120.000(     8)      0
      5      4  H        1   0.993324(     4)      2  103.000(     7)      3 -120.000(     9)      0
 ---------------------------------------------------------------------------------------------------
                         Z-Matrix orientation:                         
 ---------------------------------------------------------------------
 Center     Atomic      Atomic             Coordinates (Angstroms)
 Number     Number       Type             X           Y           Z
 ---------------------------------------------------------------------
      1          7           0        0.000000    0.000000    0.000000
      2         -1           0        0.000000    0.000000    1.000000
      3          1           0        0.967865    0.000000   -0.223449
      4          1           0       -0.483932   -0.838196   -0.223449
      5          1           0       -0.483932    0.838196   -0.223449
 ---------------------------------------------------------------------
                    Distance matrix (angstroms):
                    1          2          3          4          5
     1  N    0.000000
     2  X    1.000000   0.000000
     3  H    0.993324   1.559997   0.000000
     4  H    0.993324   1.559997   1.676391   0.000000
     5  H    0.993324   1.559997   1.676391   1.676391   0.000000
 Stoichiometry    H3N
 Framework group  C3V[C3(N),3SGV(H)]
 Deg. of freedom     2
 Full point group                 C3V     NOp   6
 Largest Abelian subgroup         CS      NOp   2
 Largest concise Abelian subgroup CS      NOp   2
                         Standard orientation:                         
 ---------------------------------------------------------------------
 Center     Atomic      Atomic             Coordinates (Angstroms)
 Number     Number       Type             X           Y           Z
 ---------------------------------------------------------------------
      1          7           0        0.000000    0.000000    0.067035
      2          1           0        0.000000    0.967865   -0.156414
      3          1           0        0.838196   -0.483932   -0.156414
      4          1           0       -0.838196   -0.483932   -0.156414
 ---------------------------------------------------------------------
 Rotational constants (GHZ):    328.1057170    328.1057170    178.4355030
 Standard basis: 6-31G(d) (6D, 7F)
 There are    15 symmetry adapted cartesian basis functions of A'  symmetry.
 There are     6 symmetry adapted cartesian basis functions of A"  symmetry.
 There are    15 symmetry adapted basis functions of A'  symmetry.
 There are     6 symmetry adapted basis functions of A"  symmetry.
    21 basis functions,    40 primitive gaussians,    21 cartesian basis functions
     5 alpha electrons        5 beta electrons
       nuclear repulsion energy        12.1344045146 Hartrees.
 NAtoms=    4 NActive=    4 NUniq=    2 SFac= 4.00D+00 NAtFMM=   60 NAOKFM=F Big=F
 Integral buffers will be    131072 words long.
 Raffenetti 1 integral format.
 Two-electron integral symmetry is turned on.
 One-electron integrals computed using PRISM.
 NBasis=    21 RedAO= T EigKep=  2.96D-02  NBF=    15     6
 NBsUse=    21 1.00D-06 EigRej= -1.00D+00 NBFU=    15     6
 Initial guess from the checkpoint file:  "A01.NH3.C3v.103.chk"
 B after Tr=     0.000000    0.000000    0.000000
         Rot=    1.000000    0.000000    0.000000    0.000000 Ang=   0.00 deg.
 Initial guess orbital symmetries:
       Occupied  (A1) (A1) (E) (E) (A1)
       Virtual   (?A) (?A) (?A) (?A) (?A) (?A) (?A) (?A) (?A) (?A)
                 (?A) (?A) (?A) (?A) (?A) (?A)
 Keep R1 ints in memory in symmetry-blocked form, NReq=875485.
 Requested convergence on RMS density matrix=1.00D-08 within 128 cycles.
 Requested convergence on MAX density matrix=1.00D-06.
 Requested convergence on             energy=1.00D-06.
 No special actions if energy rises.
 SCF Done:  E(RHF) =  -56.1803188866     A.U. after    9 cycles
            NFock=  9  Conv=0.93D-09     -V/T= 2.0015
 Calling FoFJK, ICntrl=      2127 FMM=F ISym2X=1 I1Cent= 0 IOpClX= 0 NMat=1 NMatS=1 NMatT=0.
 ***** Axes restored to original set *****
 -------------------------------------------------------------------
 Center     Atomic                   Forces (Hartrees/Bohr)
 Number     Number              X              Y              Z
 -------------------------------------------------------------------
      1        7           0.000000000    0.000000000    0.022031918
      2        1          -0.001026071    0.000000000   -0.007343973
      3        1           0.000513036    0.000888604   -0.007343973
      4        1           0.000513036   -0.000888604   -0.007343973
 -------------------------------------------------------------------
 Cartesian Forces:  Max     0.022031918 RMS     0.007361871
 -----------------------------------------------------------------------------------------------
                       Internal Coordinate Forces (Hartree/Bohr or radian)
  Cent   Atom   N1       Length/X         N2         Alpha/Y        N3         Beta/Z          J
 -----------------------------------------------------------------------------------------------
      1  N 
         X        1   0.000000(     1)
      2  H        1   0.000652(     2)      2   0.013865(     5)
      3  H        1   0.000652(     3)      2   0.013865(     6)      3   0.000000(     8)     0
      4  H        1   0.000652(     4)      2   0.013865(     7)      3   0.000000(     9)     0
 -----------------------------------------------------------------------------------------------
 Internal  Forces:  Max     0.013865391 RMS     0.008014040

 GradGradGradGradGradGradGradGradGradGradGradGradGradGradGradGradGradGrad
 Berny optimization.
 Search for a local minimum.
 Step number   2 out of a maximum of   20
 All quantities printed in internal units (Hartrees-Bohrs-Radians)
 Update second derivatives using D2CorN and points    1    2
 DE= -1.02D-04 DEPred=-1.14D-04 R= 8.99D-01
 TightC=F SS=  1.41D+00  RLast= 1.26D-02 DXNew= 5.0454D-01 3.7849D-02
 Trust test= 8.99D-01 RLast= 1.26D-02 DXMaxT set to 3.00D-01
 The second derivative matrix:
                          B1        A1
           B1           1.58598
           A1          -0.07033   0.34599
 ITU=  1  0
     Eigenvalues ---    1.585981000.00000
 RFO step:  Lambda= 0.00000000D+00 EMin= 1.58597817D+00
 Quartic linear search produced a step of -0.09596.
 Variable       Old X    -DE/DX   Delta X   Delta X   Delta X     New X
                                 (Linear)    (Quad)   (Total)
    B1        1.87711   0.00196   0.00121   0.00000   0.00121   1.87832
    A1        1.79769   0.04160   0.00000   0.00000   0.00000   1.79769
         Item               Value     Threshold  Converged?
 Maximum Force            0.001957     0.000450     NO 
 RMS     Force            0.001957     0.000300     NO 
 Maximum Displacement     0.001211     0.001800     YES
 RMS     Displacement     0.000856     0.001200     YES
 Predicted change in Energy=-1.206718D-06
 GradGradGradGradGradGradGradGradGradGradGradGradGradGradGradGradGradGrad

 ---------------------------------------------------------------------------------------------------
                            Z-MATRIX (ANGSTROMS AND DEGREES)
   CD    Cent   Atom    N1       Length/X        N2       Alpha/Y        N3        Beta/Z          J
 ---------------------------------------------------------------------------------------------------
      1      1  N 
      2         X        1   1.000000(     1)
      3      2  H        1   0.993964(     2)      2  103.000(     5)
      4      3  H        1   0.993964(     3)      2  103.000(     6)      3  120.000(     8)      0
      5      4  H        1   0.993964(     4)      2  103.000(     7)      3 -120.000(     9)      0
 ---------------------------------------------------------------------------------------------------
                         Z-Matrix orientation:                         
 ---------------------------------------------------------------------
 Center     Atomic      Atomic             Coordinates (Angstroms)
 Number     Number       Type             X           Y           Z
 ---------------------------------------------------------------------
      1          7           0        0.000000    0.000000    0.000000
      2         -1           0        0.000000    0.000000    1.000000
      3          1           0        0.968489    0.000000   -0.223593
      4          1           0       -0.484245   -0.838736   -0.223593
      5          1           0       -0.484245    0.838736   -0.223593
 ---------------------------------------------------------------------
                    Distance matrix (angstroms):
                    1          2          3          4          5
     1  N    0.000000
     2  X    1.000000   0.000000
     3  H    0.993964   1.560497   0.000000
     4  H    0.993964   1.560497   1.677472   0.000000
     5  H    0.993964   1.560497   1.677472   1.677472   0.000000
 Stoichiometry    H3N
 Framework group  C3V[C3(N),3SGV(H)]
 Deg. of freedom     2
 Full point group                 C3V     NOp   6
 Largest Abelian subgroup         CS      NOp   2
 Largest concise Abelian subgroup CS      NOp   2
                         Standard orientation:                         
 ---------------------------------------------------------------------
 Center     Atomic      Atomic             Coordinates (Angstroms)
 Number     Number       Type             X           Y           Z
 ---------------------------------------------------------------------
      1          7           0        0.000000    0.000000    0.067078
      2          1           0        0.000000    0.968489   -0.156515
      3          1           0        0.838736   -0.484245   -0.156515
      4          1           0       -0.838736   -0.484245   -0.156515
 ---------------------------------------------------------------------
 Rotational constants (GHZ):    327.6829006    327.6829006    178.2055605
 Standard basis: 6-31G(d) (6D, 7F)
 There are    15 symmetry adapted cartesian basis functions of A'  symmetry.
 There are     6 symmetry adapted cartesian basis functions of A"  symmetry.
 There are    15 symmetry adapted basis functions of A'  symmetry.
 There are     6 symmetry adapted basis functions of A"  symmetry.
    21 basis functions,    40 primitive gaussians,    21 cartesian basis functions
     5 alpha electrons        5 beta electrons
       nuclear repulsion energy        12.1265834401 Hartrees.
 NAtoms=    4 NActive=    4 NUniq=    2 SFac= 4.00D+00 NAtFMM=   60 NAOKFM=F Big=F
 Integral buffers will be    131072 words long.
 Raffenetti 1 integral format.
 Two-electron integral symmetry is turned on.
 One-electron integrals computed using PRISM.
 NBasis=    21 RedAO= T EigKep=  2.97D-02  NBF=    15     6
 NBsUse=    21 1.00D-06 EigRej= -1.00D+00 NBFU=    15     6
 Initial guess from the checkpoint file:  "A01.NH3.C3v.103.chk"
 B after Tr=     0.000000    0.000000    0.000000
         Rot=    1.000000    0.000000    0.000000    0.000000 Ang=   0.00 deg.
 Initial guess orbital symmetries:
       Occupied  (A1) (A1) (E) (E) (A1)
       Virtual   (?A) (?A) (?A) (?A) (?A) (?A) (?A) (?A) (?A) (?A)
                 (?A) (?A) (?A) (?A) (?A) (?A)
 Keep R1 ints in memory in symmetry-blocked form, NReq=875485.
 Requested convergence on RMS density matrix=1.00D-08 within 128 cycles.
 Requested convergence on MAX density matrix=1.00D-06.
 Requested convergence on             energy=1.00D-06.
 No special actions if energy rises.
 SCF Done:  E(RHF) =  -56.1803200702     A.U. after    8 cycles
            NFock=  8  Conv=0.21D-08     -V/T= 2.0016
 Calling FoFJK, ICntrl=      2127 FMM=F ISym2X=1 I1Cent= 0 IOpClX= 0 NMat=1 NMatS=1 NMatT=0.
 ***** Axes restored to original set *****
 -------------------------------------------------------------------
 Center     Atomic                   Forces (Hartrees/Bohr)
 Number     Number              X              Y              Z
 -------------------------------------------------------------------
      1        7           0.000000000    0.000000000    0.021665864
      2        1          -0.001667346    0.000000000   -0.007221955
      3        1           0.000833673    0.001443964   -0.007221955
      4        1           0.000833673   -0.001443964   -0.007221955
 -------------------------------------------------------------------
 Cartesian Forces:  Max     0.021665864 RMS     0.007269913
 -----------------------------------------------------------------------------------------------
                       Internal Coordinate Forces (Hartree/Bohr or radian)
  Cent   Atom   N1       Length/X         N2         Alpha/Y        N3         Beta/Z          J
 -----------------------------------------------------------------------------------------------
      1  N 
         X        1   0.000000(     1)
      2  H        1   0.000000(     2)      2   0.013922(     5)
      3  H        1   0.000000(     3)      2   0.013922(     6)      3   0.000000(     8)     0
      4  H        1   0.000000(     4)      2   0.013922(     7)      3   0.000000(     9)     0
 -----------------------------------------------------------------------------------------------
 Internal  Forces:  Max     0.013921976 RMS     0.008037857

 GradGradGradGradGradGradGradGradGradGradGradGradGradGradGradGradGradGrad
 Berny optimization.
 Search for a local minimum.
 Step number   3 out of a maximum of   20
 All quantities printed in internal units (Hartrees-Bohrs-Radians)
 Update second derivatives using D2CorN and points    2    3
 DE= -1.18D-06 DEPred=-1.21D-06 R= 9.81D-01
 TightC=F SS=  1.41D+00  RLast= 1.21D-03 DXNew= 5.0454D-01 3.6319D-03
 Trust test= 9.81D-01 RLast= 1.21D-03 DXMaxT set to 3.00D-01
 The second derivative matrix:
                          B1        A1
           B1           1.61638
           A1          -0.10528   0.34599
 ITU=  1  1  0
     Eigenvalues ---    1.616381000.00000
 RFO step:  Lambda= 0.00000000D+00 EMin= 1.61637678D+00
 Quartic linear search produced a step of -0.00004.
 Variable       Old X    -DE/DX   Delta X   Delta X   Delta X     New X
                                 (Linear)    (Quad)   (Total)
    B1        1.87832   0.00000   0.00000   0.00000   0.00000   1.87832
    A1        1.79769   0.04177   0.00000   0.00000   0.00000   1.79769
         Item               Value     Threshold  Converged?
 Maximum Force            0.000000     0.000450     YES
 RMS     Force            0.000000     0.000300     YES
 Maximum Displacement     0.000000     0.001800     YES
 RMS     Displacement     0.000000     0.001200     YES
 Predicted change in Energy=-1.882634D-15
 Optimization completed.
    -- Stationary point found.
                       ----------------------------
                       !   Optimized Parameters   !
                       ! (Angstroms and Degrees)  !
 ----------------------                            ----------------------
 !      Name          Value   Derivative information (Atomic Units)     !
 ------------------------------------------------------------------------
 !       B1          0.994    -DE/DX =    0.0                           !
 !       A1        103.0      -DE/DX =    0.0418                        !
 ------------------------------------------------------------------------
 GradGradGradGradGradGradGradGradGradGradGradGradGradGradGradGradGradGrad

 ---------------------------------------------------------------------------------------------------
                            Z-MATRIX (ANGSTROMS AND DEGREES)
   CD    Cent   Atom    N1       Length/X        N2       Alpha/Y        N3        Beta/Z          J
 ---------------------------------------------------------------------------------------------------
      1      1  N 
      2         X        1   1.000000(     1)
      3      2  H        1   0.993964(     2)      2  103.000(     5)
      4      3  H        1   0.993964(     3)      2  103.000(     6)      3  120.000(     8)      0
      5      4  H        1   0.993964(     4)      2  103.000(     7)      3 -120.000(     9)      0
 ---------------------------------------------------------------------------------------------------
                         Z-Matrix orientation:                         
 ---------------------------------------------------------------------
 Center     Atomic      Atomic             Coordinates (Angstroms)
 Number     Number       Type             X           Y           Z
 ---------------------------------------------------------------------
      1          7           0        0.000000    0.000000    0.000000
      2         -1           0        0.000000    0.000000    1.000000
      3          1           0        0.968489    0.000000   -0.223593
      4          1           0       -0.484245   -0.838736   -0.223593
      5          1           0       -0.484245    0.838736   -0.223593
 ---------------------------------------------------------------------
                    Distance matrix (angstroms):
                    1          2          3          4          5
     1  N    0.000000
     2  X    1.000000   0.000000
     3  H    0.993964   1.560497   0.000000
     4  H    0.993964   1.560497   1.677472   0.000000
     5  H    0.993964   1.560497   1.677472   1.677472   0.000000
 Stoichiometry    H3N
 Framework group  C3V[C3(N),3SGV(H)]
 Deg. of freedom     2
 Full point group                 C3V     NOp   6
 Largest Abelian subgroup         CS      NOp   2
 Largest concise Abelian subgroup CS      NOp   2
                         Standard orientation:                         
 ---------------------------------------------------------------------
 Center     Atomic      Atomic             Coordinates (Angstroms)
 Number     Number       Type             X           Y           Z
 ---------------------------------------------------------------------
      1          7           0        0.000000    0.000000    0.067078
      2          1           0        0.000000    0.968489   -0.156515
      3          1           0        0.838736   -0.484245   -0.156515
      4          1           0       -0.838736   -0.484245   -0.156515
 ---------------------------------------------------------------------
 Rotational constants (GHZ):    327.6829006    327.6829006    178.2055605

 **********************************************************************

            Population analysis using the SCF density.

 **********************************************************************

 Orbital symmetries:
       Occupied  (A1) (A1) (E) (E) (A1)
       Virtual   (A1) (E) (E) (E) (E) (A1) (A1) (E) (E) (A1) (E)
                 (E) (A1) (E) (E) (A1)
 The electronic state is 1-A1.
 Alpha  occ. eigenvalues --  -15.52259  -1.12708  -0.63944  -0.63944  -0.39463
 Alpha virt. eigenvalues --    0.22880   0.32939   0.32939   0.92134   0.92134
 Alpha virt. eigenvalues --    0.97103   1.12465   1.25249   1.25249   1.32723
 Alpha virt. eigenvalues --    1.97727   1.97727   2.42298   2.74549   2.74549
 Alpha virt. eigenvalues --    4.11760
          Condensed to atoms (all electrons):
               1          2          3          4
     1  N    7.028231   0.339056   0.339056   0.339056
     2  H    0.339056   0.355969  -0.021745  -0.021745
     3  H    0.339056  -0.021745   0.355969  -0.021745
     4  H    0.339056  -0.021745  -0.021745   0.355969
 Mulliken charges:
               1
     1  N   -1.045398
     2  H    0.348466
     3  H    0.348466
     4  H    0.348466
 Sum of Mulliken charges =   0.00000
 Mulliken charges with hydrogens summed into heavy atoms:
               1
     1  N    0.000000
 Electronic spatial extent (au):  <R**2>=             25.6814
 Charge=              0.0000 electrons
 Dipole moment (field-independent basis, Debye):
    X=              0.0000    Y=              0.0000    Z=             -1.2749  Tot=              1.2749
 Quadrupole moment (field-independent basis, Debye-Ang):
   XX=             -5.6752   YY=             -5.6752   ZZ=             -9.1719
   XY=              0.0000   XZ=              0.0000   YZ=              0.0000
 Traceless Quadrupole moment (field-independent basis, Debye-Ang):
   XX=              1.1656   YY=              1.1656   ZZ=             -2.3311
   XY=              0.0000   XZ=              0.0000   YZ=              0.0000
 Octapole moment (field-independent basis, Debye-Ang**2):
  XXX=              0.0000  YYY=              1.0881  ZZZ=             -1.1935  XYY=              0.0000
  XXY=             -1.0881  XXZ=             -0.6490  XZZ=              0.0000  YZZ=              0.0000
  YYZ=             -0.6490  XYZ=              0.0000
 Hexadecapole moment (field-independent basis, Debye-Ang**3):
 XXXX=             -8.5791 YYYY=             -8.5791 ZZZZ=             -9.1584 XXXY=              0.0000
 XXXZ=              0.0000 YYYX=              0.0000 YYYZ=             -0.2225 ZZZX=              0.0000
 ZZZY=              0.0000 XXYY=             -2.8597 XXZZ=             -3.2069 YYZZ=             -3.2069
 XXYZ=              0.2225 YYXZ=              0.0000 ZZXY=              0.0000
 N-N= 1.212658344011D+01 E-N=-1.560573392295D+02  KE= 5.608987698052D+01
 Symmetry A'   KE= 5.347285314352D+01
 Symmetry A"   KE= 2.617023837000D+00
 1\1\GINC-C11-03\POpt\RHF\6-31G(d)\H3N1\EPLUHAR\02-Sep-2016\1\\# opt=(z
 -matrix) rhf/6-31g(d)\\Ammonia c3v\\0,1\N\X,1,1.\H,1,B1,2,A1\H,1,B1,2,
 A1,3,120.,0\H,1,B1,2,A1,3,-120.,0\\B1=0.99396442\A1=103.\\Version=ES64
 L-G09RevD.01\State=1-A1\HF=-56.1803201\RMSD=2.119e-09\RMSF=7.270e-03\D
 ipole=0.,0.,-0.5015696\Quadrupole=0.8665618,0.8665618,-1.7331235,0.,0.
 ,0.\PG=C03V [C3(N1),3SGV(H1)]\\@


 EDUCATION IS NOT TRAINING BUT RATHER THE PROCESS THAT EQUIPS YOU TO
 ENTERTAIN YOURSELF, A FRIEND, OR AN IDEA.  -- WALLACE STERLING
 Job cpu time:       0 days  0 hours  0 minutes 16.8 seconds.
 File lengths (MBytes):  RWF=      5 Int=      0 D2E=      0 Chk=      1 Scr=      1
 Normal termination of Gaussian 09 at Fri Sep  2 13:32:31 2016.
