 Entering Gaussian System, Link 0=g09
 Initial command:
 /share/sw/gaussian/D.01/g09/l1.exe "/local/scratch/epluhar/Gau-126337.inp" -scrdir="/local/scratch/epluhar/"
 Entering Link 1 = /share/sw/gaussian/D.01/g09/l1.exe PID=    126338.
  
 Copyright (c) 1988,1990,1992,1993,1995,1998,2003,2009,2013,
            Gaussian, Inc.  All Rights Reserved.
  
 This is part of the Gaussian(R) 09 program.  It is based on
 the Gaussian(R) 03 system (copyright 2003, Gaussian, Inc.),
 the Gaussian(R) 98 system (copyright 1998, Gaussian, Inc.),
 the Gaussian(R) 94 system (copyright 1995, Gaussian, Inc.),
 the Gaussian 92(TM) system (copyright 1992, Gaussian, Inc.),
 the Gaussian 90(TM) system (copyright 1990, Gaussian, Inc.),
 the Gaussian 88(TM) system (copyright 1988, Gaussian, Inc.),
 the Gaussian 86(TM) system (copyright 1986, Carnegie Mellon
 University), and the Gaussian 82(TM) system (copyright 1983,
 Carnegie Mellon University). Gaussian is a federally registered
 trademark of Gaussian, Inc.
  
 This software contains proprietary and confidential information,
 including trade secrets, belonging to Gaussian, Inc.
  
 This software is provided under written license and may be
 used, copied, transmitted, or stored only in accord with that
 written license.
  
 The following legend is applicable only to US Government
 contracts under FAR:
  
                    RESTRICTED RIGHTS LEGEND
  
 Use, reproduction and disclosure by the US Government is
 subject to restrictions as set forth in subparagraphs (a)
 and (c) of the Commercial Computer Software - Restricted
 Rights clause in FAR 52.227-19.
  
 Gaussian, Inc.
 340 Quinnipiac St., Bldg. 40, Wallingford CT 06492
  
  
 ---------------------------------------------------------------
 Warning -- This program may not be used in any manner that
 competes with the business of Gaussian, Inc. or will provide
 assistance to any competitor of Gaussian, Inc.  The licensee
 of this program is prohibited from giving any competitor of
 Gaussian, Inc. access to this program.  By using this program,
 the user acknowledges that Gaussian, Inc. is engaged in the
 business of creating and licensing software in the field of
 computational chemistry and represents and warrants to the
 licensee that it is not a competitor of Gaussian, Inc. and that
 it will not use this program in any manner prohibited above.
 ---------------------------------------------------------------
  

 Cite this work as:
 Gaussian 09, Revision D.01,
 M. J. Frisch, G. W. Trucks, H. B. Schlegel, G. E. Scuseria, 
 M. A. Robb, J. R. Cheeseman, G. Scalmani, V. Barone, B. Mennucci, 
 G. A. Petersson, H. Nakatsuji, M. Caricato, X. Li, H. P. Hratchian, 
 A. F. Izmaylov, J. Bloino, G. Zheng, J. L. Sonnenberg, M. Hada, 
 M. Ehara, K. Toyota, R. Fukuda, J. Hasegawa, M. Ishida, T. Nakajima, 
 Y. Honda, O. Kitao, H. Nakai, T. Vreven, J. A. Montgomery, Jr., 
 J. E. Peralta, F. Ogliaro, M. Bearpark, J. J. Heyd, E. Brothers, 
 K. N. Kudin, V. N. Staroverov, T. Keith, R. Kobayashi, J. Normand, 
 K. Raghavachari, A. Rendell, J. C. Burant, S. S. Iyengar, J. Tomasi, 
 M. Cossi, N. Rega, J. M. Millam, M. Klene, J. E. Knox, J. B. Cross, 
 V. Bakken, C. Adamo, J. Jaramillo, R. Gomperts, R. E. Stratmann, 
 O. Yazyev, A. J. Austin, R. Cammi, C. Pomelli, J. W. Ochterski, 
 R. L. Martin, K. Morokuma, V. G. Zakrzewski, G. A. Voth, 
 P. Salvador, J. J. Dannenberg, S. Dapprich, A. D. Daniels, 
 O. Farkas, J. B. Foresman, J. V. Ortiz, J. Cioslowski, 
 and D. J. Fox, Gaussian, Inc., Wallingford CT, 2013.
 
 ******************************************
 Gaussian 09:  ES64L-G09RevD.01 24-Apr-2013
                 2-Sep-2016 
 ******************************************
 %nprocshared=2
 Will use up to    2 processors via shared memory.
 %mem=256MW
 %chk=A01.NH3.C3v.116.chk
 -----------------------------
 # opt=(z-matrix) rhf/6-31g(d)
 -----------------------------
 1/10=7,18=40,38=1/1,3;
 2/12=2,17=6,18=5,29=3,40=1/2;
 3/5=1,6=6,7=1,11=1,16=1,25=1,30=1,71=1,116=1/1,2,3;
 4//1;
 5/5=2,38=5/2;
 6/7=2,8=2,9=2,10=2,28=1/1;
 7/29=1/1,2,3,16;
 1/10=7,18=40/3(2);
 2/29=3/2;
 99//99;
 2/29=3/2;
 3/5=1,6=6,7=1,11=1,16=1,25=1,30=1,71=1,116=1/1,2,3;
 4/5=5,16=3,69=1/1;
 5/5=2,38=5/2;
 7//1,2,3,16;
 1/18=40/3(-5);
 2/29=3/2;
 6/7=2,8=2,9=2,10=2,19=2,28=1/1;
 99/9=1/99;
 -----------
 Ammonia c3v
 -----------
 Symbolic Z-matrix:
 Charge =  0 Multiplicity = 1
 N
 X                    1     1. 
 H                    1    B1       2    A1
 H                    1    B1       2    A1       3     120.     0
 H                    1    B1       2    A1       3    -120.     0
       Variables:
  B1                    1.                       
       Constants:
  A1                  116.                       
 

 GradGradGradGradGradGradGradGradGradGradGradGradGradGradGradGradGradGrad
 Berny optimization.
 Initialization pass.
                       ----------------------------
                       !    Initial Parameters    !
                       ! (Angstroms and Degrees)  !
 ----------------------                            ----------------------
 !      Name          Value   Derivative information (Atomic Units)     !
 ------------------------------------------------------------------------
 !       B1          1.0      estimate D2E/DX2                          !
 !       A1        116.0      Frozen                                    !
 ------------------------------------------------------------------------
 Trust Radius=3.00D-01 FncErr=1.00D-07 GrdErr=1.00D-07
 Number of steps in this run=     20 maximum allowed number of steps=    100.
 GradGradGradGradGradGradGradGradGradGradGradGradGradGradGradGradGradGrad

 ---------------------------------------------------------------------------------------------------
                            Z-MATRIX (ANGSTROMS AND DEGREES)
   CD    Cent   Atom    N1       Length/X        N2       Alpha/Y        N3        Beta/Z          J
 ---------------------------------------------------------------------------------------------------
      1      1  N 
      2         X        1   1.000000(     1)
      3      2  H        1   1.000000(     2)      2  116.000(     5)
      4      3  H        1   1.000000(     3)      2  116.000(     6)      3  120.000(     8)      0
      5      4  H        1   1.000000(     4)      2  116.000(     7)      3 -120.000(     9)      0
 ---------------------------------------------------------------------------------------------------
                         Z-Matrix orientation:                         
 ---------------------------------------------------------------------
 Center     Atomic      Atomic             Coordinates (Angstroms)
 Number     Number       Type             X           Y           Z
 ---------------------------------------------------------------------
      1          7           0        0.000000    0.000000    0.000000
      2         -1           0        0.000000    0.000000    1.000000
      3          1           0        0.898794    0.000000   -0.438371
      4          1           0       -0.449397   -0.778378   -0.438371
      5          1           0       -0.449397    0.778378   -0.438371
 ---------------------------------------------------------------------
                    Distance matrix (angstroms):
                    1          2          3          4          5
     1  N    0.000000
     2  X    1.000000   0.000000
     3  H    1.000000   1.696096   0.000000
     4  H    1.000000   1.696096   1.556757   0.000000
     5  H    1.000000   1.696096   1.556757   1.556757   0.000000
 Stoichiometry    H3N
 Framework group  C3V[C3(N),3SGV(H)]
 Deg. of freedom     2
 Full point group                 C3V     NOp   6
 Largest Abelian subgroup         CS      NOp   2
 Largest concise Abelian subgroup CS      NOp   2
                         Standard orientation:                         
 ---------------------------------------------------------------------
 Center     Atomic      Atomic             Coordinates (Angstroms)
 Number     Number       Type             X           Y           Z
 ---------------------------------------------------------------------
      1          7           0        0.000000    0.000000    0.131511
      2          1           0        0.000000    0.898794   -0.306860
      3          1           0        0.778378   -0.449397   -0.306860
      4          1           0       -0.778378   -0.449397   -0.306860
 ---------------------------------------------------------------------
 Rotational constants (GHZ):    297.4439463    297.4439463    206.9142610
 Standard basis: 6-31G(d) (6D, 7F)
 There are    15 symmetry adapted cartesian basis functions of A'  symmetry.
 There are     6 symmetry adapted cartesian basis functions of A"  symmetry.
 There are    15 symmetry adapted basis functions of A'  symmetry.
 There are     6 symmetry adapted basis functions of A"  symmetry.
    21 basis functions,    40 primitive gaussians,    21 cartesian basis functions
     5 alpha electrons        5 beta electrons
       nuclear repulsion energy        12.1324898304 Hartrees.
 NAtoms=    4 NActive=    4 NUniq=    2 SFac= 4.00D+00 NAtFMM=   60 NAOKFM=F Big=F
 Integral buffers will be    131072 words long.
 Raffenetti 1 integral format.
 Two-electron integral symmetry is turned on.
 One-electron integrals computed using PRISM.
 NBasis=    21 RedAO= T EigKep=  2.71D-02  NBF=    15     6
 NBsUse=    21 1.00D-06 EigRej= -1.00D+00 NBFU=    15     6
 ExpMin= 1.61D-01 ExpMax= 4.17D+03 ExpMxC= 6.27D+02 IAcc=1 IRadAn=         1 AccDes= 0.00D+00
 Harris functional with IExCor=  205 and IRadAn=       1 diagonalized for initial guess.
 HarFok:  IExCor=  205 AccDes= 0.00D+00 IRadAn=         1 IDoV= 1 UseB2=F ITyADJ=14
 ICtDFT=  3500011 ScaDFX=  1.000000  1.000000  1.000000  1.000000
 FoFCou: FMM=F IPFlag=           0 FMFlag=      100000 FMFlg1=           0
         NFxFlg=           0 DoJE=T BraDBF=F KetDBF=T FulRan=T
         wScrn=  0.000000 ICntrl=     500 IOpCl=  0 I1Cent=   200000004 NGrid=           0
         NMat0=    1 NMatS0=      1 NMatT0=    0 NMatD0=    1 NMtDS0=    0 NMtDT0=    0
 Petite list used in FoFCou.
 Initial guess orbital symmetries:
       Occupied  (A1) (A1) (E) (E) (A1)
       Virtual   (A1) (E) (E) (A1) (E) (E) (E) (E) (A1) (A1) (E)
                 (E) (A1) (E) (E) (A1)
 The electronic state of the initial guess is 1-A1.
 Keep R1 ints in memory in symmetry-blocked form, NReq=875485.
 Requested convergence on RMS density matrix=1.00D-08 within 128 cycles.
 Requested convergence on MAX density matrix=1.00D-06.
 Requested convergence on             energy=1.00D-06.
 No special actions if energy rises.
 SCF Done:  E(RHF) =  -56.1825391483     A.U. after   10 cycles
            NFock= 10  Conv=0.20D-08     -V/T= 2.0007

 **********************************************************************

            Population analysis using the SCF density.

 **********************************************************************

 Orbital symmetries:
       Occupied  (A1) (A1) (E) (E) (A1)
       Virtual   (A1) (E) (E) (E) (E) (A1) (E) (E) (A1) (A1) (E)
                 (E) (A1) (E) (E) (A1)
 The electronic state is 1-A1.
 Alpha  occ. eigenvalues --  -15.53842  -1.15276  -0.62240  -0.62240  -0.43589
 Alpha virt. eigenvalues --    0.22002   0.32379   0.32379   0.88187   0.88187
 Alpha virt. eigenvalues --    0.96905   1.22694   1.22694   1.25201   1.45045
 Alpha virt. eigenvalues --    1.95813   1.95813   2.20027   2.77865   2.77865
 Alpha virt. eigenvalues --    4.08627
          Condensed to atoms (all electrons):
               1          2          3          4
     1  N    6.983798   0.329313   0.329313   0.329313
     2  H    0.329313   0.405517  -0.029371  -0.029371
     3  H    0.329313  -0.029371   0.405517  -0.029371
     4  H    0.329313  -0.029371  -0.029371   0.405517
 Mulliken charges:
               1
     1  N   -0.971738
     2  H    0.323913
     3  H    0.323913
     4  H    0.323913
 Sum of Mulliken charges =   0.00000
 Mulliken charges with hydrogens summed into heavy atoms:
               1
     1  N    0.000000
 Electronic spatial extent (au):  <R**2>=             25.9009
 Charge=              0.0000 electrons
 Dipole moment (field-independent basis, Debye):
    X=              0.0000    Y=              0.0000    Z=             -2.1732  Tot=              2.1732
 Quadrupole moment (field-independent basis, Debye-Ang):
   XX=             -6.2978   YY=             -6.2978   ZZ=             -8.6631
   XY=              0.0000   XZ=              0.0000   YZ=              0.0000
 Traceless Quadrupole moment (field-independent basis, Debye-Ang):
   XX=              0.7884   YY=              0.7884   ZZ=             -1.5769
   XY=              0.0000   XZ=              0.0000   YZ=              0.0000
 Octapole moment (field-independent basis, Debye-Ang**2):
  XXX=              0.0000  YYY=              0.7129  ZZZ=             -2.1010  XYY=              0.0000
  XXY=             -0.7129  XXZ=             -1.0436  XZZ=              0.0000  YZZ=              0.0000
  YYZ=             -1.0436  XYZ=              0.0000
 Hexadecapole moment (field-independent basis, Debye-Ang**3):
 XXXX=             -9.2724 YYYY=             -9.2724 ZZZZ=             -9.9639 XXXY=              0.0000
 XXXZ=              0.0000 YYYX=              0.0000 YYYZ=             -0.3192 ZZZX=              0.0000
 ZZZY=              0.0000 XXYY=             -3.0908 XXZZ=             -3.1685 YYZZ=             -3.1685
 XXYZ=              0.3192 YYXZ=              0.0000 ZZXY=              0.0000
 N-N= 1.213248983041D+01 E-N=-1.560322930466D+02  KE= 5.614598421712D+01
 Symmetry A'   KE= 5.351660073412D+01
 Symmetry A"   KE= 2.629383482993D+00
 Calling FoFJK, ICntrl=      2127 FMM=F ISym2X=1 I1Cent= 0 IOpClX= 0 NMat=1 NMatS=1 NMatT=0.
 ***** Axes restored to original set *****
 -------------------------------------------------------------------
 Center     Atomic                   Forces (Hartrees/Bohr)
 Number     Number              X              Y              Z
 -------------------------------------------------------------------
      1        7           0.000000000    0.000000000   -0.013882044
      2        1           0.010502916    0.000000000    0.004627348
      3        1          -0.005251458   -0.009095792    0.004627348
      4        1          -0.005251458    0.009095792    0.004627348
 -------------------------------------------------------------------
 Cartesian Forces:  Max     0.013882044 RMS     0.006999297
 -----------------------------------------------------------------------------------------------
                       Internal Coordinate Forces (Hartree/Bohr or radian)
  Cent   Atom   N1       Length/X         N2         Alpha/Y        N3         Beta/Z          J
 -----------------------------------------------------------------------------------------------
      1  N 
         X        1   0.000000(     1)
      2  H        1   0.007411(     2)      2  -0.016560(     5)
      3  H        1   0.007411(     3)      2  -0.016560(     6)      3   0.000000(     8)     0
      4  H        1   0.007411(     4)      2  -0.016560(     7)      3   0.000000(     9)     0
 -----------------------------------------------------------------------------------------------
 Internal  Forces:  Max     0.016560064 RMS     0.010474819

 GradGradGradGradGradGradGradGradGradGradGradGradGradGradGradGradGradGrad
 Berny optimization.
 Search for a local minimum.
 Step number   1 out of a maximum of   20
 All quantities printed in internal units (Hartrees-Bohrs-Radians)
 Second derivative matrix not updated -- first step.
 The second derivative matrix:
                          B1        A1
           B1           1.43065
           A1           0.00000   0.70234
 ITU=  0
     Eigenvalues ---    1.430651000.00000
 RFO step:  Lambda=-3.45471402D-04 EMin= 1.43064988D+00
 Linear search not attempted -- first point.
 Variable       Old X    -DE/DX   Delta X   Delta X   Delta X     New X
                                 (Linear)    (Quad)   (Total)
    B1        1.88973   0.02223   0.00000   0.01554   0.01554   1.90526
    A1        2.02458  -0.04968   0.00000   0.00000   0.00000   2.02458
         Item               Value     Threshold  Converged?
 Maximum Force            0.022234     0.000450     NO 
 RMS     Force            0.022234     0.000300     NO 
 Maximum Displacement     0.015538     0.001800     NO 
 RMS     Displacement     0.010987     0.001200     NO 
 Predicted change in Energy=-1.727774D-04
 GradGradGradGradGradGradGradGradGradGradGradGradGradGradGradGradGradGrad

 ---------------------------------------------------------------------------------------------------
                            Z-MATRIX (ANGSTROMS AND DEGREES)
   CD    Cent   Atom    N1       Length/X        N2       Alpha/Y        N3        Beta/Z          J
 ---------------------------------------------------------------------------------------------------
      1      1  N 
      2         X        1   1.000000(     1)
      3      2  H        1   1.008222(     2)      2  116.000(     5)
      4      3  H        1   1.008222(     3)      2  116.000(     6)      3  120.000(     8)      0
      5      4  H        1   1.008222(     4)      2  116.000(     7)      3 -120.000(     9)      0
 ---------------------------------------------------------------------------------------------------
                         Z-Matrix orientation:                         
 ---------------------------------------------------------------------
 Center     Atomic      Atomic             Coordinates (Angstroms)
 Number     Number       Type             X           Y           Z
 ---------------------------------------------------------------------
      1          7           0        0.000000    0.000000    0.000000
      2         -1           0        0.000000    0.000000    1.000000
      3          1           0        0.906184    0.000000   -0.441976
      4          1           0       -0.453092   -0.784778   -0.441976
      5          1           0       -0.453092    0.784778   -0.441976
 ---------------------------------------------------------------------
                    Distance matrix (angstroms):
                    1          2          3          4          5
     1  N    0.000000
     2  X    1.000000   0.000000
     3  H    1.008222   1.703075   0.000000
     4  H    1.008222   1.703075   1.569557   0.000000
     5  H    1.008222   1.703075   1.569557   1.569557   0.000000
 Stoichiometry    H3N
 Framework group  C3V[C3(N),3SGV(H)]
 Deg. of freedom     2
 Full point group                 C3V     NOp   6
 Largest Abelian subgroup         CS      NOp   2
 Largest concise Abelian subgroup CS      NOp   2
                         Standard orientation:                         
 ---------------------------------------------------------------------
 Center     Atomic      Atomic             Coordinates (Angstroms)
 Number     Number       Type             X           Y           Z
 ---------------------------------------------------------------------
      1          7           0        0.000000    0.000000    0.132593
      2          1           0        0.000000    0.906184   -0.309383
      3          1           0        0.784778   -0.453092   -0.309383
      4          1           0       -0.784778   -0.453092   -0.309383
 ---------------------------------------------------------------------
 Rotational constants (GHZ):    292.6123296    292.6123296    203.5531894
 Standard basis: 6-31G(d) (6D, 7F)
 There are    15 symmetry adapted cartesian basis functions of A'  symmetry.
 There are     6 symmetry adapted cartesian basis functions of A"  symmetry.
 There are    15 symmetry adapted basis functions of A'  symmetry.
 There are     6 symmetry adapted basis functions of A"  symmetry.
    21 basis functions,    40 primitive gaussians,    21 cartesian basis functions
     5 alpha electrons        5 beta electrons
       nuclear repulsion energy        12.0335475847 Hartrees.
 NAtoms=    4 NActive=    4 NUniq=    2 SFac= 4.00D+00 NAtFMM=   60 NAOKFM=F Big=F
 Integral buffers will be    131072 words long.
 Raffenetti 1 integral format.
 Two-electron integral symmetry is turned on.
 One-electron integrals computed using PRISM.
 NBasis=    21 RedAO= T EigKep=  2.76D-02  NBF=    15     6
 NBsUse=    21 1.00D-06 EigRej= -1.00D+00 NBFU=    15     6
 Initial guess from the checkpoint file:  "A01.NH3.C3v.116.chk"
 B after Tr=     0.000000    0.000000    0.000000
         Rot=    1.000000    0.000000    0.000000    0.000000 Ang=   0.00 deg.
 Initial guess orbital symmetries:
       Occupied  (A1) (A1) (E) (E) (A1)
       Virtual   (?A) (?A) (?A) (?A) (?A) (?A) (?A) (?A) (?A) (?A)
                 (?A) (?A) (?A) (?A) (?A) (?A)
 Keep R1 ints in memory in symmetry-blocked form, NReq=875485.
 Requested convergence on RMS density matrix=1.00D-08 within 128 cycles.
 Requested convergence on MAX density matrix=1.00D-06.
 Requested convergence on             energy=1.00D-06.
 No special actions if energy rises.
 SCF Done:  E(RHF) =  -56.1827015643     A.U. after    9 cycles
            NFock=  9  Conv=0.93D-09     -V/T= 2.0014
 Calling FoFJK, ICntrl=      2127 FMM=F ISym2X=1 I1Cent= 0 IOpClX= 0 NMat=1 NMatS=1 NMatT=0.
 ***** Axes restored to original set *****
 -------------------------------------------------------------------
 Center     Atomic                   Forces (Hartrees/Bohr)
 Number     Number              X              Y              Z
 -------------------------------------------------------------------
      1        7           0.000000000    0.000000000   -0.022414563
      2        1           0.003225575    0.000000000    0.007471521
      3        1          -0.001612787   -0.002793430    0.007471521
      4        1          -0.001612787    0.002793430    0.007471521
 -------------------------------------------------------------------
 Cartesian Forces:  Max     0.022414563 RMS     0.007643606
 -----------------------------------------------------------------------------------------------
                       Internal Coordinate Forces (Hartree/Bohr or radian)
  Cent   Atom   N1       Length/X         N2         Alpha/Y        N3         Beta/Z          J
 -----------------------------------------------------------------------------------------------
      1  N 
         X        1   0.000000(     1)
      2  H        1  -0.000376(     2)      2  -0.015489(     5)
      3  H        1  -0.000376(     3)      2  -0.015489(     6)      3   0.000000(     8)     0
      4  H        1  -0.000376(     4)      2  -0.015489(     7)      3   0.000000(     9)     0
 -----------------------------------------------------------------------------------------------
 Internal  Forces:  Max     0.015488571 RMS     0.008944968

 GradGradGradGradGradGradGradGradGradGradGradGradGradGradGradGradGradGrad
 Berny optimization.
 Search for a local minimum.
 Step number   2 out of a maximum of   20
 All quantities printed in internal units (Hartrees-Bohrs-Radians)
 Update second derivatives using D2CorN and points    1    2
 DE= -1.62D-04 DEPred=-1.73D-04 R= 9.40D-01
 TightC=F SS=  1.41D+00  RLast= 1.55D-02 DXNew= 5.0454D-01 4.6613D-02
 Trust test= 9.40D-01 RLast= 1.55D-02 DXMaxT set to 3.00D-01
 The second derivative matrix:
                          B1        A1
           B1           1.50363
           A1          -0.10344   0.70234
 ITU=  1  0
     Eigenvalues ---    1.503631000.00000
 RFO step:  Lambda= 0.00000000D+00 EMin= 1.50362612D+00
 Quartic linear search produced a step of -0.04951.
 Variable       Old X    -DE/DX   Delta X   Delta X   Delta X     New X
                                 (Linear)    (Quad)   (Total)
    B1        1.90526  -0.00113  -0.00077   0.00000  -0.00077   1.90449
    A1        2.02458  -0.04647   0.00000   0.00000   0.00000   2.02458
         Item               Value     Threshold  Converged?
 Maximum Force            0.001129     0.000450     NO 
 RMS     Force            0.001129     0.000300     NO 
 Maximum Displacement     0.000769     0.001800     YES
 RMS     Displacement     0.000544     0.001200     YES
 Predicted change in Energy=-4.232295D-07
 GradGradGradGradGradGradGradGradGradGradGradGradGradGradGradGradGradGrad

 ---------------------------------------------------------------------------------------------------
                            Z-MATRIX (ANGSTROMS AND DEGREES)
   CD    Cent   Atom    N1       Length/X        N2       Alpha/Y        N3        Beta/Z          J
 ---------------------------------------------------------------------------------------------------
      1      1  N 
      2         X        1   1.000000(     1)
      3      2  H        1   1.007815(     2)      2  116.000(     5)
      4      3  H        1   1.007815(     3)      2  116.000(     6)      3  120.000(     8)      0
      5      4  H        1   1.007815(     4)      2  116.000(     7)      3 -120.000(     9)      0
 ---------------------------------------------------------------------------------------------------
                         Z-Matrix orientation:                         
 ---------------------------------------------------------------------
 Center     Atomic      Atomic             Coordinates (Angstroms)
 Number     Number       Type             X           Y           Z
 ---------------------------------------------------------------------
      1          7           0        0.000000    0.000000    0.000000
      2         -1           0        0.000000    0.000000    1.000000
      3          1           0        0.905818    0.000000   -0.441797
      4          1           0       -0.452909   -0.784462   -0.441797
      5          1           0       -0.452909    0.784462   -0.441797
 ---------------------------------------------------------------------
                    Distance matrix (angstroms):
                    1          2          3          4          5
     1  N    0.000000
     2  X    1.000000   0.000000
     3  H    1.007815   1.702729   0.000000
     4  H    1.007815   1.702729   1.568923   0.000000
     5  H    1.007815   1.702729   1.568923   1.568923   0.000000
 Stoichiometry    H3N
 Framework group  C3V[C3(N),3SGV(H)]
 Deg. of freedom     2
 Full point group                 C3V     NOp   6
 Largest Abelian subgroup         CS      NOp   2
 Largest concise Abelian subgroup CS      NOp   2
                         Standard orientation:                         
 ---------------------------------------------------------------------
 Center     Atomic      Atomic             Coordinates (Angstroms)
 Number     Number       Type             X           Y           Z
 ---------------------------------------------------------------------
      1          7           0        0.000000    0.000000    0.132539
      2          1           0        0.000000    0.905818   -0.309258
      3          1           0        0.784462   -0.452909   -0.309258
      4          1           0       -0.784462   -0.452909   -0.309258
 ---------------------------------------------------------------------
 Rotational constants (GHZ):    292.8487473    292.8487473    203.7176513
 Standard basis: 6-31G(d) (6D, 7F)
 There are    15 symmetry adapted cartesian basis functions of A'  symmetry.
 There are     6 symmetry adapted cartesian basis functions of A"  symmetry.
 There are    15 symmetry adapted basis functions of A'  symmetry.
 There are     6 symmetry adapted basis functions of A"  symmetry.
    21 basis functions,    40 primitive gaussians,    21 cartesian basis functions
     5 alpha electrons        5 beta electrons
       nuclear repulsion energy        12.0384078873 Hartrees.
 NAtoms=    4 NActive=    4 NUniq=    2 SFac= 4.00D+00 NAtFMM=   60 NAOKFM=F Big=F
 Integral buffers will be    131072 words long.
 Raffenetti 1 integral format.
 Two-electron integral symmetry is turned on.
 One-electron integrals computed using PRISM.
 NBasis=    21 RedAO= T EigKep=  2.76D-02  NBF=    15     6
 NBsUse=    21 1.00D-06 EigRej= -1.00D+00 NBFU=    15     6
 Initial guess from the checkpoint file:  "A01.NH3.C3v.116.chk"
 B after Tr=     0.000000    0.000000    0.000000
         Rot=    1.000000    0.000000    0.000000    0.000000 Ang=   0.00 deg.
 Initial guess orbital symmetries:
       Occupied  (A1) (A1) (E) (E) (A1)
       Virtual   (?A) (?A) (?A) (?A) (?A) (?A) (?A) (?A) (?A) (?A)
                 (?A) (?A) (?A) (?A) (?A) (?A)
 Keep R1 ints in memory in symmetry-blocked form, NReq=875485.
 Requested convergence on RMS density matrix=1.00D-08 within 128 cycles.
 Requested convergence on MAX density matrix=1.00D-06.
 Requested convergence on             energy=1.00D-06.
 No special actions if energy rises.
 SCF Done:  E(RHF) =  -56.1827019985     A.U. after    7 cycles
            NFock=  7  Conv=0.46D-08     -V/T= 2.0014
 Calling FoFJK, ICntrl=      2127 FMM=F ISym2X=1 I1Cent= 0 IOpClX= 0 NMat=1 NMatS=1 NMatT=0.
 ***** Axes restored to original set *****
 -------------------------------------------------------------------
 Center     Atomic                   Forces (Hartrees/Bohr)
 Number     Number              X              Y              Z
 -------------------------------------------------------------------
      1        7           0.000000000    0.000000000   -0.022003770
      2        1           0.003577351    0.000000000    0.007334590
      3        1          -0.001788676   -0.003098077    0.007334590
      4        1          -0.001788676    0.003098077    0.007334590
 -------------------------------------------------------------------
 Cartesian Forces:  Max     0.022003770 RMS     0.007549541
 -----------------------------------------------------------------------------------------------
                       Internal Coordinate Forces (Hartree/Bohr or radian)
  Cent   Atom   N1       Length/X         N2         Alpha/Y        N3         Beta/Z          J
 -----------------------------------------------------------------------------------------------
      1  N 
         X        1   0.000000(     1)
      2  H        1   0.000000(     2)      2  -0.015542(     5)
      3  H        1   0.000000(     3)      2  -0.015542(     6)      3   0.000000(     8)     0
      4  H        1   0.000000(     4)      2  -0.015542(     7)      3   0.000000(     9)     0
 -----------------------------------------------------------------------------------------------
 Internal  Forces:  Max     0.015541616 RMS     0.008972956

 GradGradGradGradGradGradGradGradGradGradGradGradGradGradGradGradGradGrad
 Berny optimization.
 Search for a local minimum.
 Step number   3 out of a maximum of   20
 All quantities printed in internal units (Hartrees-Bohrs-Radians)
 Update second derivatives using D2CorN and points    1    3
 DE= -4.34D-07 DEPred=-4.23D-07 R= 1.03D+00
 Trust test= 1.03D+00 RLast= 7.69D-04 DXMaxT set to 3.00D-01
 The second derivative matrix:
                          B1        A1
           B1           1.50552
           A1          -0.15516   0.70234
 ITU=  0  1  0
     Eigenvalues ---    1.505521000.00000
 RFO step:  Lambda= 0.00000000D+00 EMin= 1.50552293D+00
 Quartic linear search produced a step of -0.00008.
 Variable       Old X    -DE/DX   Delta X   Delta X   Delta X     New X
                                 (Linear)    (Quad)   (Total)
    B1        1.90449   0.00000   0.00000   0.00000   0.00000   1.90449
    A1        2.02458  -0.04662   0.00000   0.00000   0.00000   2.02458
         Item               Value     Threshold  Converged?
 Maximum Force            0.000000     0.000450     YES
 RMS     Force            0.000000     0.000300     YES
 Maximum Displacement     0.000000     0.001800     YES
 RMS     Displacement     0.000000     0.001200     YES
 Predicted change in Energy=-2.536572D-15
 Optimization completed.
    -- Stationary point found.
                       ----------------------------
                       !   Optimized Parameters   !
                       ! (Angstroms and Degrees)  !
 ----------------------                            ----------------------
 !      Name          Value   Derivative information (Atomic Units)     !
 ------------------------------------------------------------------------
 !       B1          1.0078   -DE/DX =    0.0                           !
 !       A1        116.0      -DE/DX =   -0.0466                        !
 ------------------------------------------------------------------------
 GradGradGradGradGradGradGradGradGradGradGradGradGradGradGradGradGradGrad

 ---------------------------------------------------------------------------------------------------
                            Z-MATRIX (ANGSTROMS AND DEGREES)
   CD    Cent   Atom    N1       Length/X        N2       Alpha/Y        N3        Beta/Z          J
 ---------------------------------------------------------------------------------------------------
      1      1  N 
      2         X        1   1.000000(     1)
      3      2  H        1   1.007815(     2)      2  116.000(     5)
      4      3  H        1   1.007815(     3)      2  116.000(     6)      3  120.000(     8)      0
      5      4  H        1   1.007815(     4)      2  116.000(     7)      3 -120.000(     9)      0
 ---------------------------------------------------------------------------------------------------
                         Z-Matrix orientation:                         
 ---------------------------------------------------------------------
 Center     Atomic      Atomic             Coordinates (Angstroms)
 Number     Number       Type             X           Y           Z
 ---------------------------------------------------------------------
      1          7           0        0.000000    0.000000    0.000000
      2         -1           0        0.000000    0.000000    1.000000
      3          1           0        0.905818    0.000000   -0.441797
      4          1           0       -0.452909   -0.784462   -0.441797
      5          1           0       -0.452909    0.784462   -0.441797
 ---------------------------------------------------------------------
                    Distance matrix (angstroms):
                    1          2          3          4          5
     1  N    0.000000
     2  X    1.000000   0.000000
     3  H    1.007815   1.702729   0.000000
     4  H    1.007815   1.702729   1.568923   0.000000
     5  H    1.007815   1.702729   1.568923   1.568923   0.000000
 Stoichiometry    H3N
 Framework group  C3V[C3(N),3SGV(H)]
 Deg. of freedom     2
 Full point group                 C3V     NOp   6
 Largest Abelian subgroup         CS      NOp   2
 Largest concise Abelian subgroup CS      NOp   2
                         Standard orientation:                         
 ---------------------------------------------------------------------
 Center     Atomic      Atomic             Coordinates (Angstroms)
 Number     Number       Type             X           Y           Z
 ---------------------------------------------------------------------
      1          7           0        0.000000    0.000000    0.132539
      2          1           0        0.000000    0.905818   -0.309258
      3          1           0        0.784462   -0.452909   -0.309258
      4          1           0       -0.784462   -0.452909   -0.309258
 ---------------------------------------------------------------------
 Rotational constants (GHZ):    292.8487473    292.8487473    203.7176513

 **********************************************************************

            Population analysis using the SCF density.

 **********************************************************************

 Orbital symmetries:
       Occupied  (A1) (A1) (E) (E) (A1)
       Virtual   (A1) (E) (E) (E) (E) (A1) (E) (E) (A1) (A1) (E)
                 (E) (A1) (E) (E) (A1)
 The electronic state is 1-A1.
 Alpha  occ. eigenvalues --  -15.54129  -1.14852  -0.61926  -0.61926  -0.43567
 Alpha virt. eigenvalues --    0.21863   0.32170   0.32170   0.88341   0.88341
 Alpha virt. eigenvalues --    0.96925   1.22013   1.22013   1.24091   1.44779
 Alpha virt. eigenvalues --    1.96008   1.96008   2.19607   2.76679   2.76679
 Alpha virt. eigenvalues --    4.08117
          Condensed to atoms (all electrons):
               1          2          3          4
     1  N    6.989174   0.327070   0.327070   0.327070
     2  H    0.327070   0.407607  -0.029069  -0.029069
     3  H    0.327070  -0.029069   0.407607  -0.029069
     4  H    0.327070  -0.029069  -0.029069   0.407607
 Mulliken charges:
               1
     1  N   -0.970383
     2  H    0.323461
     3  H    0.323461
     4  H    0.323461
 Sum of Mulliken charges =   0.00000
 Mulliken charges with hydrogens summed into heavy atoms:
               1
     1  N    0.000000
 Electronic spatial extent (au):  <R**2>=             26.0852
 Charge=              0.0000 electrons
 Dipole moment (field-independent basis, Debye):
    X=              0.0000    Y=              0.0000    Z=             -2.1733  Tot=              2.1733
 Quadrupole moment (field-independent basis, Debye-Ang):
   XX=             -6.3046   YY=             -6.3046   ZZ=             -8.6844
   XY=              0.0000   XZ=              0.0000   YZ=              0.0000
 Traceless Quadrupole moment (field-independent basis, Debye-Ang):
   XX=              0.7933   YY=              0.7933   ZZ=             -1.5866
   XY=              0.0000   XZ=              0.0000   YZ=              0.0000
 Octapole moment (field-independent basis, Debye-Ang**2):
  XXX=              0.0000  YYY=              0.7323  ZZZ=             -2.0855  XYY=              0.0000
  XXY=             -0.7323  XXZ=             -1.0499  XZZ=              0.0000  YZZ=              0.0000
  YYZ=             -1.0499  XYZ=              0.0000
 Hexadecapole moment (field-independent basis, Debye-Ang**3):
 XXXX=             -9.3783 YYYY=             -9.3783 ZZZZ=            -10.0295 XXXY=              0.0000
 XXXZ=              0.0000 YYYX=              0.0000 YYYZ=             -0.3290 ZZZX=              0.0000
 ZZZY=              0.0000 XXYY=             -3.1261 XXZZ=             -3.1968 YYZZ=             -3.1968
 XXYZ=              0.3290 YYXZ=              0.0000 ZZXY=              0.0000
 N-N= 1.203840788729D+01 E-N=-1.558192428369D+02  KE= 5.610503204944D+01
 Symmetry A'   KE= 5.349207609616D+01
 Symmetry A"   KE= 2.612955953273D+00
 1\1\GINC-C11-03\POpt\RHF\6-31G(d)\H3N1\EPLUHAR\02-Sep-2016\1\\# opt=(z
 -matrix) rhf/6-31g(d)\\Ammonia c3v\\0,1\N\X,1,1.\H,1,B1,2,A1\H,1,B1,2,
 A1,3,120.,0\H,1,B1,2,A1,3,-120.,0\\B1=1.00781515\A1=116.\\Version=ES64
 L-G09RevD.01\State=1-A1\HF=-56.182702\RMSD=4.642e-09\RMSF=7.550e-03\Di
 pole=0.,0.,-0.8550544\Quadrupole=0.5897845,0.5897845,-1.1795691,0.,0.,
 0.\PG=C03V [C3(N1),3SGV(H1)]\\@


 OPTIMIST - A PESSIMIST WHO LACKS EXPERIENCE
 Job cpu time:       0 days  0 hours  0 minutes 16.7 seconds.
 File lengths (MBytes):  RWF=      5 Int=      0 D2E=      0 Chk=      1 Scr=      1
 Normal termination of Gaussian 09 at Fri Sep  2 13:36:02 2016.
