 Entering Gaussian System, Link 0=g09
 Initial command:
 /cluster/software/gaussian/gaussian-09-D.01/g09/l1.exe "/local/scratch/maxb2/Gau-14771.inp" -scrdir="/local/scratch/maxb2/"
 Entering Link 1 = /cluster/software/gaussian/gaussian-09-D.01/g09/l1.exe PID=     14772.
  
 Copyright (c) 1988,1990,1992,1993,1995,1998,2003,2009,2013,
            Gaussian, Inc.  All Rights Reserved.
  
 This is part of the Gaussian(R) 09 program.  It is based on
 the Gaussian(R) 03 system (copyright 2003, Gaussian, Inc.),
 the Gaussian(R) 98 system (copyright 1998, Gaussian, Inc.),
 the Gaussian(R) 94 system (copyright 1995, Gaussian, Inc.),
 the Gaussian 92(TM) system (copyright 1992, Gaussian, Inc.),
 the Gaussian 90(TM) system (copyright 1990, Gaussian, Inc.),
 the Gaussian 88(TM) system (copyright 1988, Gaussian, Inc.),
 the Gaussian 86(TM) system (copyright 1986, Carnegie Mellon
 University), and the Gaussian 82(TM) system (copyright 1983,
 Carnegie Mellon University). Gaussian is a federally registered
 trademark of Gaussian, Inc.
  
 This software contains proprietary and confidential information,
 including trade secrets, belonging to Gaussian, Inc.
  
 This software is provided under written license and may be
 used, copied, transmitted, or stored only in accord with that
 written license.
  
 The following legend is applicable only to US Government
 contracts under FAR:
  
                    RESTRICTED RIGHTS LEGEND
  
 Use, reproduction and disclosure by the US Government is
 subject to restrictions as set forth in subparagraphs (a)
 and (c) of the Commercial Computer Software - Restricted
 Rights clause in FAR 52.227-19.
  
 Gaussian, Inc.
 340 Quinnipiac St., Bldg. 40, Wallingford CT 06492
  
  
 ---------------------------------------------------------------
 Warning -- This program may not be used in any manner that
 competes with the business of Gaussian, Inc. or will provide
 assistance to any competitor of Gaussian, Inc.  The licensee
 of this program is prohibited from giving any competitor of
 Gaussian, Inc. access to this program.  By using this program,
 the user acknowledges that Gaussian, Inc. is engaged in the
 business of creating and licensing software in the field of
 computational chemistry and represents and warrants to the
 licensee that it is not a competitor of Gaussian, Inc. and that
 it will not use this program in any manner prohibited above.
 ---------------------------------------------------------------
  

 Cite this work as:
 Gaussian 09, Revision D.01,
 M. J. Frisch, G. W. Trucks, H. B. Schlegel, G. E. Scuseria, 
 M. A. Robb, J. R. Cheeseman, G. Scalmani, V. Barone, B. Mennucci, 
 G. A. Petersson, H. Nakatsuji, M. Caricato, X. Li, H. P. Hratchian, 
 A. F. Izmaylov, J. Bloino, G. Zheng, J. L. Sonnenberg, M. Hada, 
 M. Ehara, K. Toyota, R. Fukuda, J. Hasegawa, M. Ishida, T. Nakajima, 
 Y. Honda, O. Kitao, H. Nakai, T. Vreven, J. A. Montgomery, Jr., 
 J. E. Peralta, F. Ogliaro, M. Bearpark, J. J. Heyd, E. Brothers, 
 K. N. Kudin, V. N. Staroverov, T. Keith, R. Kobayashi, J. Normand, 
 K. Raghavachari, A. Rendell, J. C. Burant, S. S. Iyengar, J. Tomasi, 
 M. Cossi, N. Rega, J. M. Millam, M. Klene, J. E. Knox, J. B. Cross, 
 V. Bakken, C. Adamo, J. Jaramillo, R. Gomperts, R. E. Stratmann, 
 O. Yazyev, A. J. Austin, R. Cammi, C. Pomelli, J. W. Ochterski, 
 R. L. Martin, K. Morokuma, V. G. Zakrzewski, G. A. Voth, 
 P. Salvador, J. J. Dannenberg, S. Dapprich, A. D. Daniels, 
 O. Farkas, J. B. Foresman, J. V. Ortiz, J. Cioslowski, 
 and D. J. Fox, Gaussian, Inc., Wallingford CT, 2013.
 
 ******************************************
 Gaussian 09:  ES64L-G09RevD.01 24-Apr-2013
                18-Oct-2016 
 ******************************************
 %nprocshared=8
 Will use up to    8 processors via shared memory.
 %mem=1GB
 %chk=Ethanolb3lypnmr
 -----------------------------------------------------------
 # b3lyp/6-311+g(2d,p) nmr=(giao,spinspin) geom=connectivity
 -----------------------------------------------------------
 1/38=1,57=2/1;
 2/12=2,17=6,18=5,40=1/2;
 3/5=4,6=6,7=112,11=2,16=1,25=1,30=1,74=-5/1,2,8,3;
 4//1;
 5/5=2,38=5/2;
 8/6=1,10=90,11=11/1;
 10/13=100,45=16,47=1/2;
 6/7=2,8=2,9=2,10=2,28=1/1;
 99/9=1/99;
 -------------------
 Title Card Required
 -------------------
 Symbolic Z-matrix:
 Charge =  0 Multiplicity = 1
 C
 C                    1    B1
 O                    2    B2       1    A1
 H                    1    B3       2    A2       3    D1       0
 H                    1    B4       2    A3       3    D2       0
 H                    1    B5       2    A4       3    D3       0
 H                    2    B6       1    A5       3    D4       0
 H                    2    B7       1    A6       3    D5       0
 H                    3    B8       2    A7       1    D6       0
       Variables:
  B1                    1.51183                  
  B2                    1.40471                  
  B3                    1.08522                  
  B4                    1.08401                  
  B5                    1.08398                  
  B6                    1.08764                  
  B7                    1.08766                  
  B8                    0.9409                   
  A1                  108.41354                  
  A2                  110.35647                  
  A3                  110.45557                  
  A4                  110.47012                  
  A5                  110.09669                  
  A6                  110.09704                  
  A7                  110.19759                  
  D1                 -179.9804                   
  D2                  -59.90281                  
  D3                   59.91323                  
  D4                  120.67292                  
  D5                 -120.68165                  
  D6                 -179.94688                  
 
                          Input orientation:                          
 ---------------------------------------------------------------------
 Center     Atomic      Atomic             Coordinates (Angstroms)
 Number     Number       Type             X           Y           Z
 ---------------------------------------------------------------------
      1          6           0        0.000000    0.000000    0.000000
      2          6           0        0.000000    0.000000    1.511833
      3          8           0        1.332788    0.000000    1.955543
      4          1           0       -1.017442    0.000348   -0.377504
      5          1           0        0.509317    0.878718   -0.378839
      6          1           0        0.509095   -0.878703   -0.379087
      7          1           0       -0.521062    0.878514    1.885552
      8          1           0       -0.521204   -0.878448    1.885565
      9          1           0        1.362081   -0.000819    2.895982
 ---------------------------------------------------------------------
                    Distance matrix (angstroms):
                    1          2          3          4          5
     1  C    0.000000
     2  C    1.511833   0.000000
     3  O    2.366532   1.404707   0.000000
     4  H    1.085217   2.145876   3.311599   0.000000
     5  H    1.084005   2.146204   2.626707   1.761399   0.000000
     6  H    1.083976   2.146363   2.626991   1.761547   1.757421
     7  H    2.144435   1.087639   2.052669   2.477699   2.487800
     8  H    2.144453   1.087658   2.052768   2.477905   3.045839
     9  H    3.200309   1.941940   0.940896   4.046954   3.496461
                    6          7          8          9
     6  H    0.000000
     7  H    3.045920   0.000000
     8  H    2.488004   1.756963   0.000000
     9  H    3.496332   2.310936   2.310398   0.000000
 Stoichiometry    C2H6O
 Framework group  C1[X(C2H6O)]
 Deg. of freedom    21
 Full point group                 C1      NOp   1
 Largest Abelian subgroup         C1      NOp   1
 Largest concise Abelian subgroup C1      NOp   1
                         Standard orientation:                         
 ---------------------------------------------------------------------
 Center     Atomic      Atomic             Coordinates (Angstroms)
 Number     Number       Type             X           Y           Z
 ---------------------------------------------------------------------
      1          6           0       -1.218366   -0.217723    0.000072
      2          6           0        0.089751    0.540215   -0.000020
      3          8           0        1.141847   -0.390535   -0.000098
      4          1           0       -2.055083    0.473363   -0.000214
      5          1           0       -1.290881   -0.848335   -0.878642
      6          1           0       -1.291080   -0.848272    0.878779
      7          1           0        0.151821    1.178426   -0.878537
      8          1           0        0.151887    1.178551    0.878426
      9          1           0        1.970250    0.055597    0.000662
 ---------------------------------------------------------------------
 Rotational constants (GHZ):     36.0855122      9.4644628      8.2606878
 Standard basis: 6-311+G(2d,p) (5D, 7F)
 There are   123 symmetry adapted cartesian basis functions of A   symmetry.
 There are   117 symmetry adapted basis functions of A   symmetry.
   117 basis functions,   174 primitive gaussians,   123 cartesian basis functions
    13 alpha electrons       13 beta electrons
       nuclear repulsion energy        82.4855252655 Hartrees.
 NAtoms=    9 NActive=    9 NUniq=    9 SFac= 1.00D+00 NAtFMM=   60 NAOKFM=F Big=F
 Integral buffers will be    131072 words long.
 Raffenetti 2 integral format.
 Two-electron integral symmetry is turned on.
 One-electron integrals computed using PRISM.
 NBasis=   117 RedAO= T EigKep=  1.23D-04  NBF=   117
 NBsUse=   117 1.00D-06 EigRej= -1.00D+00 NBFU=   117
 ExpMin= 4.38D-02 ExpMax= 8.59D+03 ExpMxC= 1.30D+03 IAcc=2 IRadAn=         4 AccDes= 0.00D+00
 Harris functional with IExCor=  402 and IRadAn=       4 diagonalized for initial guess.
 HarFok:  IExCor=  402 AccDes= 0.00D+00 IRadAn=         4 IDoV= 1 UseB2=F ITyADJ=14
 ICtDFT=  3500011 ScaDFX=  1.000000  1.000000  1.000000  1.000000
 FoFCou: FMM=F IPFlag=           0 FMFlag=      100000 FMFlg1=           0
         NFxFlg=           0 DoJE=T BraDBF=F KetDBF=T FulRan=T
         wScrn=  0.000000 ICntrl=     500 IOpCl=  0 I1Cent=   200000004 NGrid=           0
         NMat0=    1 NMatS0=      1 NMatT0=    0 NMatD0=    1 NMtDS0=    0 NMtDT0=    0
 Petite list used in FoFCou.
 Keep R1 ints in memory in canonical form, NReq=24848245.
 Requested convergence on RMS density matrix=1.00D-08 within 128 cycles.
 Requested convergence on MAX density matrix=1.00D-06.
 Requested convergence on             energy=1.00D-06.
 No special actions if energy rises.
 SCF Done:  E(RB3LYP) =  -155.097351706     A.U. after   10 cycles
            NFock= 10  Conv=0.65D-08     -V/T= 2.0032
 DoSCS=F DFT=T ScalE2(SS,OS)=  1.000000  1.000000
 Range of M.O.s used for correlation:     1   117
 NBasis=   117 NAE=    13 NBE=    13 NFC=     0 NFV=     0
 NROrb=    117 NOA=    13 NOB=    13 NVA=   104 NVB=   104

 **** Warning!!: The largest alpha MO coefficient is  0.28787981D+02

          IDoAtm=111111111
          Differentiating once with respect to magnetic field using GIAOs.
          Differentiating once with respect to nuclear magnetic moments.
          Differentiating once with respect to Fermi-contact and electric field gradient.
          Electric field/nuclear overlap derivatives assumed to be zero.
 Keep R1, R2, and R3 ints in memory in canonical form, NReq=73529268.
 FoFJK:  IHMeth= 1 ICntrl=    6127 DoSepK=F KAlg= 0 I1Cent=   0 FoldK=F
 IRaf=         1 NMat=   1 IRICut=       1 DoRegI=T DoRafI=F ISym2E= 0.
          There are    30 degrees of freedom in the 1st order CPHF.  IDoFFX=0 NUNeed=    30.
     30 vectors produced by pass  0 Test12= 4.51D-19 3.33D-11 XBig12= 5.69D+01 3.46D+00.
 AX will form    30 AO Fock derivatives at one time.
     30 vectors produced by pass  1 Test12= 4.51D-19 3.33D-11 XBig12= 1.50D-01 1.51D-01.
     30 vectors produced by pass  2 Test12= 4.51D-19 3.33D-11 XBig12= 1.34D-04 3.70D-03.
     30 vectors produced by pass  3 Test12= 4.51D-19 3.33D-11 XBig12= 8.00D-08 7.14D-05.
     30 vectors produced by pass  4 Test12= 4.51D-19 3.33D-11 XBig12= 4.08D-11 1.62D-06.
     30 vectors produced by pass  5 Test12= 4.51D-19 3.33D-11 XBig12= 3.53D-14 4.82D-08.
     11 vectors produced by pass  6 Test12= 4.51D-19 3.33D-11 XBig12= 2.89D-17 1.49D-09.
 InvSVY:  IOpt=1 It=  1 EMax= 5.33D-15
 Solved reduced A of dimension   191 with    30 vectors.
 Calculating GIAO nuclear magnetic shielding tensors.
 SCF GIAO Magnetic shielding tensor (ppm):
      1  C    Isotropic =   166.8413   Anisotropy =    26.9369
   XX=   182.0343   YX=     2.8027   ZX=    -0.0030
   XY=    10.8418   YY=   167.9658   ZY=    -0.0075
   XZ=     0.0007   YZ=    -0.0060   ZZ=   150.5238
   Eigenvalues:   150.5238   165.2008   184.7992
      2  C    Isotropic =   123.5335   Anisotropy =    62.5955
   XX=   139.7808   YX=   -31.3564   ZX=    -0.0036
   XY=   -27.1320   YY=   131.7033   ZY=    -0.0052
   XZ=    -0.0074   YZ=    -0.0080   ZZ=    99.1164
   Eigenvalues:    99.1163   106.2203   165.2638
      3  O    Isotropic =   299.6736   Anisotropy =   110.9141
   XX=   364.6498   YX=    20.2037   ZX=     0.0361
   XY=    38.5016   YY=   277.5282   ZY=     0.0301
   XZ=     0.0332   YZ=     0.0404   ZZ=   256.8429
   Eigenvalues:   256.8429   268.5617   373.6164
      4  H    Isotropic =    31.2425   Anisotropy =     8.8393
   XX=    35.6888   YX=    -3.3144   ZX=     0.0020
   XY=    -3.0722   YY=    30.0861   ZY=    -0.0012
   XZ=     0.0016   YZ=    -0.0015   ZZ=    27.9526
   Eigenvalues:    27.9526    28.6396    37.1354
      5  H    Isotropic =    30.8989   Anisotropy =     7.4412
   XX=    29.7213   YX=     2.2317   ZX=     1.8067
   XY=     1.3095   YY=    30.4053   ZY=     3.6698
   XZ=     1.3077   YZ=     2.9975   ZZ=    32.5702
   Eigenvalues:    27.7645    29.0725    35.8597
      6  H    Isotropic =    30.8995   Anisotropy =     7.4427
   XX=    29.7215   YX=     2.2321   ZX=    -1.8081
   XY=     1.3094   YY=    30.4059   ZY=    -3.6701
   XZ=    -1.3086   YZ=    -2.9976   ZZ=    32.5711
   Eigenvalues:    27.7653    29.0719    35.8613
      7  H    Isotropic =    28.2984   Anisotropy =     6.8695
   XX=    28.4163   YX=    -1.8076   ZX=     0.9206
   XY=    -0.8965   YY=    29.9596   ZY=    -4.6461
   XZ=    -1.2860   YZ=    -3.4481   ZZ=    26.5194
   Eigenvalues:    23.6678    28.3494    32.8781
      8  H    Isotropic =    28.2984   Anisotropy =     6.8677
   XX=    28.4166   YX=    -1.8066   ZX=    -0.9204
   XY=    -0.8959   YY=    29.9602   ZY=     4.6445
   XZ=     1.2849   YZ=     3.4469   ZZ=    26.5185
   Eigenvalues:    23.6689    28.3495    32.8769
      9  H    Isotropic =    32.7116   Anisotropy =    19.4122
   XX=    44.2113   YX=     5.8879   ZX=     0.0149
   XY=     3.4566   YY=    30.5111   ZY=     0.0074
   XZ=     0.0137   YZ=     0.0072   ZZ=    23.4122
   Eigenvalues:    23.4122    29.0694    45.6530
          There are    63 degrees of freedom in the 1st order CPHF.  IDoFFX=0 NUNeed=    63.
     54 vectors produced by pass  0 Test12= 2.15D-19 1.59D-11 XBig12= 5.00D+01 4.72D+00.
     54 vectors produced by pass  1 Test12= 2.15D-19 1.59D-11 XBig12= 3.42D-01 3.12D-01.
     54 vectors produced by pass  2 Test12= 2.15D-19 1.59D-11 XBig12= 2.02D-03 1.02D-02.
     54 vectors produced by pass  3 Test12= 2.15D-19 1.59D-11 XBig12= 1.90D-06 3.29D-04.
     54 vectors produced by pass  4 Test12= 2.15D-19 1.59D-11 XBig12= 1.49D-09 9.79D-06.
     54 vectors produced by pass  5 Test12= 2.15D-19 1.59D-11 XBig12= 1.33D-12 2.67D-07.
     36 vectors produced by pass  6 Test12= 2.15D-19 1.59D-11 XBig12= 4.87D-16 3.61D-09.
      5 vectors produced by pass  7 Test12= 2.15D-19 1.59D-11 XBig12= 1.29D-19 8.15D-11.
 InvSVY:  IOpt=1 It=  1 EMax= 2.33D-15
 Solved reduced A of dimension   365 with    54 vectors.
 There are a total of       73438 grid points.
 ElSum from          density=       52.0000249840
 Fermi Contact (FC) contribution to K (Hz):
                1             2             3             4             5 
      1  0.000000D+00
      2  0.191081D+02  0.000000D+00
      3  0.929889D+01 -0.186063D+02  0.000000D+00
      4  0.144330D+02  0.484090D-01  0.316694D+01  0.000000D+00
      5  0.151633D+02 -0.744601D+00  0.476050D+00 -0.416649D+00  0.000000D+00
      6  0.151686D+02 -0.743966D+00  0.475002D+00 -0.416211D+00 -0.382187D+00
      7 -0.293147D+00  0.161537D+02  0.475533D+00  0.656612D-01  0.155790D+00
      8 -0.293714D+00  0.161518D+02  0.473775D+00  0.656273D-01  0.406166D+00
      9  0.128585D+01 -0.278161D+00  0.155183D+02  0.949587D-01 -0.680370D-02
                6             7             8             9 
      6  0.000000D+00
      7  0.406133D+00  0.000000D+00
      8  0.155799D+00 -0.248801D+00  0.000000D+00
      9 -0.682935D-02  0.442598D-01  0.447293D-01  0.000000D+00
 Fermi Contact (FC) contribution to J (Hz):
                1             2             3             4             5 
      1  0.000000D+00
      2  0.377103D+02  0.000000D+00
      3 -0.989570D+01  0.198005D+02  0.000000D+00
      4  0.113255D+03  0.379861D+00 -0.134002D+02  0.000000D+00
      5  0.118985D+03 -0.584281D+01 -0.201430D+01 -0.129994D+02  0.000000D+00
      6  0.119027D+03 -0.583783D+01 -0.200986D+01 -0.129858D+02 -0.119242D+02
      7 -0.230029D+01  0.126756D+03 -0.201211D+01  0.204862D+01  0.486064D+01
      8 -0.230474D+01  0.126741D+03 -0.200467D+01  0.204757D+01  0.126724D+02
      9  0.100899D+02 -0.218270D+01 -0.656623D+02  0.296271D+01 -0.212275D+00
                6             7             8             9 
      6  0.000000D+00
      7  0.126713D+02  0.000000D+00
      8  0.486093D+01 -0.776257D+01  0.000000D+00
      9 -0.213075D+00  0.138091D+01  0.139555D+01  0.000000D+00
 Spin-dipolar (SD) contribution to K (Hz):
                1             2             3             4             5 
      1  0.000000D+00
      2  0.528496D+00  0.000000D+00
      3 -0.934541D-02  0.159222D+01  0.000000D+00
      4 -0.179209D-01  0.115062D-01  0.564273D-03  0.000000D+00
      5 -0.174419D-01  0.100531D-01 -0.731820D-02  0.106520D-01  0.000000D+00
      6 -0.174066D-01  0.100520D-01 -0.730062D-02  0.106403D-01  0.112311D-01
      7  0.740223D-02 -0.240418D-01 -0.385488D-01  0.302719D-02  0.311891D-02
      8  0.741227D-02 -0.240449D-01 -0.385019D-01  0.302400D-02  0.222301D-03
      9  0.378959D-02  0.514462D-02  0.192481D+00  0.103449D-02 -0.677230D-03
                6             7             8             9 
      6  0.000000D+00
      7  0.221964D-03  0.000000D+00
      8  0.311747D-02  0.139442D-01  0.000000D+00
      9 -0.676088D-03  0.268635D-02  0.270869D-02  0.000000D+00
 Spin-dipolar (SD) contribution to J (Hz):
                1             2             3             4             5 
      1  0.000000D+00
      2  0.104300D+01  0.000000D+00
      3  0.994521D-02 -0.169441D+01  0.000000D+00
      4 -0.140624D+00  0.902877D-01 -0.238760D-02  0.000000D+00
      5 -0.136865D+00  0.788857D-01  0.309653D-01  0.332343D+00  0.000000D+00
      6 -0.136588D+00  0.788771D-01  0.308909D-01  0.331976D+00  0.350410D+00
      7  0.580846D-01 -0.188654D+00  0.163110D+00  0.944483D-01  0.973098D-01
      8  0.581634D-01 -0.188678D+00  0.162912D+00  0.943487D-01  0.693577D-02
      9  0.297365D-01  0.403694D-01 -0.814440D+00  0.322759D-01 -0.211295D-01
                6             7             8             9 
      6  0.000000D+00
      7  0.692528D-02  0.000000D+00
      8  0.972650D-01  0.435060D+00  0.000000D+00
      9 -0.210939D-01  0.838139D-01  0.845112D-01  0.000000D+00
 Paramagnetic spin-orbit (PSO) contribution to K (Hz):
                1             2             3             4             5 
      1  0.000000D+00
      2 -0.312154D+00  0.000000D+00
      3 -0.119505D+00  0.118018D+01  0.000000D+00
      4  0.178650D+00  0.196311D-01  0.464386D-01  0.000000D+00
      5  0.158101D+00  0.904020D-02  0.382430D-01  0.831816D-01  0.000000D+00
      6  0.158042D+00  0.906953D-02  0.381917D-01  0.832239D-01  0.803808D-01
      7  0.118196D-01  0.346378D-01  0.146829D+00  0.168706D-01  0.169031D-01
      8  0.118185D-01  0.346717D-01  0.146886D+00  0.168929D-01  0.821411D-01
      9  0.897637D-01  0.100009D+00  0.277116D+01  0.741700D-01  0.791409D-01
                6             7             8             9 
      6  0.000000D+00
      7  0.821441D-01  0.000000D+00
      8  0.169179D-01  0.654432D-01  0.000000D+00
      9  0.790830D-01  0.322909D-01  0.321751D-01  0.000000D+00
 Paramagnetic spin-orbit (PSO) contribution to J (Hz):
                1             2             3             4             5 
      1  0.000000D+00
      2 -0.616044D+00  0.000000D+00
      3  0.127175D+00 -0.125593D+01  0.000000D+00
      4  0.140185D+01  0.154044D+00 -0.196495D+00  0.000000D+00
      5  0.124060D+01  0.709376D-01 -0.161817D+00  0.259526D+01  0.000000D+00
      6  0.124014D+01  0.711677D-01 -0.161599D+00  0.259658D+01  0.250788D+01
      7  0.927474D-01  0.271799D+00 -0.621274D+00  0.526361D+00  0.527377D+00
      8  0.927388D-01  0.272065D+00 -0.621516D+00  0.527058D+00  0.256280D+01
      9  0.704367D+00  0.784760D+00 -0.117256D+02  0.231410D+01  0.246919D+01
                6             7             8             9 
      6  0.000000D+00
      7  0.256289D+01  0.000000D+00
      8  0.527838D+00  0.204183D+01  0.000000D+00
      9  0.246739D+01  0.100747D+01  0.100386D+01  0.000000D+00
 Diamagnetic spin-orbit (DSO) contribution to K (Hz):
                1             2             3             4             5 
      1  0.000000D+00
      2  0.914705D-01  0.000000D+00
      3 -0.861991D-02  0.886707D-01  0.000000D+00
      4  0.786521D-01 -0.232142D-01 -0.703507D-01  0.000000D+00
      5  0.820727D-01 -0.248645D-01 -0.471182D-02 -0.893480D-01  0.000000D+00
      6  0.820697D-01 -0.248941D-01 -0.474246D-02 -0.893983D-01 -0.858725D-01
      7 -0.322585D-01  0.117473D+00 -0.505409D-01 -0.196435D-01 -0.207286D-01
      8 -0.322554D-01  0.117471D+00 -0.505624D-01 -0.196698D-01 -0.985117D-01
      9 -0.106905D+00 -0.898635D-01  0.820970D-01 -0.843522D-01 -0.890207D-01
                6             7             8             9 
      6  0.000000D+00
      7 -0.985140D-01  0.000000D+00
      8 -0.207452D-01 -0.745128D-01  0.000000D+00
      9 -0.889642D-01 -0.382266D-01 -0.380845D-01  0.000000D+00
 Diamagnetic spin-orbit (DSO) contribution to J (Hz):
                1             2             3             4             5 
      1  0.000000D+00
      2  0.180519D+00  0.000000D+00
      3  0.917314D-02 -0.943617D-01  0.000000D+00
      4  0.617175D+00 -0.182160D+00  0.297673D+00  0.000000D+00
      5  0.644016D+00 -0.195109D+00  0.199370D-01 -0.278765D+01  0.000000D+00
      6  0.643993D+00 -0.195342D+00  0.200666D-01 -0.278922D+01 -0.267922D+01
      7 -0.253130D+00  0.921802D+00  0.213852D+00 -0.612875D+00 -0.646730D+00
      8 -0.253105D+00  0.921782D+00  0.213943D+00 -0.613697D+00 -0.307356D+01
      9 -0.838872D+00 -0.705151D+00 -0.347375D+00 -0.263178D+01 -0.277744D+01
                6             7             8             9 
      6  0.000000D+00
      7 -0.307363D+01  0.000000D+00
      8 -0.647249D+00 -0.232480D+01  0.000000D+00
      9 -0.277568D+01 -0.119267D+01 -0.118823D+01  0.000000D+00
 Total nuclear spin-spin coupling K (Hz): 
                1             2             3             4             5 
      1  0.000000D+00
      2  0.194159D+02  0.000000D+00
      3  0.916142D+01 -0.157452D+02  0.000000D+00
      4  0.146724D+02  0.563321D-01  0.314360D+01  0.000000D+00
      5  0.153860D+02 -0.750372D+00  0.502263D+00 -0.412164D+00  0.000000D+00
      6  0.153913D+02 -0.749739D+00  0.501150D+00 -0.411745D+00 -0.376447D+00
      7 -0.306184D+00  0.162817D+02  0.533272D+00  0.659154D-01  0.155083D+00
      8 -0.306739D+00  0.162799D+02  0.531597D+00  0.658744D-01  0.390017D+00
      9  0.127250D+01 -0.262871D+00  0.185641D+02  0.858110D-01 -0.173607D-01
                6             7             8             9 
      6  0.000000D+00
      7  0.389985D+00  0.000000D+00
      8  0.155089D+00 -0.243926D+00  0.000000D+00
      9 -0.173866D-01  0.410105D-01  0.415286D-01  0.000000D+00
 Total nuclear spin-spin coupling J (Hz): 
                1             2             3             4             5 
      1  0.000000D+00
      2  0.383178D+02  0.000000D+00
      3 -0.974940D+01  0.167558D+02  0.000000D+00
      4  0.115133D+03  0.442032D+00 -0.133014D+02  0.000000D+00
      5  0.120733D+03 -0.588809D+01 -0.212521D+01 -0.128595D+02  0.000000D+00
      6  0.120774D+03 -0.588313D+01 -0.212050D+01 -0.128464D+02 -0.117451D+02
      7 -0.240259D+01  0.127761D+03 -0.225642D+01  0.205656D+01  0.483860D+01
      8 -0.240695D+01  0.127746D+03 -0.224933D+01  0.205528D+01  0.121685D+02
      9  0.998517D+01 -0.206272D+01 -0.785497D+02  0.267730D+01 -0.541653D+00
                6             7             8             9 
      6  0.000000D+00
      7  0.121675D+02  0.000000D+00
      8  0.483878D+01 -0.761048D+01  0.000000D+00
      9 -0.542462D+00  0.127953D+01  0.129569D+01  0.000000D+00
 End of Minotr F.D. properties file   721 does not exist.
 End of Minotr F.D. properties file   722 does not exist.
 End of Minotr F.D. properties file   788 does not exist.

 **********************************************************************

            Population analysis using the SCF density.

 **********************************************************************

 Orbital symmetries:
       Occupied  (A) (A) (A) (A) (A) (A) (A) (A) (A) (A) (A) (A)
                 (A)
       Virtual   (A) (A) (A) (A) (A) (A) (A) (A) (A) (A) (A) (A)
                 (A) (A) (A) (A) (A) (A) (A) (A) (A) (A) (A) (A)
                 (A) (A) (A) (A) (A) (A) (A) (A) (A) (A) (A) (A)
                 (A) (A) (A) (A) (A) (A) (A) (A) (A) (A) (A) (A)
                 (A) (A) (A) (A) (A) (A) (A) (A) (A) (A) (A) (A)
                 (A) (A) (A) (A) (A) (A) (A) (A) (A) (A) (A) (A)
                 (A) (A) (A) (A) (A) (A) (A) (A) (A) (A) (A) (A)
                 (A) (A) (A) (A) (A) (A) (A) (A) (A) (A) (A) (A)
                 (A) (A) (A) (A) (A) (A) (A) (A)
 The electronic state is 1-A.
 Alpha  occ. eigenvalues --  -19.12155 -10.21403 -10.15564  -1.03392  -0.75597
 Alpha  occ. eigenvalues --   -0.61885  -0.53054  -0.47328  -0.41106  -0.38959
 Alpha  occ. eigenvalues --   -0.37216  -0.33739  -0.27938
 Alpha virt. eigenvalues --    0.00004   0.02249   0.03745   0.04393   0.06944
 Alpha virt. eigenvalues --    0.07775   0.08104   0.12577   0.14276   0.15610
 Alpha virt. eigenvalues --    0.17010   0.17992   0.18173   0.21983   0.22890
 Alpha virt. eigenvalues --    0.24215   0.24227   0.25300   0.30365   0.33752
 Alpha virt. eigenvalues --    0.39764   0.42098   0.45312   0.46717   0.50567
 Alpha virt. eigenvalues --    0.51685   0.57669   0.58282   0.60707   0.61799
 Alpha virt. eigenvalues --    0.64534   0.68994   0.69596   0.74003   0.80270
 Alpha virt. eigenvalues --    0.89506   0.89715   0.97646   0.99326   1.00720
 Alpha virt. eigenvalues --    1.05705   1.05999   1.14360   1.19812   1.23260
 Alpha virt. eigenvalues --    1.26820   1.33218   1.35162   1.46518   1.48468
 Alpha virt. eigenvalues --    1.55668   1.57323   1.68750   1.71676   1.76375
 Alpha virt. eigenvalues --    1.80261   1.82750   1.98190   2.08503   2.09504
 Alpha virt. eigenvalues --    2.16410   2.19395   2.23304   2.24886   2.30787
 Alpha virt. eigenvalues --    2.35882   2.37529   2.43225   2.46214   2.49401
 Alpha virt. eigenvalues --    2.61780   2.66689   2.69028   2.71408   2.75175
 Alpha virt. eigenvalues --    2.82497   2.98724   3.17528   3.23422   3.24852
 Alpha virt. eigenvalues --    3.26649   3.36196   3.39438   3.41005   3.46146
 Alpha virt. eigenvalues --    3.49424   3.52185   3.58071   3.89390   4.22315
 Alpha virt. eigenvalues --    4.24826   4.25956   4.50741   5.00794   5.39907
 Alpha virt. eigenvalues --    5.86777   6.88010   6.98232   7.02748   7.17258
 Alpha virt. eigenvalues --    7.31081  23.93076  24.03995  49.95290
          Condensed to atoms (all electrons):
               1          2          3          4          5          6
     1  C    5.078689   0.226833  -0.118890   0.401973   0.418526   0.418462
     2  C    0.226833   4.801196   0.249114  -0.032753  -0.041905  -0.041835
     3  O   -0.118890   0.249114   8.129307   0.009414   0.000560   0.000570
     4  H    0.401973  -0.032753   0.009414   0.576284  -0.028896  -0.028882
     5  H    0.418526  -0.041905   0.000560  -0.028896   0.562956  -0.030628
     6  H    0.418462  -0.041835   0.000570  -0.028882  -0.030628   0.562951
     7  H   -0.060227   0.447126  -0.049608  -0.003198  -0.009061   0.008919
     8  H   -0.059998   0.446864  -0.049540  -0.003201   0.008921  -0.009062
     9  H    0.024032  -0.028175   0.262555  -0.000685  -0.000239  -0.000238
               7          8          9
     1  C   -0.060227  -0.059998   0.024032
     2  C    0.447126   0.446864  -0.028175
     3  O   -0.049608  -0.049540   0.262555
     4  H   -0.003198  -0.003201  -0.000685
     5  H   -0.009061   0.008921  -0.000239
     6  H    0.008919  -0.009062  -0.000238
     7  H    0.649206  -0.064545  -0.007486
     8  H   -0.064545   0.649216  -0.007524
     9  H   -0.007486  -0.007524   0.495607
 Mulliken charges:
               1
     1  C   -0.329399
     2  C   -0.026466
     3  O   -0.433483
     4  H    0.109945
     5  H    0.119766
     6  H    0.119743
     7  H    0.088873
     8  H    0.088867
     9  H    0.262154
 Sum of Mulliken charges =   0.00000
 Mulliken charges with hydrogens summed into heavy atoms:
               1
     1  C    0.020055
     2  C    0.151274
     3  O   -0.171329
 Electronic spatial extent (au):  <R**2>=            192.4043
 Charge=              0.0000 electrons
 Dipole moment (field-independent basis, Debye):
    X=              0.1700    Y=              1.6110    Z=              0.0013  Tot=              1.6200
 Quadrupole moment (field-independent basis, Debye-Ang):
   XX=            -17.2434   YY=            -21.0460   ZZ=            -20.4123
   XY=              1.9817   XZ=              0.0033   YZ=              0.0000
 Traceless Quadrupole moment (field-independent basis, Debye-Ang):
   XX=              2.3239   YY=             -1.4787   ZZ=             -0.8451
   XY=              1.9817   XZ=              0.0033   YZ=              0.0000
 Octapole moment (field-independent basis, Debye-Ang**2):
  XXX=             15.3867  YYY=             -0.2879  ZZZ=              0.0006  XYY=              0.4827
  XXY=              2.6802  XXZ=              0.0062  XZZ=              1.0994  YZZ=             -0.0797
  YYZ=              0.0002  XYZ=              0.0005
 Hexadecapole moment (field-independent basis, Debye-Ang**3):
 XXXX=           -135.4197 YYYY=            -60.2823 ZZZZ=            -34.9804 XXXY=              0.0044
 XXXZ=              0.0152 YYYX=             -0.2505 YYYZ=              0.0006 ZZZX=              0.0016
 ZZZY=             -0.0002 XXYY=            -36.9252 XXZZ=            -33.8714 YYZZ=            -14.7406
 XXYZ=             -0.0010 YYXZ=              0.0002 ZZXY=              1.2209
 N-N= 8.248552526552D+01 E-N=-5.277331501523D+02  KE= 1.546016907450D+02
 1\1\GINC-TC-NODE158\SP\RB3LYP\6-311+G(2d,p)\C2H6O1\MAXB2\18-Oct-2016\0
 \\# b3lyp/6-311+g(2d,p) nmr=(giao,spinspin) geom=connectivity\\Title C
 ard Required\\0,1\C\C,1,1.51183328\O,2,1.4047073,1,108.41353518\H,1,1.
 08521746,2,110.35647248,3,-179.98040367,0\H,1,1.08400544,2,110.4555671
 5,3,-59.90281384,0\H,1,1.083976,2,110.47011636,3,59.91323241,0\H,2,1.0
 8763934,1,110.09669466,3,120.6729173,0\H,2,1.08765836,1,110.09704152,3
 ,-120.68164992,0\H,3,0.94089562,2,110.19758582,1,-179.946875,0\\Versio
 n=ES64L-G09RevD.01\State=1-A\HF=-155.0973517\RMSD=6.536e-09\Dipole=-0.
 5148857,-0.0005119,0.3756297\Quadrupole=-1.6670738,-0.628317,2.2953908
 ,-0.0012098,0.4936339,-0.0022849\PG=C01 [X(C2H6O1)]\\@


 THERE IS NOTHING NOBLE IN BEING SUPERIOR TO SOME OTHER MAN.
 TRUE NOBILITY IS BEING SUPERIOR TO YOUR FORMER SELF.

                                                   -- HINDU PROVERB
 Job cpu time:       0 days  0 hours  8 minutes 53.7 seconds.
 File lengths (MBytes):  RWF=     36 Int=      0 D2E=      0 Chk=      3 Scr=      1
 Normal termination of Gaussian 09 at Tue Oct 18 19:14:01 2016.
