 Entering Gaussian System, Link 0=g09
 Initial command:
 /cluster/software/gaussian/gaussian-09-D.01/g09/l1.exe "/local/scratch/epktb/Gau-10585.inp" -scrdir="/local/scratch/epktb/"
 Entering Link 1 = /cluster/software/gaussian/gaussian-09-D.01/g09/l1.exe PID=     10586.
  
 Copyright (c) 1988,1990,1992,1993,1995,1998,2003,2009,2013,
            Gaussian, Inc.  All Rights Reserved.
  
 This is part of the Gaussian(R) 09 program.  It is based on
 the Gaussian(R) 03 system (copyright 2003, Gaussian, Inc.),
 the Gaussian(R) 98 system (copyright 1998, Gaussian, Inc.),
 the Gaussian(R) 94 system (copyright 1995, Gaussian, Inc.),
 the Gaussian 92(TM) system (copyright 1992, Gaussian, Inc.),
 the Gaussian 90(TM) system (copyright 1990, Gaussian, Inc.),
 the Gaussian 88(TM) system (copyright 1988, Gaussian, Inc.),
 the Gaussian 86(TM) system (copyright 1986, Carnegie Mellon
 University), and the Gaussian 82(TM) system (copyright 1983,
 Carnegie Mellon University). Gaussian is a federally registered
 trademark of Gaussian, Inc.
  
 This software contains proprietary and confidential information,
 including trade secrets, belonging to Gaussian, Inc.
  
 This software is provided under written license and may be
 used, copied, transmitted, or stored only in accord with that
 written license.
  
 The following legend is applicable only to US Government
 contracts under FAR:
  
                    RESTRICTED RIGHTS LEGEND
  
 Use, reproduction and disclosure by the US Government is
 subject to restrictions as set forth in subparagraphs (a)
 and (c) of the Commercial Computer Software - Restricted
 Rights clause in FAR 52.227-19.
  
 Gaussian, Inc.
 340 Quinnipiac St., Bldg. 40, Wallingford CT 06492
  
  
 ---------------------------------------------------------------
 Warning -- This program may not be used in any manner that
 competes with the business of Gaussian, Inc. or will provide
 assistance to any competitor of Gaussian, Inc.  The licensee
 of this program is prohibited from giving any competitor of
 Gaussian, Inc. access to this program.  By using this program,
 the user acknowledges that Gaussian, Inc. is engaged in the
 business of creating and licensing software in the field of
 computational chemistry and represents and warrants to the
 licensee that it is not a competitor of Gaussian, Inc. and that
 it will not use this program in any manner prohibited above.
 ---------------------------------------------------------------
  

 Cite this work as:
 Gaussian 09, Revision D.01,
 M. J. Frisch, G. W. Trucks, H. B. Schlegel, G. E. Scuseria, 
 M. A. Robb, J. R. Cheeseman, G. Scalmani, V. Barone, B. Mennucci, 
 G. A. Petersson, H. Nakatsuji, M. Caricato, X. Li, H. P. Hratchian, 
 A. F. Izmaylov, J. Bloino, G. Zheng, J. L. Sonnenberg, M. Hada, 
 M. Ehara, K. Toyota, R. Fukuda, J. Hasegawa, M. Ishida, T. Nakajima, 
 Y. Honda, O. Kitao, H. Nakai, T. Vreven, J. A. Montgomery, Jr., 
 J. E. Peralta, F. Ogliaro, M. Bearpark, J. J. Heyd, E. Brothers, 
 K. N. Kudin, V. N. Staroverov, T. Keith, R. Kobayashi, J. Normand, 
 K. Raghavachari, A. Rendell, J. C. Burant, S. S. Iyengar, J. Tomasi, 
 M. Cossi, N. Rega, J. M. Millam, M. Klene, J. E. Knox, J. B. Cross, 
 V. Bakken, C. Adamo, J. Jaramillo, R. Gomperts, R. E. Stratmann, 
 O. Yazyev, A. J. Austin, R. Cammi, C. Pomelli, J. W. Ochterski, 
 R. L. Martin, K. Morokuma, V. G. Zakrzewski, G. A. Voth, 
 P. Salvador, J. J. Dannenberg, S. Dapprich, A. D. Daniels, 
 O. Farkas, J. B. Foresman, J. V. Ortiz, J. Cioslowski, 
 and D. J. Fox, Gaussian, Inc., Wallingford CT, 2013.
 
 ******************************************
 Gaussian 09:  ES64L-G09RevD.01 24-Apr-2013
                14-Oct-2016 
 ******************************************
 %nprocshared=6
 Will use up to    6 processors via shared memory.
 %mem=4GB
 %chk=ozone
 -----------------------------------------------
 #opt freq b3lyp/6-311+G(2d,p) geom=connectivity
 -----------------------------------------------
 1/14=-1,18=20,19=15,26=3,38=1,57=2/1,3;
 2/9=110,12=2,17=6,18=5,40=1/2;
 3/5=4,6=6,7=112,11=2,16=1,25=1,30=1,71=1,74=-5/1,2,3;
 4//1;
 5/5=2,38=5/2;
 6/7=2,8=2,9=2,10=2,28=1/1;
 7//1,2,3,16;
 1/14=-1,18=20,19=15,26=3/3(2);
 2/9=110/2;
 99//99;
 2/9=110/2;
 3/5=4,6=6,7=112,11=2,16=1,25=1,30=1,71=1,74=-5/1,2,3;
 4/5=5,16=3,69=1/1;
 5/5=2,38=5/2;
 7//1,2,3,16;
 1/14=-1,18=20,19=15,26=3/3(-5);
 2/9=110/2;
 6/7=2,8=2,9=2,10=2,19=2,28=1/1;
 99/9=1/99;
 -------------------
 Title Card Required
 -------------------
 Symbolic Z-matrix:
 Charge =  0 Multiplicity = 1
 O
 O                    1    B1
 O                    2    B2       1    A1
       Variables:
  B1                    1.2812                   
  B2                    1.46035                  
  A1                  120.02059                  
 

 GradGradGradGradGradGradGradGradGradGradGradGradGradGradGradGradGradGrad
 Berny optimization.
 Initialization pass.
                           ----------------------------
                           !    Initial Parameters    !
                           ! (Angstroms and Degrees)  !
 --------------------------                            --------------------------
 ! Name  Definition              Value          Derivative Info.                !
 --------------------------------------------------------------------------------
 ! R1    R(1,2)                  1.2812         estimate D2E/DX2                !
 ! R2    R(2,3)                  1.4603         estimate D2E/DX2                !
 ! A1    A(1,2,3)              120.0206         estimate D2E/DX2                !
 --------------------------------------------------------------------------------
 Trust Radius=3.00D-01 FncErr=1.00D-07 GrdErr=1.00D-06
 Number of steps in this run=     20 maximum allowed number of steps=    100.
 GradGradGradGradGradGradGradGradGradGradGradGradGradGradGradGradGradGrad

                          Input orientation:                          
 ---------------------------------------------------------------------
 Center     Atomic      Atomic             Coordinates (Angstroms)
 Number     Number       Type             X           Y           Z
 ---------------------------------------------------------------------
      1          8           0        0.000000    0.000000    0.000000
      2          8           0        0.000000    0.000000    1.281200
      3          8           0        1.264437    0.000000    2.011829
 ---------------------------------------------------------------------
                    Distance matrix (angstroms):
                    1          2          3
     1  O    0.000000
     2  O    1.281200   0.000000
     3  O    2.376186   1.460350   0.000000
 Stoichiometry    O3
 Framework group  CS[SG(O3)]
 Deg. of freedom     3
 Full point group                 CS      NOp   2
 Largest Abelian subgroup         CS      NOp   2
 Largest concise Abelian subgroup C1      NOp   1
                         Standard orientation:                         
 ---------------------------------------------------------------------
 Center     Atomic      Atomic             Coordinates (Angstroms)
 Number     Number       Type             X           Y           Z
 ---------------------------------------------------------------------
      1          8           0        1.174673   -0.051783    0.000000
      2          8           0        0.000000    0.459702    0.000000
      3          8           0       -1.174673   -0.407918    0.000000
 ---------------------------------------------------------------------
 Rotational constants (GHZ):    102.2555986     11.1603104     10.0621177
 Standard basis: 6-311+G(2d,p) (5D, 7F)
 There are    63 symmetry adapted cartesian basis functions of A'  symmetry.
 There are    24 symmetry adapted cartesian basis functions of A"  symmetry.
 There are    57 symmetry adapted basis functions of A'  symmetry.
 There are    24 symmetry adapted basis functions of A"  symmetry.
    81 basis functions,   126 primitive gaussians,    87 cartesian basis functions
    12 alpha electrons       12 beta electrons
       nuclear repulsion energy        63.8781557888 Hartrees.
 NAtoms=    3 NActive=    3 NUniq=    3 SFac= 1.00D+00 NAtFMM=   60 NAOKFM=F Big=F
 Integral buffers will be    131072 words long.
 Raffenetti 2 integral format.
 Two-electron integral symmetry is turned on.
 One-electron integrals computed using PRISM.
 NBasis=    81 RedAO= T EigKep=  1.14D-03  NBF=    57    24
 NBsUse=    81 1.00D-06 EigRej= -1.00D+00 NBFU=    57    24
 ExpMin= 8.45D-02 ExpMax= 8.59D+03 ExpMxC= 1.30D+03 IAcc=2 IRadAn=         4 AccDes= 0.00D+00
 Harris functional with IExCor=  402 and IRadAn=       4 diagonalized for initial guess.
 HarFok:  IExCor=  402 AccDes= 0.00D+00 IRadAn=         4 IDoV= 1 UseB2=F ITyADJ=14
 ICtDFT=  3500011 ScaDFX=  1.000000  1.000000  1.000000  1.000000
 FoFCou: FMM=F IPFlag=           0 FMFlag=      100000 FMFlg1=           0
         NFxFlg=           0 DoJE=T BraDBF=F KetDBF=T FulRan=T
         wScrn=  0.000000 ICntrl=     500 IOpCl=  0 I1Cent=   200000004 NGrid=           0
         NMat0=    1 NMatS0=      1 NMatT0=    0 NMatD0=    1 NMtDS0=    0 NMtDT0=    0
 Petite list used in FoFCou.
 Initial guess orbital symmetries:
       Occupied  (A') (A') (A') (A') (A') (A') (A') (A') (A") (A")
                 (A') (A')
       Virtual   (A") (A') (A') (A') (A') (A") (A') (A') (A') (A")
                 (A") (A') (A') (A') (A') (A') (A') (A") (A') (A')
                 (A") (A') (A") (A') (A') (A") (A") (A') (A') (A')
                 (A") (A') (A") (A') (A') (A') (A") (A') (A") (A')
                 (A') (A') (A') (A') (A") (A") (A') (A') (A") (A')
                 (A') (A") (A') (A") (A') (A") (A') (A") (A') (A")
                 (A") (A') (A') (A') (A') (A') (A') (A') (A')
 The electronic state of the initial guess is 1-A'.
 Keep R1 ints in memory in symmetry-blocked form, NReq=8410868.
 Requested convergence on RMS density matrix=1.00D-08 within 128 cycles.
 Requested convergence on MAX density matrix=1.00D-06.
 Requested convergence on             energy=1.00D-06.
 No special actions if energy rises.
 Integral accuracy reduced to 1.0D-05 until final iterations.
 EnCoef did     3 forward-backward iterations
 EnCoef did   100 forward-backward iterations
 Initial convergence to 1.0D-05 achieved.  Increase integral accuracy.
 SCF Done:  E(RB3LYP) =  -225.465099096     A.U. after   16 cycles
            NFock= 16  Conv=0.24D-08     -V/T= 2.0044

 **********************************************************************

            Population analysis using the SCF density.

 **********************************************************************

 Orbital symmetries:
       Occupied  (A') (A') (A') (A') (A') (A') (A') (A') (A") (A")
                 (A') (A')
       Virtual   (A") (A') (A') (A') (A') (A") (A') (A') (A') (A")
                 (A") (A') (A') (A') (A') (A') (A') (A") (A') (A')
                 (A") (A') (A") (A') (A") (A') (A") (A') (A') (A')
                 (A") (A') (A") (A') (A') (A') (A") (A') (A") (A')
                 (A') (A') (A') (A') (A") (A") (A') (A") (A') (A')
                 (A') (A") (A') (A") (A') (A") (A') (A") (A') (A")
                 (A') (A") (A') (A') (A') (A') (A') (A') (A')
 The electronic state is 1-A'.
 Alpha  occ. eigenvalues --  -19.42378 -19.29074 -19.25303  -1.31488  -1.04779
 Alpha  occ. eigenvalues --   -0.82628  -0.59894  -0.57832  -0.57598  -0.37158
 Alpha  occ. eigenvalues --   -0.36916  -0.35566
 Alpha virt. eigenvalues --   -0.23259  -0.07561   0.05727   0.06865   0.11837
 Alpha virt. eigenvalues --    0.11922   0.14222   0.17570   0.18190   0.18496
 Alpha virt. eigenvalues --    0.21313   0.21719   0.26218   0.30739   0.34102
 Alpha virt. eigenvalues --    0.87625   0.88750   0.89270   0.92792   0.96248
 Alpha virt. eigenvalues --    0.97182   1.00477   1.02226   1.06413   1.14469
 Alpha virt. eigenvalues --    1.15071   1.18475   1.24073   1.36951   1.41915
 Alpha virt. eigenvalues --    1.43966   1.44658   1.47819   1.51642   1.68407
 Alpha virt. eigenvalues --    1.79861   1.98221   2.08702   2.15440   2.31129
 Alpha virt. eigenvalues --    2.47847   2.56921   4.60764   4.61573   4.66637
 Alpha virt. eigenvalues --    4.85806   4.87942   4.90080   4.91880   5.33768
 Alpha virt. eigenvalues --    6.05237   6.49256   6.54286   6.58015   6.62221
 Alpha virt. eigenvalues --    6.63145   6.66819   6.69641   6.74736   6.75951
 Alpha virt. eigenvalues --    6.83952   6.84680   6.88986   7.00191   7.21321
 Alpha virt. eigenvalues --    7.26749  49.60189  49.66776  49.71993
          Condensed to atoms (all electrons):
               1          2          3
     1  O    7.836440   0.270482  -0.044657
     2  O    0.270482   7.299721   0.209458
     3  O   -0.044657   0.209458   7.993275
 Mulliken charges:
               1
     1  O   -0.062264
     2  O    0.220339
     3  O   -0.158075
 Sum of Mulliken charges =   0.00000
 Mulliken charges with hydrogens summed into heavy atoms:
               1
     1  O   -0.062264
     2  O    0.220339
     3  O   -0.158075
 Electronic spatial extent (au):  <R**2>=            125.6714
 Charge=              0.0000 electrons
 Dipole moment (field-independent basis, Debye):
    X=              0.5394    Y=              0.6353    Z=              0.0000  Tot=              0.8334
 Quadrupole moment (field-independent basis, Debye-Ang):
   XX=            -17.0369   YY=            -16.2819   ZZ=            -15.0525
   XY=             -0.0353   XZ=              0.0000   YZ=              0.0000
 Traceless Quadrupole moment (field-independent basis, Debye-Ang):
   XX=             -0.9131   YY=             -0.1581   ZZ=              1.0713
   XY=             -0.0353   XZ=              0.0000   YZ=              0.0000
 Octapole moment (field-independent basis, Debye-Ang**2):
  XXX=              1.5173  YYY=              1.3962  ZZZ=              0.0000  XYY=              0.0610
  XXY=             -0.7698  XXZ=              0.0000  XZZ=              0.5039  YZZ=              0.3333
  YYZ=              0.0000  XYZ=              0.0000
 Hexadecapole moment (field-independent basis, Debye-Ang**3):
 XXXX=            -99.5788 YYYY=            -25.0549 ZZZZ=            -11.2340 XXXY=             -5.9727
 XXXZ=              0.0000 YYYX=             -6.7226 YYYZ=              0.0000 ZZZX=              0.0000
 ZZZY=              0.0000 XXYY=            -20.6517 XXZZ=            -18.3583 YYZZ=             -5.8953
 XXYZ=              0.0000 YYXZ=              0.0000 ZZXY=             -2.2120
 N-N= 6.387815578878D+01 E-N=-6.603823813304D+02  KE= 2.244673261048D+02
 Symmetry A'   KE= 2.148457598915D+02
 Symmetry A"   KE= 9.621566213322D+00
 Calling FoFJK, ICntrl=      2127 FMM=F ISym2X=1 I1Cent= 0 IOpClX= 0 NMat=1 NMatS=1 NMatT=0.
 ***** Axes restored to original set *****
 -------------------------------------------------------------------
 Center     Atomic                   Forces (Hartrees/Bohr)
 Number     Number              X              Y              Z
 -------------------------------------------------------------------
      1        8           0.009612350    0.000000000    0.059886820
      2        8           0.068258219    0.000000000   -0.005162488
      3        8          -0.077870569    0.000000000   -0.054724332
 -------------------------------------------------------------------
 Cartesian Forces:  Max     0.077870569 RMS     0.043999043

 GradGradGradGradGradGradGradGradGradGradGradGradGradGradGradGradGradGrad
 Berny optimization.
 FormGI is forming the generalized inverse of G from B-inverse, IUseBI=4.
 Internal  Forces:  Max     0.094801399 RMS     0.066118623
 Search for a local minimum.
 Step number   1 out of a maximum of   20
 All quantities printed in internal units (Hartrees-Bohrs-Radians)
 Mixed Optimization -- RFO/linear search
 Second derivative matrix not updated -- first step.
 The second derivative matrix:
                          R1        R2        A1
           R1           0.72697
           R2           0.00000   0.36921
           A1           0.00000   0.00000   0.25000
 ITU=  0
     Eigenvalues ---    0.25000   0.36921   0.72697
 RFO step:  Lambda=-2.92366642D-02 EMin= 2.50000000D-01
 Linear search not attempted -- first point.
 Iteration  1 RMS(Cart)=  0.14683094 RMS(Int)=  0.02375423
 Iteration  2 RMS(Cart)=  0.01770667 RMS(Int)=  0.00001968
 Iteration  3 RMS(Cart)=  0.00001414 RMS(Int)=  0.00000000
 Iteration  4 RMS(Cart)=  0.00000000 RMS(Int)=  0.00000000
 ClnCor:  largest displacement from symmetrization is 1.43D-15 for atom     1.
 Variable       Old X    -DE/DX   Delta X   Delta X   Delta X     New X
                                 (Linear)    (Quad)   (Total)
    R1        2.42112  -0.05989   0.00000  -0.07920  -0.07920   2.34192
    R2        2.75966  -0.09480   0.00000  -0.23793  -0.23793   2.52173
    A1        2.09475  -0.02326   0.00000  -0.08330  -0.08330   2.01145
         Item               Value     Threshold  Converged?
 Maximum Force            0.094801     0.000450     NO 
 RMS     Force            0.066119     0.000300     NO 
 Maximum Displacement     0.177346     0.001800     NO 
 RMS     Displacement     0.160815     0.001200     NO 
 Predicted change in Energy=-1.563901D-02
 GradGradGradGradGradGradGradGradGradGradGradGradGradGradGradGradGradGrad

                          Input orientation:                          
 ---------------------------------------------------------------------
 Center     Atomic      Atomic             Coordinates (Angstroms)
 Number     Number       Type             X           Y           Z
 ---------------------------------------------------------------------
      1          8           0        0.055060    0.000000    0.068260
      2          8           0        0.011566    0.000000    1.306787
      3          8           0        1.197812    0.000000    1.917982
 ---------------------------------------------------------------------
                    Distance matrix (angstroms):
                    1          2          3
     1  O    0.000000
     2  O    1.239291   0.000000
     3  O    2.174248   1.334443   0.000000
 Stoichiometry    O3
 Framework group  CS[SG(O3)]
 Deg. of freedom     3
 Full point group                 CS      NOp   2
 Largest Abelian subgroup         CS      NOp   2
 Largest concise Abelian subgroup C1      NOp   1
                         Standard orientation:                         
 ---------------------------------------------------------------------
 Center     Atomic      Atomic             Coordinates (Angstroms)
 Number     Number       Type             X           Y           Z
 ---------------------------------------------------------------------
      1          8           0        1.083499   -0.141388    0.000000
      2          8           0        0.000000    0.460170    0.000000
      3          8           0       -1.083499   -0.318782    0.000000
 ---------------------------------------------------------------------
 Rotational constants (GHZ):    100.2436290     13.3536266     11.7838761
 Standard basis: 6-311+G(2d,p) (5D, 7F)
 There are    63 symmetry adapted cartesian basis functions of A'  symmetry.
 There are    24 symmetry adapted cartesian basis functions of A"  symmetry.
 There are    57 symmetry adapted basis functions of A'  symmetry.
 There are    24 symmetry adapted basis functions of A"  symmetry.
    81 basis functions,   126 primitive gaussians,    87 cartesian basis functions
    12 alpha electrons       12 beta electrons
       nuclear repulsion energy        68.2839729205 Hartrees.
 NAtoms=    3 NActive=    3 NUniq=    3 SFac= 1.00D+00 NAtFMM=   60 NAOKFM=F Big=F
 Integral buffers will be    131072 words long.
 Raffenetti 2 integral format.
 Two-electron integral symmetry is turned on.
 One-electron integrals computed using PRISM.
 NBasis=    81 RedAO= T EigKep=  9.57D-04  NBF=    57    24
 NBsUse=    81 1.00D-06 EigRej= -1.00D+00 NBFU=    57    24
 Initial guess from the checkpoint file:  "ozone.chk"
 B after Tr=     0.000000    0.000000    0.000000
         Rot=    0.999531    0.000000    0.000000    0.030618 Ang=   3.51 deg.
 Initial guess orbital symmetries:
       Occupied  (A') (A') (A') (A') (A') (A') (A') (A') (A") (A")
                 (A') (A')
       Virtual   (A') (A') (A') (A') (A') (A') (A') (A') (A') (A')
                 (A') (A') (A') (A') (A') (A') (A') (A') (A') (A')
                 (A') (A') (A') (A') (A') (A') (A') (A') (A') (A')
                 (A') (A') (A') (A') (A') (A') (A') (A') (A') (A')
                 (A') (A') (A') (A') (A') (A') (A') (A") (A") (A")
                 (A") (A") (A") (A") (A") (A") (A") (A") (A") (A")
                 (A") (A") (A") (A") (A") (A") (A") (A") (A")
 ExpMin= 8.45D-02 ExpMax= 8.59D+03 ExpMxC= 1.30D+03 IAcc=2 IRadAn=         4 AccDes= 0.00D+00
 Harris functional with IExCor=  402 and IRadAn=       4 diagonalized for initial guess.
 HarFok:  IExCor=  402 AccDes= 0.00D+00 IRadAn=         4 IDoV= 1 UseB2=F ITyADJ=14
 ICtDFT=  3500011 ScaDFX=  1.000000  1.000000  1.000000  1.000000
 FoFCou: FMM=F IPFlag=           0 FMFlag=      100000 FMFlg1=           0
         NFxFlg=           0 DoJE=T BraDBF=F KetDBF=T FulRan=T
         wScrn=  0.000000 ICntrl=     500 IOpCl=  0 I1Cent=   200000004 NGrid=           0
         NMat0=    1 NMatS0=      1 NMatT0=    0 NMatD0=    1 NMtDS0=    0 NMtDT0=    0
 Petite list used in FoFCou.
 Keep R1 ints in memory in symmetry-blocked form, NReq=8410868.
 Requested convergence on RMS density matrix=1.00D-08 within 128 cycles.
 Requested convergence on MAX density matrix=1.00D-06.
 Requested convergence on             energy=1.00D-06.
 No special actions if energy rises.
 Integral accuracy reduced to 1.0D-05 until final iterations.
 Initial convergence to 1.0D-05 achieved.  Increase integral accuracy.
 SCF Done:  E(RB3LYP) =  -225.485770709     A.U. after   14 cycles
            NFock= 14  Conv=0.21D-08     -V/T= 2.0031
 Calling FoFJK, ICntrl=      2127 FMM=F ISym2X=1 I1Cent= 0 IOpClX= 0 NMat=1 NMatS=1 NMatT=0.
 ***** Axes restored to original set *****
 -------------------------------------------------------------------
 Center     Atomic                   Forces (Hartrees/Bohr)
 Number     Number              X              Y              Z
 -------------------------------------------------------------------
      1        8          -0.008749500    0.000000000   -0.002757988
      2        8           0.054213499    0.000000000    0.016883321
      3        8          -0.045464000    0.000000000   -0.014125333
 -------------------------------------------------------------------
 Cartesian Forces:  Max     0.054213499 RMS     0.024888218

 GradGradGradGradGradGradGradGradGradGradGradGradGradGradGradGradGradGrad
 Berny optimization.
 Using GEDIIS/GDIIS optimizer.
 FormGI is forming the generalized inverse of G from B-inverse, IUseBI=4.
 Internal  Forces:  Max     0.046874168 RMS     0.029634257
 Search for a local minimum.
 Step number   2 out of a maximum of   20
 All quantities printed in internal units (Hartrees-Bohrs-Radians)
 Mixed Optimization -- RFO/linear search
 Update second derivatives using D2CorX and points    1    2
 DE= -2.07D-02 DEPred=-1.56D-02 R= 1.32D+00
 TightC=F SS=  1.41D+00  RLast= 2.64D-01 DXNew= 5.0454D-01 7.9271D-01
 Trust test= 1.32D+00 RLast= 2.64D-01 DXMaxT set to 5.05D-01
 The second derivative matrix:
                          R1        R2        A1
           R1           0.79925
           R2          -0.03667   0.20026
           A1           0.09308   0.03821   0.33096
 ITU=  1  0
 Use linear search instead of GDIIS.
     Eigenvalues ---    0.18370   0.32834   0.81842
 RFO step:  Lambda=-7.42625948D-03 EMin= 1.83702942D-01
 Quartic linear search produced a step of  0.28511.
 Iteration  1 RMS(Cart)=  0.08820884 RMS(Int)=  0.00344969
 Iteration  2 RMS(Cart)=  0.00384072 RMS(Int)=  0.00000340
 Iteration  3 RMS(Cart)=  0.00000278 RMS(Int)=  0.00000000
 Iteration  4 RMS(Cart)=  0.00000000 RMS(Int)=  0.00000000
 ClnCor:  largest displacement from symmetrization is 1.26D-15 for atom     3.
 Variable       Old X    -DE/DX   Delta X   Delta X   Delta X     New X
                                 (Linear)    (Quad)   (Total)
    R1        2.34192   0.00244  -0.02258   0.01037  -0.01221   2.32971
    R2        2.52173  -0.04687  -0.06784  -0.12266  -0.19050   2.33124
    A1        2.01145   0.02077  -0.02375   0.12191   0.09816   2.10962
         Item               Value     Threshold  Converged?
 Maximum Force            0.046874     0.000450     NO 
 RMS     Force            0.029634     0.000300     NO 
 Maximum Displacement     0.118710     0.001800     NO 
 RMS     Displacement     0.088049     0.001200     NO 
 Predicted change in Energy=-6.562135D-03
 GradGradGradGradGradGradGradGradGradGradGradGradGradGradGradGradGradGrad

                          Input orientation:                          
 ---------------------------------------------------------------------
 Center     Atomic      Atomic             Coordinates (Angstroms)
 Number     Number       Type             X           Y           Z
 ---------------------------------------------------------------------
      1          8           0        0.039168    0.000000    0.075293
      2          8           0        0.074385    0.000000    1.307617
      3          8           0        1.150885    0.000000    1.910119
 ---------------------------------------------------------------------
                    Distance matrix (angstroms):
                    1          2          3
     1  O    0.000000
     2  O    1.232827   0.000000
     3  O    2.145344   1.233637   0.000000
 Stoichiometry    O3
 Framework group  CS[SG(O3)]
 Deg. of freedom     3
 Full point group                 CS      NOp   2
 Largest Abelian subgroup         CS      NOp   2
 Largest concise Abelian subgroup C1      NOp   1
                         Standard orientation:                         
 ---------------------------------------------------------------------
 Center     Atomic      Atomic             Coordinates (Angstroms)
 Number     Number       Type             X           Y           Z
 ---------------------------------------------------------------------
      1          8           0        1.072672   -0.202003    0.000000
      2          8           0        0.000000    0.405647    0.000000
      3          8           0       -1.072672   -0.203644    0.000000
 ---------------------------------------------------------------------
 Rotational constants (GHZ):    128.0110182     13.7300297     12.4000430
 Standard basis: 6-311+G(2d,p) (5D, 7F)
 There are    63 symmetry adapted cartesian basis functions of A'  symmetry.
 There are    24 symmetry adapted cartesian basis functions of A"  symmetry.
 There are    57 symmetry adapted basis functions of A'  symmetry.
 There are    24 symmetry adapted basis functions of A"  symmetry.
    81 basis functions,   126 primitive gaussians,    87 cartesian basis functions
    12 alpha electrons       12 beta electrons
       nuclear repulsion energy        70.7109677971 Hartrees.
 NAtoms=    3 NActive=    3 NUniq=    3 SFac= 1.00D+00 NAtFMM=   60 NAOKFM=F Big=F
 Integral buffers will be    131072 words long.
 Raffenetti 2 integral format.
 Two-electron integral symmetry is turned on.
 One-electron integrals computed using PRISM.
 NBasis=    81 RedAO= T EigKep=  7.88D-04  NBF=    57    24
 NBsUse=    81 1.00D-06 EigRej= -1.00D+00 NBFU=    57    24
 Initial guess from the checkpoint file:  "ozone.chk"
 B after Tr=     0.000000    0.000000    0.000000
         Rot=    0.999348    0.000000    0.000000    0.036116 Ang=   4.14 deg.
 Initial guess orbital symmetries:
       Occupied  (A') (A') (A') (A') (A') (A') (A") (A') (A') (A")
                 (A') (A')
       Virtual   (A') (A') (A') (A') (A') (A') (A') (A') (A') (A')
                 (A') (A') (A') (A') (A') (A') (A') (A') (A') (A')
                 (A') (A') (A') (A') (A') (A') (A') (A') (A') (A')
                 (A') (A') (A') (A') (A') (A') (A') (A') (A') (A')
                 (A') (A') (A') (A') (A') (A') (A') (A") (A") (A")
                 (A") (A") (A") (A") (A") (A") (A") (A") (A") (A")
                 (A") (A") (A") (A") (A") (A") (A") (A") (A")
 ExpMin= 8.45D-02 ExpMax= 8.59D+03 ExpMxC= 1.30D+03 IAcc=2 IRadAn=         4 AccDes= 0.00D+00
 Harris functional with IExCor=  402 and IRadAn=       4 diagonalized for initial guess.
 HarFok:  IExCor=  402 AccDes= 0.00D+00 IRadAn=         4 IDoV= 1 UseB2=F ITyADJ=14
 ICtDFT=  3500011 ScaDFX=  1.000000  1.000000  1.000000  1.000000
 FoFCou: FMM=F IPFlag=           0 FMFlag=      100000 FMFlg1=           0
         NFxFlg=           0 DoJE=T BraDBF=F KetDBF=T FulRan=T
         wScrn=  0.000000 ICntrl=     500 IOpCl=  0 I1Cent=   200000004 NGrid=           0
         NMat0=    1 NMatS0=      1 NMatT0=    0 NMatD0=    1 NMtDS0=    0 NMtDT0=    0
 Petite list used in FoFCou.
 Keep R1 ints in memory in symmetry-blocked form, NReq=8410868.
 Requested convergence on RMS density matrix=1.00D-08 within 128 cycles.
 Requested convergence on MAX density matrix=1.00D-06.
 Requested convergence on             energy=1.00D-06.
 No special actions if energy rises.
 Integral accuracy reduced to 1.0D-05 until final iterations.
 Initial convergence to 1.0D-05 achieved.  Increase integral accuracy.
 SCF Done:  E(RB3LYP) =  -225.488592875     A.U. after   13 cycles
            NFock= 13  Conv=0.84D-08     -V/T= 2.0021
 Calling FoFJK, ICntrl=      2127 FMM=F ISym2X=1 I1Cent= 0 IOpClX= 0 NMat=1 NMatS=1 NMatT=0.
 ***** Axes restored to original set *****
 -------------------------------------------------------------------
 Center     Atomic                   Forces (Hartrees/Bohr)
 Number     Number              X              Y              Z
 -------------------------------------------------------------------
      1        8           0.007245224    0.000000000   -0.027505114
      2        8          -0.034382837    0.000000000    0.021509463
      3        8           0.027137613    0.000000000    0.005995651
 -------------------------------------------------------------------
 Cartesian Forces:  Max     0.034382837 RMS     0.018933389

 GradGradGradGradGradGradGradGradGradGradGradGradGradGradGradGradGradGrad
 Berny optimization.
 Using GEDIIS/GDIIS optimizer.
 FormGI is forming the generalized inverse of G from B-inverse, IUseBI=4.
 Internal  Forces:  Max     0.027286782 RMS     0.024511113
 Search for a local minimum.
 Step number   3 out of a maximum of   20
 All quantities printed in internal units (Hartrees-Bohrs-Radians)
 Mixed Optimization -- RFO/linear search
 Update second derivatives using D2CorX and points    1    2    3
 DE= -2.82D-03 DEPred=-6.56D-03 R= 4.30D-01
 Trust test= 4.30D-01 RLast= 2.15D-01 DXMaxT set to 5.05D-01
 The second derivative matrix:
                          R1        R2        A1
           R1           0.87651
           R2           0.09282   0.36225
           A1           0.03605  -0.03405   0.34053
 ITU=  0  1  0
 Use linear search instead of GDIIS.
     Eigenvalues ---    0.30262   0.38233   0.89434
 RFO step:  Lambda=-5.24359682D-04 EMin= 3.02617999D-01
 Quartic linear search produced a step of -0.32635.
 Iteration  1 RMS(Cart)=  0.03100775 RMS(Int)=  0.00061970
 Iteration  2 RMS(Cart)=  0.00079179 RMS(Int)=  0.00000018
 Iteration  3 RMS(Cart)=  0.00000014 RMS(Int)=  0.00000000
 ClnCor:  largest displacement from symmetrization is 4.44D-16 for atom     3.
 Variable       Old X    -DE/DX   Delta X   Delta X   Delta X     New X
                                 (Linear)    (Quad)   (Total)
    R1        2.32971   0.02729   0.00399   0.02358   0.02756   2.35727
    R2        2.33124   0.02661   0.06217  -0.01488   0.04728   2.37852
    A1        2.10962  -0.01870  -0.03203  -0.01288  -0.04492   2.06470
         Item               Value     Threshold  Converged?
 Maximum Force            0.027287     0.000450     NO 
 RMS     Force            0.024511     0.000300     NO 
 Maximum Displacement     0.040293     0.001800     NO 
 RMS     Displacement     0.031153     0.001200     NO 
 Predicted change in Energy=-1.620261D-03
 GradGradGradGradGradGradGradGradGradGradGradGradGradGradGradGradGradGrad

                          Input orientation:                          
 ---------------------------------------------------------------------
 Center     Atomic      Atomic             Coordinates (Angstroms)
 Number     Number       Type             X           Y           Z
 ---------------------------------------------------------------------
      1          8           0        0.047358    0.000000    0.068873
      2          8           0        0.053063    0.000000    1.316273
      3          8           0        1.164017    0.000000    1.907883
 ---------------------------------------------------------------------
                    Distance matrix (angstroms):
                    1          2          3
     1  O    0.000000
     2  O    1.247413   0.000000
     3  O    2.151484   1.258659   0.000000
 Stoichiometry    O3
 Framework group  CS[SG(O3)]
 Deg. of freedom     3
 Full point group                 CS      NOp   2
 Largest Abelian subgroup         CS      NOp   2
 Largest concise Abelian subgroup C1      NOp   1
                         Standard orientation:                         
 ---------------------------------------------------------------------
 Center     Atomic      Atomic             Coordinates (Angstroms)
 Number     Number       Type             X           Y           Z
 ---------------------------------------------------------------------
      1          8           0        1.075686   -0.203229    0.000000
      2          8           0        0.000000    0.428387    0.000000
      3          8           0       -1.075686   -0.225158    0.000000
 ---------------------------------------------------------------------
 Rotational constants (GHZ):    114.7950663     13.6515780     12.2006597
 Standard basis: 6-311+G(2d,p) (5D, 7F)
 There are    63 symmetry adapted cartesian basis functions of A'  symmetry.
 There are    24 symmetry adapted cartesian basis functions of A"  symmetry.
 There are    57 symmetry adapted basis functions of A'  symmetry.
 There are    24 symmetry adapted basis functions of A"  symmetry.
    81 basis functions,   126 primitive gaussians,    87 cartesian basis functions
    12 alpha electrons       12 beta electrons
       nuclear repulsion energy        69.7989381555 Hartrees.
 NAtoms=    3 NActive=    3 NUniq=    3 SFac= 1.00D+00 NAtFMM=   60 NAOKFM=F Big=F
 Integral buffers will be    131072 words long.
 Raffenetti 2 integral format.
 Two-electron integral symmetry is turned on.
 One-electron integrals computed using PRISM.
 NBasis=    81 RedAO= T EigKep=  8.80D-04  NBF=    57    24
 NBsUse=    81 1.00D-06 EigRej= -1.00D+00 NBFU=    57    24
 Initial guess from the checkpoint file:  "ozone.chk"
 B after Tr=     0.000000    0.000000    0.000000
         Rot=    0.999991    0.000000    0.000000   -0.004236 Ang=  -0.49 deg.
 Initial guess orbital symmetries:
       Occupied  (A') (A') (A') (A') (A') (A') (A") (A') (A') (A")
                 (A') (A')
       Virtual   (A') (A') (A') (A') (A') (A') (A') (A') (A') (A')
                 (A') (A') (A') (A') (A') (A') (A') (A') (A') (A')
                 (A') (A') (A') (A') (A') (A') (A') (A') (A') (A')
                 (A') (A') (A') (A') (A') (A') (A') (A') (A') (A')
                 (A') (A') (A') (A') (A') (A') (A') (A") (A") (A")
                 (A") (A") (A") (A") (A") (A") (A") (A") (A") (A")
                 (A") (A") (A") (A") (A") (A") (A") (A") (A")
 ExpMin= 8.45D-02 ExpMax= 8.59D+03 ExpMxC= 1.30D+03 IAcc=2 IRadAn=         4 AccDes= 0.00D+00
 Harris functional with IExCor=  402 and IRadAn=       4 diagonalized for initial guess.
 HarFok:  IExCor=  402 AccDes= 0.00D+00 IRadAn=         4 IDoV= 1 UseB2=F ITyADJ=14
 ICtDFT=  3500011 ScaDFX=  1.000000  1.000000  1.000000  1.000000
 FoFCou: FMM=F IPFlag=           0 FMFlag=      100000 FMFlg1=           0
         NFxFlg=           0 DoJE=T BraDBF=F KetDBF=T FulRan=T
         wScrn=  0.000000 ICntrl=     500 IOpCl=  0 I1Cent=   200000004 NGrid=           0
         NMat0=    1 NMatS0=      1 NMatT0=    0 NMatD0=    1 NMtDS0=    0 NMtDT0=    0
 Petite list used in FoFCou.
 Keep R1 ints in memory in symmetry-blocked form, NReq=8410868.
 Requested convergence on RMS density matrix=1.00D-08 within 128 cycles.
 Requested convergence on MAX density matrix=1.00D-06.
 Requested convergence on             energy=1.00D-06.
 No special actions if energy rises.
 Integral accuracy reduced to 1.0D-05 until final iterations.
 EnCoef did     3 forward-backward iterations
 Initial convergence to 1.0D-05 achieved.  Increase integral accuracy.
 SCF Done:  E(RB3LYP) =  -225.490102982     A.U. after   12 cycles
            NFock= 12  Conv=0.57D-08     -V/T= 2.0026
 Calling FoFJK, ICntrl=      2127 FMM=F ISym2X=1 I1Cent= 0 IOpClX= 0 NMat=1 NMatS=1 NMatT=0.
 ***** Axes restored to original set *****
 -------------------------------------------------------------------
 Center     Atomic                   Forces (Hartrees/Bohr)
 Number     Number              X              Y              Z
 -------------------------------------------------------------------
      1        8          -0.000313775    0.000000000   -0.008383700
      2        8          -0.000003571    0.000000000    0.007891002
      3        8           0.000317345    0.000000000    0.000492698
 -------------------------------------------------------------------
 Cartesian Forces:  Max     0.008383700 RMS     0.003844134

 GradGradGradGradGradGradGradGradGradGradGradGradGradGradGradGradGradGrad
 Berny optimization.
 Using GEDIIS/GDIIS optimizer.
 FormGI is forming the generalized inverse of G from B-inverse, IUseBI=4.
 Internal  Forces:  Max     0.008382759 RMS     0.004864022
 Search for a local minimum.
 Step number   4 out of a maximum of   20
 All quantities printed in internal units (Hartrees-Bohrs-Radians)
 Mixed Optimization -- RFO/linear search
 Update second derivatives using D2CorX and points    1    2    3    4
 DE= -1.51D-03 DEPred=-1.62D-03 R= 9.32D-01
 TightC=F SS=  1.41D+00  RLast= 7.08D-02 DXNew= 8.4853D-01 2.1241D-01
 Trust test= 9.32D-01 RLast= 7.08D-02 DXMaxT set to 5.05D-01
 The second derivative matrix:
                          R1        R2        A1
           R1           0.63481
           R2           0.09202   0.43432
           A1           0.06554  -0.06729   0.40052
 ITU=  1  0  1  0
 Use linear search instead of GDIIS.
     Eigenvalues ---    0.31114   0.48246   0.67605
 RFO step:  Lambda=-9.20695095D-05 EMin= 3.11144663D-01
 Quartic linear search produced a step of  0.09224.
 Iteration  1 RMS(Cart)=  0.00576277 RMS(Int)=  0.00000323
 Iteration  2 RMS(Cart)=  0.00000277 RMS(Int)=  0.00000000
 Iteration  3 RMS(Cart)=  0.00000000 RMS(Int)=  0.00000000
 ClnCor:  largest displacement from symmetrization is 4.44D-16 for atom     3.
 Variable       Old X    -DE/DX   Delta X   Delta X   Delta X     New X
                                 (Linear)    (Quad)   (Total)
    R1        2.35727   0.00838   0.00254   0.01115   0.01370   2.37097
    R2        2.37852   0.00051   0.00436  -0.00591  -0.00154   2.37698
    A1        2.06470   0.00066  -0.00414   0.00293  -0.00121   2.06348
         Item               Value     Threshold  Converged?
 Maximum Force            0.008383     0.000450     NO 
 RMS     Force            0.004864     0.000300     NO 
 Maximum Displacement     0.007659     0.001800     NO 
 RMS     Displacement     0.005763     0.001200     NO 
 Predicted change in Energy=-5.601985D-05
 GradGradGradGradGradGradGradGradGradGradGradGradGradGradGradGradGradGrad

                          Input orientation:                          
 ---------------------------------------------------------------------
 Center     Atomic      Atomic             Coordinates (Angstroms)
 Number     Number       Type             X           Y           Z
 ---------------------------------------------------------------------
      1          8           0        0.046783    0.000000    0.064820
      2          8           0        0.053194    0.000000    1.319464
      3          8           0        1.164461    0.000000    1.908745
 ---------------------------------------------------------------------
                    Distance matrix (angstroms):
                    1          2          3
     1  O    0.000000
     2  O    1.254661   0.000000
     3  O    2.156215   1.257841   0.000000
 Stoichiometry    O3
 Framework group  CS[SG(O3)]
 Deg. of freedom     3
 Full point group                 CS      NOp   2
 Largest Abelian subgroup         CS      NOp   2
 Largest concise Abelian subgroup C1      NOp   1
                         Standard orientation:                         
 ---------------------------------------------------------------------
 Center     Atomic      Atomic             Coordinates (Angstroms)
 Number     Number       Type             X           Y           Z
 ---------------------------------------------------------------------
      1          8           0        1.078103   -0.211858    0.000000
      2          8           0        0.000000    0.429911    0.000000
      3          8           0       -1.078103   -0.218054    0.000000
 ---------------------------------------------------------------------
 Rotational constants (GHZ):    113.9699511     13.5919153     12.1436756
 Standard basis: 6-311+G(2d,p) (5D, 7F)
 There are    63 symmetry adapted cartesian basis functions of A'  symmetry.
 There are    24 symmetry adapted cartesian basis functions of A"  symmetry.
 There are    57 symmetry adapted basis functions of A'  symmetry.
 There are    24 symmetry adapted basis functions of A"  symmetry.
    81 basis functions,   126 primitive gaussians,    87 cartesian basis functions
    12 alpha electrons       12 beta electrons
       nuclear repulsion energy        69.6250463000 Hartrees.
 NAtoms=    3 NActive=    3 NUniq=    3 SFac= 1.00D+00 NAtFMM=   60 NAOKFM=F Big=F
 Integral buffers will be    131072 words long.
 Raffenetti 2 integral format.
 Two-electron integral symmetry is turned on.
 One-electron integrals computed using PRISM.
 NBasis=    81 RedAO= T EigKep=  8.95D-04  NBF=    57    24
 NBsUse=    81 1.00D-06 EigRej= -1.00D+00 NBFU=    57    24
 Initial guess from the checkpoint file:  "ozone.chk"
 B after Tr=     0.000000    0.000000    0.000000
         Rot=    0.999995    0.000000    0.000000    0.003270 Ang=   0.37 deg.
 Initial guess orbital symmetries:
       Occupied  (A') (A') (A') (A') (A') (A') (A") (A') (A') (A")
                 (A') (A')
       Virtual   (A') (A') (A') (A') (A') (A') (A') (A') (A') (A')
                 (A') (A') (A') (A') (A') (A') (A') (A') (A') (A')
                 (A') (A') (A') (A') (A') (A') (A') (A') (A') (A')
                 (A') (A') (A') (A') (A') (A') (A') (A') (A') (A')
                 (A') (A') (A') (A') (A') (A') (A') (A") (A") (A")
                 (A") (A") (A") (A") (A") (A") (A") (A") (A") (A")
                 (A") (A") (A") (A") (A") (A") (A") (A") (A")
 Keep R1 ints in memory in symmetry-blocked form, NReq=8410868.
 Requested convergence on RMS density matrix=1.00D-08 within 128 cycles.
 Requested convergence on MAX density matrix=1.00D-06.
 Requested convergence on             energy=1.00D-06.
 No special actions if energy rises.
 SCF Done:  E(RB3LYP) =  -225.490171315     A.U. after    9 cycles
            NFock=  9  Conv=0.31D-08     -V/T= 2.0026
 Calling FoFJK, ICntrl=      2127 FMM=F ISym2X=1 I1Cent= 0 IOpClX= 0 NMat=1 NMatS=1 NMatT=0.
 ***** Axes restored to original set *****
 -------------------------------------------------------------------
 Center     Atomic                   Forces (Hartrees/Bohr)
 Number     Number              X              Y              Z
 -------------------------------------------------------------------
      1        8          -0.000278937    0.000000000   -0.001766712
      2        8           0.000752214    0.000000000    0.001708988
      3        8          -0.000473277    0.000000000    0.000057725
 -------------------------------------------------------------------
 Cartesian Forces:  Max     0.001766712 RMS     0.000876411

 GradGradGradGradGradGradGradGradGradGradGradGradGradGradGradGradGradGrad
 Berny optimization.
 Using GEDIIS/GDIIS optimizer.
 FormGI is forming the generalized inverse of G from B-inverse, IUseBI=4.
 Internal  Forces:  Max     0.001767490 RMS     0.001109253
 Search for a local minimum.
 Step number   5 out of a maximum of   20
 All quantities printed in internal units (Hartrees-Bohrs-Radians)
 Mixed Optimization -- RFO/linear search
 Update second derivatives using D2CorX and points    2    3    4    5
 DE= -6.83D-05 DEPred=-5.60D-05 R= 1.22D+00
 TightC=F SS=  1.41D+00  RLast= 1.38D-02 DXNew= 8.4853D-01 4.1510D-02
 Trust test= 1.22D+00 RLast= 1.38D-02 DXMaxT set to 5.05D-01
 The second derivative matrix:
                          R1        R2        A1
           R1           0.49777
           R2           0.10717   0.41041
           A1           0.03039  -0.05802   0.39989
 ITU=  1  1  0  1
 Use linear search instead of GDIIS.
     Eigenvalues ---    0.29706   0.44085   0.57016
 RFO step:  Lambda=-1.78534089D-06 EMin= 2.97062030D-01
 Quartic linear search produced a step of  0.27627.
 Iteration  1 RMS(Cart)=  0.00197988 RMS(Int)=  0.00000103
 Iteration  2 RMS(Cart)=  0.00000106 RMS(Int)=  0.00000000
 Iteration  3 RMS(Cart)=  0.00000000 RMS(Int)=  0.00000000
 ClnCor:  largest displacement from symmetrization is 9.93D-16 for atom     3.
 Variable       Old X    -DE/DX   Delta X   Delta X   Delta X     New X
                                 (Linear)    (Quad)   (Total)
    R1        2.37097   0.00177   0.00378   0.00019   0.00398   2.37494
    R2        2.37698  -0.00039  -0.00043  -0.00143  -0.00186   2.37512
    A1        2.06348   0.00064  -0.00034   0.00137   0.00103   2.06451
         Item               Value     Threshold  Converged?
 Maximum Force            0.001767     0.000450     NO 
 RMS     Force            0.001109     0.000300     NO 
 Maximum Displacement     0.002406     0.001800     NO 
 RMS     Displacement     0.001980     0.001200     NO 
 Predicted change in Energy=-4.117685D-06
 GradGradGradGradGradGradGradGradGradGradGradGradGradGradGradGradGradGrad

                          Input orientation:                          
 ---------------------------------------------------------------------
 Center     Atomic      Atomic             Coordinates (Angstroms)
 Number     Number       Type             X           Y           Z
 ---------------------------------------------------------------------
      1          8           0        0.046282    0.000000    0.063547
      2          8           0        0.053901    0.000000    1.320288
      3          8           0        1.164255    0.000000    1.909194
 ---------------------------------------------------------------------
                    Distance matrix (angstroms):
                    1          2          3
     1  O    0.000000
     2  O    1.256764   0.000000
     3  O    2.157841   1.256859   0.000000
 Stoichiometry    O3
 Framework group  CS[SG(O3)]
 Deg. of freedom     3
 Full point group                 CS      NOp   2
 Largest Abelian subgroup         CS      NOp   2
 Largest concise Abelian subgroup C1      NOp   1
                         Standard orientation:                         
 ---------------------------------------------------------------------
 Center     Atomic      Atomic             Coordinates (Angstroms)
 Number     Number       Type             X           Y           Z
 ---------------------------------------------------------------------
      1          8           0        1.078920   -0.214773    0.000000
      2          8           0        0.000000    0.429732    0.000000
      3          8           0       -1.078920   -0.214959    0.000000
 ---------------------------------------------------------------------
 Rotational constants (GHZ):    114.0640069     13.5714565     12.1284059
 Standard basis: 6-311+G(2d,p) (5D, 7F)
 There are    63 symmetry adapted cartesian basis functions of A'  symmetry.
 There are    24 symmetry adapted cartesian basis functions of A"  symmetry.
 There are    57 symmetry adapted basis functions of A'  symmetry.
 There are    24 symmetry adapted basis functions of A"  symmetry.
    81 basis functions,   126 primitive gaussians,    87 cartesian basis functions
    12 alpha electrons       12 beta electrons
       nuclear repulsion energy        69.5890689096 Hartrees.
 NAtoms=    3 NActive=    3 NUniq=    3 SFac= 1.00D+00 NAtFMM=   60 NAOKFM=F Big=F
 Integral buffers will be    131072 words long.
 Raffenetti 2 integral format.
 Two-electron integral symmetry is turned on.
 One-electron integrals computed using PRISM.
 NBasis=    81 RedAO= T EigKep=  8.97D-04  NBF=    57    24
 NBsUse=    81 1.00D-06 EigRej= -1.00D+00 NBFU=    57    24
 Initial guess from the checkpoint file:  "ozone.chk"
 B after Tr=     0.000000    0.000000    0.000000
         Rot=    0.999999    0.000000    0.000000    0.001246 Ang=   0.14 deg.
 Initial guess orbital symmetries:
       Occupied  (A') (A') (A') (A') (A') (A') (A") (A') (A') (A")
                 (A') (A')
       Virtual   (A') (A') (A') (A') (A') (A') (A') (A') (A') (A')
                 (A') (A') (A') (A') (A') (A') (A') (A') (A') (A')
                 (A') (A') (A') (A') (A') (A') (A') (A') (A') (A')
                 (A') (A') (A') (A') (A') (A') (A') (A') (A') (A')
                 (A') (A') (A') (A') (A') (A') (A') (A") (A") (A")
                 (A") (A") (A") (A") (A") (A") (A") (A") (A") (A")
                 (A") (A") (A") (A") (A") (A") (A") (A") (A")
 Keep R1 ints in memory in symmetry-blocked form, NReq=8410868.
 Requested convergence on RMS density matrix=1.00D-08 within 128 cycles.
 Requested convergence on MAX density matrix=1.00D-06.
 Requested convergence on             energy=1.00D-06.
 No special actions if energy rises.
 SCF Done:  E(RB3LYP) =  -225.490175607     A.U. after    8 cycles
            NFock=  8  Conv=0.10D-07     -V/T= 2.0026
 Calling FoFJK, ICntrl=      2127 FMM=F ISym2X=1 I1Cent= 0 IOpClX= 0 NMat=1 NMatS=1 NMatT=0.
 ***** Axes restored to original set *****
 -------------------------------------------------------------------
 Center     Atomic                   Forces (Hartrees/Bohr)
 Number     Number              X              Y              Z
 -------------------------------------------------------------------
      1        8          -0.000004956    0.000000000   -0.000017837
      2        8           0.000048074    0.000000000    0.000035097
      3        8          -0.000043118    0.000000000   -0.000017260
 -------------------------------------------------------------------
 Cartesian Forces:  Max     0.000048074 RMS     0.000025912

 GradGradGradGradGradGradGradGradGradGradGradGradGradGradGradGradGradGrad
 Berny optimization.
 Using GEDIIS/GDIIS optimizer.
 FormGI is forming the generalized inverse of G from B-inverse, IUseBI=4.
 Internal  Forces:  Max     0.000046160 RMS     0.000029353
 Search for a local minimum.
 Step number   6 out of a maximum of   20
 All quantities printed in internal units (Hartrees-Bohrs-Radians)
 Mixed Optimization -- En-DIIS/RFO-DIIS
 Update second derivatives using D2CorX and points    3    4    5    6
 DE= -4.29D-06 DEPred=-4.12D-06 R= 1.04D+00
 TightC=F SS=  1.41D+00  RLast= 4.51D-03 DXNew= 8.4853D-01 1.3519D-02
 Trust test= 1.04D+00 RLast= 4.51D-03 DXMaxT set to 5.05D-01
 The second derivative matrix:
                          R1        R2        A1
           R1           0.48911
           R2           0.12261   0.41800
           A1           0.03195  -0.05436   0.39291
 ITU=  1  1  1  0
 Use linear search instead of GDIIS.
     Eigenvalues ---    0.28830   0.43020   0.58151
 RFO step:  Lambda= 0.00000000D+00 EMin= 2.88302496D-01
 Quartic linear search produced a step of  0.02043.
 Iteration  1 RMS(Cart)=  0.00005562 RMS(Int)=  0.00000000
 Iteration  2 RMS(Cart)=  0.00000000 RMS(Int)=  0.00000000
 ClnCor:  largest displacement from symmetrization is 9.93D-16 for atom     3.
 Variable       Old X    -DE/DX   Delta X   Delta X   Delta X     New X
                                 (Linear)    (Quad)   (Total)
    R1        2.37494   0.00002   0.00008  -0.00001   0.00007   2.37501
    R2        2.37512  -0.00005  -0.00004  -0.00009  -0.00013   2.37499
    A1        2.06451   0.00001   0.00002  -0.00001   0.00001   2.06452
         Item               Value     Threshold  Converged?
 Maximum Force            0.000046     0.000450     YES
 RMS     Force            0.000029     0.000300     YES
 Maximum Displacement     0.000053     0.001800     YES
 RMS     Displacement     0.000056     0.001200     YES
 Predicted change in Energy=-3.642909D-09
 Optimization completed.
    -- Stationary point found.
                           ----------------------------
                           !   Optimized Parameters   !
                           ! (Angstroms and Degrees)  !
 --------------------------                            --------------------------
 ! Name  Definition              Value          Derivative Info.                !
 --------------------------------------------------------------------------------
 ! R1    R(1,2)                  1.2568         -DE/DX =    0.0                 !
 ! R2    R(2,3)                  1.2569         -DE/DX =    0.0                 !
 ! A1    A(1,2,3)              118.2878         -DE/DX =    0.0                 !
 --------------------------------------------------------------------------------
 GradGradGradGradGradGradGradGradGradGradGradGradGradGradGradGradGradGrad

                          Input orientation:                          
 ---------------------------------------------------------------------
 Center     Atomic      Atomic             Coordinates (Angstroms)
 Number     Number       Type             X           Y           Z
 ---------------------------------------------------------------------
      1          8           0        0.046282    0.000000    0.063547
      2          8           0        0.053901    0.000000    1.320288
      3          8           0        1.164255    0.000000    1.909194
 ---------------------------------------------------------------------
                    Distance matrix (angstroms):
                    1          2          3
     1  O    0.000000
     2  O    1.256764   0.000000
     3  O    2.157841   1.256859   0.000000
 Stoichiometry    O3
 Framework group  CS[SG(O3)]
 Deg. of freedom     3
 Full point group                 CS      NOp   2
 Largest Abelian subgroup         CS      NOp   2
 Largest concise Abelian subgroup C1      NOp   1
                         Standard orientation:                         
 ---------------------------------------------------------------------
 Center     Atomic      Atomic             Coordinates (Angstroms)
 Number     Number       Type             X           Y           Z
 ---------------------------------------------------------------------
      1          8           0        1.078920   -0.214773    0.000000
      2          8           0        0.000000    0.429732    0.000000
      3          8           0       -1.078920   -0.214959    0.000000
 ---------------------------------------------------------------------
 Rotational constants (GHZ):    114.0640069     13.5714565     12.1284059

 **********************************************************************

            Population analysis using the SCF density.

 **********************************************************************

 Orbital symmetries:
       Occupied  (A') (A') (A') (A') (A') (A') (A") (A') (A') (A")
                 (A') (A')
       Virtual   (A") (A') (A') (A') (A") (A') (A') (A") (A') (A')
                 (A") (A') (A') (A') (A') (A') (A") (A') (A') (A')
                 (A') (A") (A") (A') (A') (A") (A") (A') (A') (A')
                 (A") (A') (A") (A') (A') (A') (A") (A") (A') (A')
                 (A') (A') (A') (A") (A') (A") (A') (A") (A') (A')
                 (A') (A") (A') (A") (A') (A") (A') (A") (A") (A')
                 (A") (A') (A') (A') (A') (A') (A') (A') (A')
 The electronic state is 1-A'.
 Alpha  occ. eigenvalues --  -19.43872 -19.25606 -19.25602  -1.38767  -1.11808
 Alpha  occ. eigenvalues --   -0.79361  -0.61804  -0.60941  -0.60841  -0.37963
 Alpha  occ. eigenvalues --   -0.36323  -0.35291
 Alpha virt. eigenvalues --   -0.20072   0.04832   0.06826   0.08630   0.11734
 Alpha virt. eigenvalues --    0.12713   0.16596   0.18673   0.19404   0.20327
 Alpha virt. eigenvalues --    0.21080   0.21139   0.26954   0.30323   0.34468
 Alpha virt. eigenvalues --    0.83722   0.89762   0.90853   0.91533   0.94784
 Alpha virt. eigenvalues --    0.97169   0.99226   1.00962   1.05190   1.13565
 Alpha virt. eigenvalues --    1.14960   1.16476   1.23697   1.37659   1.43014
 Alpha virt. eigenvalues --    1.47180   1.47444   1.50872   1.55981   1.84218
 Alpha virt. eigenvalues --    2.03718   2.11115   2.23003   2.23089   2.34093
 Alpha virt. eigenvalues --    2.49713   2.54563   4.60926   4.63163   4.63270
 Alpha virt. eigenvalues --    4.87126   4.90696   4.94377   4.96457   5.75049
 Alpha virt. eigenvalues --    6.33923   6.50798   6.56496   6.59220   6.63940
 Alpha virt. eigenvalues --    6.68671   6.69666   6.72926   6.76182   6.80829
 Alpha virt. eigenvalues --    6.82221   6.82251   6.92947   6.97429   7.15773
 Alpha virt. eigenvalues --    7.28395  49.61267  49.67049  49.78411
          Condensed to atoms (all electrons):
               1          2          3
     1  O    7.962860   0.247057  -0.082783
     2  O    0.247057   7.251592   0.247015
     3  O   -0.082783   0.247015   7.962969
 Mulliken charges:
               1
     1  O   -0.127134
     2  O    0.254336
     3  O   -0.127201
 Sum of Mulliken charges =   0.00000
 Mulliken charges with hydrogens summed into heavy atoms:
               1
     1  O   -0.127134
     2  O    0.254336
     3  O   -0.127201
 Electronic spatial extent (au):  <R**2>=            110.3301
 Charge=              0.0000 electrons
 Dipole moment (field-independent basis, Debye):
    X=              0.0004    Y=              0.6818    Z=              0.0000  Tot=              0.6818
 Quadrupole moment (field-independent basis, Debye-Ang):
   XX=            -17.3962   YY=            -16.1608   ZZ=            -14.7365
   XY=             -0.0001   XZ=              0.0000   YZ=              0.0000
 Traceless Quadrupole moment (field-independent basis, Debye-Ang):
   XX=             -1.2984   YY=             -0.0630   ZZ=              1.3614
   XY=             -0.0001   XZ=              0.0000   YZ=              0.0000
 Octapole moment (field-independent basis, Debye-Ang**2):
  XXX=              0.0009  YYY=              1.3167  ZZZ=              0.0000  XYY=              0.0001
  XXY=             -0.5533  XXZ=              0.0000  XZZ=              0.0003  YZZ=              0.3137
  YYZ=              0.0000  XYZ=              0.0000
 Hexadecapole moment (field-independent basis, Debye-Ang**3):
 XXXX=            -87.4618 YYYY=            -21.5967 ZZZZ=            -10.7225 XXXY=             -0.0030
 XXXZ=              0.0000 YYYX=             -0.0032 YYYZ=              0.0000 ZZZX=              0.0000
 ZZZY=              0.0000 XXYY=            -17.8832 XXZZ=            -16.0062 YYZZ=             -5.2287
 XXYZ=              0.0000 YYXZ=              0.0000 ZZXY=             -0.0011
 N-N= 6.958906890959D+01 E-N=-6.718586552738D+02  KE= 2.248950911239D+02
 Symmetry A'   KE= 2.152168635638D+02
 Symmetry A"   KE= 9.678227560171D+00
 B after Tr=    -0.001972    0.000000    0.000758
         Rot=    1.000000    0.000000   -0.000475    0.000000 Ang=  -0.05 deg.
 Final structure in terms of initial Z-matrix:
 O
 O,1,B1
 O,2,B2,1,A1
      Variables:
 B1=1.25676433
 B2=1.25685921
 A1=118.28782247
 1\1\GINC-TC-NODE158\FOpt\RB3LYP\6-311+G(2d,p)\O3\EPKTB\14-Oct-2016\0\\
 #opt freq b3lyp/6-311+G(2d,p) geom=connectivity\\Title Card Required\\
 0,1\O,0.0473251077,0.,0.0631455968\O,0.0549447004,0.,1.3198868243\O,1.
 1652982574,0.,1.908792642\\Version=ES64L-G09RevD.01\State=1-A'\HF=-225
 .4901756\RMSD=9.994e-09\RMSF=2.591e-05\Dipole=-0.2295322,0.,0.1388464\
 Quadrupole=-0.2933305,1.012145,-0.7188146,0.,-0.4070173,0.\PG=CS [SG(O
 3)]\\@


 HIGGLEDY-PIGGLEDY
 NIC'LAUS COPERNICUS
 LOOKED AT THE UNIVERSE,
 SPOKE TO THE THRONG;
 GIVE UP YOUR PTOLOMY,
 RISE UP AND FOLLOW ME,
 HELIOCENTRICALLY
 PTOLEMY'S WRONG.
   -- NANCY L. STARK
 Job cpu time:       0 days  0 hours  1 minutes 19.2 seconds.
 File lengths (MBytes):  RWF=      5 Int=      0 D2E=      0 Chk=      2 Scr=      1
 Normal termination of Gaussian 09 at Fri Oct 14 11:54:09 2016.
 Link1:  Proceeding to internal job step number  2.
 ----------------------------------------------------------------------
 #N Geom=AllCheck Guess=TCheck SCRF=Check GenChk RB3LYP/6-311+G(2d,p) F
 req
 ----------------------------------------------------------------------
 1/10=4,29=7,30=1,38=1,40=1/1,3;
 2/12=2,40=1/2;
 3/5=4,6=6,7=112,11=2,14=-4,16=1,25=1,30=1,70=2,71=2,74=-5,116=1,140=1/1,2,3;
 4/5=101/1;
 5/5=2,98=1/2;
 8/6=4,10=90,11=11/1;
 11/6=1,8=1,9=11,15=111,16=1/1,2,10;
 10/6=1/2;
 6/7=2,8=2,9=2,10=2,18=1,28=1/1;
 7/8=1,10=1,25=1/1,2,3,16;
 1/10=4,30=1/3;
 99//99;
 Structure from the checkpoint file:  "ozone.chk"
 -------------------
 Title Card Required
 -------------------
 Charge =  0 Multiplicity = 1
 Redundant internal coordinates found in file.
 O,0,0.046281559,0.,0.0635468617
 O,0,0.0539011518,0.,1.3202880893
 O,0,1.1642547087,0.,1.9091939069
 Recover connectivity data from disk.

 GradGradGradGradGradGradGradGradGradGradGradGradGradGradGradGradGradGrad
 Berny optimization.
 Initialization pass.
                           ----------------------------
                           !    Initial Parameters    !
                           ! (Angstroms and Degrees)  !
 --------------------------                            --------------------------
 ! Name  Definition              Value          Derivative Info.                !
 --------------------------------------------------------------------------------
 ! R1    R(1,2)                  1.2568         calculate D2E/DX2 analytically  !
 ! R2    R(2,3)                  1.2569         calculate D2E/DX2 analytically  !
 ! A1    A(1,2,3)              118.2878         calculate D2E/DX2 analytically  !
 --------------------------------------------------------------------------------
 Trust Radius=3.00D-01 FncErr=1.00D-07 GrdErr=1.00D-07
 Number of steps in this run=      2 maximum allowed number of steps=      2.
 GradGradGradGradGradGradGradGradGradGradGradGradGradGradGradGradGradGrad

                          Input orientation:                          
 ---------------------------------------------------------------------
 Center     Atomic      Atomic             Coordinates (Angstroms)
 Number     Number       Type             X           Y           Z
 ---------------------------------------------------------------------
      1          8           0        0.046282    0.000000    0.063547
      2          8           0        0.053901    0.000000    1.320288
      3          8           0        1.164255    0.000000    1.909194
 ---------------------------------------------------------------------
                    Distance matrix (angstroms):
                    1          2          3
     1  O    0.000000
     2  O    1.256764   0.000000
     3  O    2.157841   1.256859   0.000000
 Stoichiometry    O3
 Framework group  CS[SG(O3)]
 Deg. of freedom     3
 Full point group                 CS      NOp   2
 Largest Abelian subgroup         CS      NOp   2
 Largest concise Abelian subgroup C1      NOp   1
                         Standard orientation:                         
 ---------------------------------------------------------------------
 Center     Atomic      Atomic             Coordinates (Angstroms)
 Number     Number       Type             X           Y           Z
 ---------------------------------------------------------------------
      1          8           0        1.078920   -0.214773    0.000000
      2          8           0        0.000000    0.429732    0.000000
      3          8           0       -1.078920   -0.214959    0.000000
 ---------------------------------------------------------------------
 Rotational constants (GHZ):    114.0640069     13.5714565     12.1284059
 Standard basis: 6-311+G(2d,p) (5D, 7F)
 There are    63 symmetry adapted cartesian basis functions of A'  symmetry.
 There are    24 symmetry adapted cartesian basis functions of A"  symmetry.
 There are    57 symmetry adapted basis functions of A'  symmetry.
 There are    24 symmetry adapted basis functions of A"  symmetry.
    81 basis functions,   126 primitive gaussians,    87 cartesian basis functions
    12 alpha electrons       12 beta electrons
       nuclear repulsion energy        69.5890689096 Hartrees.
 NAtoms=    3 NActive=    3 NUniq=    3 SFac= 1.00D+00 NAtFMM=   60 NAOKFM=F Big=F
 Integral buffers will be    131072 words long.
 Raffenetti 2 integral format.
 Two-electron integral symmetry is turned on.
 One-electron integrals computed using PRISM.
 NBasis=    81 RedAO= T EigKep=  8.97D-04  NBF=    57    24
 NBsUse=    81 1.00D-06 EigRej= -1.00D+00 NBFU=    57    24
 Initial guess from the checkpoint file:  "ozone.chk"
 B after Tr=     0.000000    0.000000    0.000000
         Rot=    1.000000    0.000000    0.000000    0.000000 Ang=   0.00 deg.
 Initial guess orbital symmetries:
       Occupied  (A') (A') (A') (A') (A') (A') (A") (A') (A') (A")
                 (A') (A')
       Virtual   (A") (A') (A') (A') (A") (A') (A') (A") (A') (A')
                 (A") (A') (A') (A') (A') (A') (A") (A') (A') (A')
                 (A') (A") (A") (A') (A') (A") (A") (A') (A') (A')
                 (A") (A') (A") (A') (A') (A') (A") (A") (A') (A')
                 (A') (A') (A') (A") (A') (A") (A') (A") (A') (A')
                 (A') (A") (A') (A") (A') (A") (A') (A") (A") (A')
                 (A") (A') (A') (A') (A') (A') (A') (A') (A')
 Keep R1 ints in memory in symmetry-blocked form, NReq=8410868.
 Requested convergence on RMS density matrix=1.00D-08 within 128 cycles.
 Requested convergence on MAX density matrix=1.00D-06.
 Requested convergence on             energy=1.00D-06.
 No special actions if energy rises.
 SCF Done:  E(RB3LYP) =  -225.490175607     A.U. after    1 cycles
            NFock=  1  Conv=0.15D-08     -V/T= 2.0026
 DoSCS=F DFT=T ScalE2(SS,OS)=  1.000000  1.000000
 Range of M.O.s used for correlation:     1    81
 NBasis=    81 NAE=    12 NBE=    12 NFC=     0 NFV=     0
 NROrb=     81 NOA=    12 NOB=    12 NVA=    69 NVB=    69

 **** Warning!!: The largest alpha MO coefficient is  0.25343741D+02

 Symmetrizing basis deriv contribution to polar:
 IMax=3 JMax=2 DiffMx= 0.00D+00
 G2DrvN: will do     4 centers at a time, making    1 passes.
 Calling FoFCou, ICntrl=  3107 FMM=F I1Cent=   0 AccDes= 0.00D+00.
 End of G2Drv F.D. properties file   721 does not exist.
 End of G2Drv F.D. properties file   722 does not exist.
 End of G2Drv F.D. properties file   788 does not exist.
          IDoAtm=111
          Differentiating once with respect to electric field.
                with respect to dipole field.
          Differentiating once with respect to nuclear coordinates.
 Keep R1 ints in memory in symmetry-blocked form, NReq=8369991.
          There are    12 degrees of freedom in the 1st order CPHF.  IDoFFX=6 NUNeed=     3.
      9 vectors produced by pass  0 Test12= 6.90D-15 8.33D-09 XBig12= 9.54D+01 9.23D+00.
 AX will form     9 AO Fock derivatives at one time.
      9 vectors produced by pass  1 Test12= 6.90D-15 8.33D-09 XBig12= 9.06D+01 3.32D+00.
      9 vectors produced by pass  2 Test12= 6.90D-15 8.33D-09 XBig12= 6.69D-01 2.42D-01.
      9 vectors produced by pass  3 Test12= 6.90D-15 8.33D-09 XBig12= 9.42D-03 2.57D-02.
      9 vectors produced by pass  4 Test12= 6.90D-15 8.33D-09 XBig12= 6.60D-05 2.08D-03.
      9 vectors produced by pass  5 Test12= 6.90D-15 8.33D-09 XBig12= 1.31D-07 9.68D-05.
      8 vectors produced by pass  6 Test12= 6.90D-15 8.33D-09 XBig12= 1.71D-10 3.55D-06.
      2 vectors produced by pass  7 Test12= 6.90D-15 8.33D-09 XBig12= 2.08D-13 1.39D-07.
      1 vectors produced by pass  8 Test12= 6.90D-15 8.33D-09 XBig12= 5.04D-16 9.82D-09.
 InvSVY:  IOpt=1 It=  1 EMax= 5.55D-16
 Solved reduced A of dimension    65 with     9 vectors.
 Isotropic polarizability for W=    0.000000       17.11 Bohr**3.
 End of Minotr F.D. properties file   721 does not exist.
 End of Minotr F.D. properties file   722 does not exist.
 End of Minotr F.D. properties file   788 does not exist.

 **********************************************************************

            Population analysis using the SCF density.

 **********************************************************************

 Orbital symmetries:
       Occupied  (A') (A') (A') (A') (A') (A') (A") (A') (A') (A")
                 (A') (A')
       Virtual   (A") (A') (A') (A') (A") (A') (A') (A") (A') (A')
                 (A") (A') (A') (A') (A') (A') (A") (A') (A') (A')
                 (A') (A") (A") (A') (A') (A") (A") (A') (A') (A')
                 (A") (A') (A") (A') (A') (A') (A") (A") (A') (A')
                 (A') (A') (A') (A") (A') (A") (A') (A") (A') (A')
                 (A') (A") (A') (A") (A') (A") (A') (A") (A") (A')
                 (A") (A') (A') (A') (A') (A') (A') (A') (A')
 The electronic state is 1-A'.
 Alpha  occ. eigenvalues --  -19.43872 -19.25606 -19.25602  -1.38767  -1.11808
 Alpha  occ. eigenvalues --   -0.79361  -0.61804  -0.60941  -0.60841  -0.37963
 Alpha  occ. eigenvalues --   -0.36323  -0.35291
 Alpha virt. eigenvalues --   -0.20072   0.04832   0.06826   0.08630   0.11734
 Alpha virt. eigenvalues --    0.12713   0.16596   0.18673   0.19404   0.20327
 Alpha virt. eigenvalues --    0.21080   0.21139   0.26954   0.30323   0.34468
 Alpha virt. eigenvalues --    0.83722   0.89762   0.90853   0.91533   0.94784
 Alpha virt. eigenvalues --    0.97169   0.99226   1.00962   1.05190   1.13565
 Alpha virt. eigenvalues --    1.14960   1.16476   1.23697   1.37659   1.43014
 Alpha virt. eigenvalues --    1.47180   1.47444   1.50872   1.55981   1.84218
 Alpha virt. eigenvalues --    2.03718   2.11115   2.23003   2.23089   2.34093
 Alpha virt. eigenvalues --    2.49713   2.54563   4.60926   4.63163   4.63270
 Alpha virt. eigenvalues --    4.87126   4.90696   4.94377   4.96457   5.75049
 Alpha virt. eigenvalues --    6.33923   6.50798   6.56496   6.59220   6.63940
 Alpha virt. eigenvalues --    6.68671   6.69666   6.72926   6.76182   6.80829
 Alpha virt. eigenvalues --    6.82221   6.82251   6.92947   6.97429   7.15773
 Alpha virt. eigenvalues --    7.28395  49.61267  49.67049  49.78411
          Condensed to atoms (all electrons):
               1          2          3
     1  O    7.962860   0.247057  -0.082783
     2  O    0.247057   7.251592   0.247015
     3  O   -0.082783   0.247015   7.962969
 Mulliken charges:
               1
     1  O   -0.127134
     2  O    0.254336
     3  O   -0.127201
 Sum of Mulliken charges =   0.00000
 Mulliken charges with hydrogens summed into heavy atoms:
               1
     1  O   -0.127134
     2  O    0.254336
     3  O   -0.127201
 APT charges:
               1
     1  O   -0.320208
     2  O    0.640424
     3  O   -0.320216
 Sum of APT charges =   0.00000
 APT charges with hydrogens summed into heavy atoms:
               1
     1  O   -0.320208
     2  O    0.640424
     3  O   -0.320216
 Electronic spatial extent (au):  <R**2>=            110.3301
 Charge=              0.0000 electrons
 Dipole moment (field-independent basis, Debye):
    X=              0.0004    Y=              0.6818    Z=              0.0000  Tot=              0.6818
 Quadrupole moment (field-independent basis, Debye-Ang):
   XX=            -17.3962   YY=            -16.1608   ZZ=            -14.7365
   XY=             -0.0001   XZ=              0.0000   YZ=              0.0000
 Traceless Quadrupole moment (field-independent basis, Debye-Ang):
   XX=             -1.2984   YY=             -0.0630   ZZ=              1.3614
   XY=             -0.0001   XZ=              0.0000   YZ=              0.0000
 Octapole moment (field-independent basis, Debye-Ang**2):
  XXX=              0.0009  YYY=              1.3167  ZZZ=              0.0000  XYY=              0.0001
  XXY=             -0.5533  XXZ=              0.0000  XZZ=              0.0003  YZZ=              0.3137
  YYZ=              0.0000  XYZ=              0.0000
 Hexadecapole moment (field-independent basis, Debye-Ang**3):
 XXXX=            -87.4618 YYYY=            -21.5967 ZZZZ=            -10.7225 XXXY=             -0.0030
 XXXZ=              0.0000 YYYX=             -0.0032 YYYZ=              0.0000 ZZZX=              0.0000
 ZZZY=              0.0000 XXYY=            -17.8832 XXZZ=            -16.0062 YYZZ=             -5.2287
 XXYZ=              0.0000 YYXZ=              0.0000 ZZXY=             -0.0011
 N-N= 6.958906890959D+01 E-N=-6.718586549799D+02  KE= 2.248950909216D+02
 Symmetry A'   KE= 2.152168634027D+02
 Symmetry A"   KE= 9.678227518961D+00
  Exact polarizability:  29.832   0.002  11.929   0.000   0.000   9.573
 Approx polarizability:  84.884   0.008  16.877   0.000   0.000  12.692
 Calling FoFJK, ICntrl=    100127 FMM=F ISym2X=1 I1Cent= 0 IOpClX= 0 NMat=1 NMatS=1 NMatT=0.
 Full mass-weighted force constant matrix:
 Low frequencies ---   -0.0008   -0.0002    0.0015   12.0328   20.4892   21.7521
 Low frequencies ---  743.8508 1207.5680 1256.2113
 Diagonal vibrational polarizability:
        4.4039739       0.2825663       0.0000000
 Harmonic frequencies (cm**-1), IR intensities (KM/Mole), Raman scattering
 activities (A**4/AMU), depolarization ratios for plane and unpolarized
 incident light, reduced masses (AMU), force constants (mDyne/A),
 and normal coordinates:
                      1                      2                      3
                     A'                     A'                     A'
 Frequencies --    743.8508              1207.5680              1256.2113
 Red. masses --     15.9949                15.9949                15.9949
 Frc consts  --      5.2144                13.7422                14.8716
 IR Inten    --      5.8060               238.6312                 0.0151
  Atom  AN      X      Y      Z        X      Y      Z        X      Y      Z
     1   8     0.59   0.23   0.00    -0.38   0.23   0.00    -0.40   0.34   0.00
     2   8     0.00  -0.46   0.00     0.77   0.00   0.00     0.00  -0.68   0.00
     3   8    -0.59   0.23   0.00    -0.39  -0.23   0.00     0.40   0.34   0.00

 -------------------
 - Thermochemistry -
 -------------------
 Temperature   298.150 Kelvin.  Pressure   1.00000 Atm.
 Atom     1 has atomic number  8 and mass  15.99491
 Atom     2 has atomic number  8 and mass  15.99491
 Atom     3 has atomic number  8 and mass  15.99491
 Molecular mass:    47.98474 amu.
 Principal axes and moments of inertia in atomic units:
                           1         2         3
     Eigenvalues --    15.82218 132.98066 148.80284
           X            1.00000  -0.00010   0.00000
           Y            0.00010   1.00000   0.00000
           Z            0.00000   0.00000   1.00000
 This molecule is an asymmetric top.
 Rotational symmetry number  1.
 Rotational temperatures (Kelvin)      5.47420     0.65133     0.58207
 Rotational constants (GHZ):         114.06401    13.57146    12.12841
 Zero-point vibrational energy      19185.9 (Joules/Mol)
                                    4.58554 (Kcal/Mol)
 Vibrational temperatures:   1070.23  1737.42  1807.41
          (Kelvin)
 
 Zero-point correction=                           0.007308 (Hartree/Particle)
 Thermal correction to Energy=                    0.010266
 Thermal correction to Enthalpy=                  0.011210
 Thermal correction to Gibbs Free Energy=        -0.016460
 Sum of electronic and zero-point Energies=           -225.482868
 Sum of electronic and thermal Energies=              -225.479910
 Sum of electronic and thermal Enthalpies=            -225.478965
 Sum of electronic and thermal Free Energies=         -225.506636
 
                     E (Thermal)             CV                S
                      KCal/Mol        Cal/Mol-Kelvin    Cal/Mol-Kelvin
 Total                    6.442              7.080             58.237
 Electronic               0.000              0.000              0.000
 Translational            0.889              2.981             37.529
 Rotational               0.889              2.981             20.376
 Vibrational              4.665              1.119              0.331
                       Q            Log10(Q)             Ln(Q)
 Total Bot       0.372413D+08          7.571025         17.432929
 Total V=0       0.855545D+11         10.932243         25.172420
 Vib (Bot)       0.450024D-03         -3.346765         -7.706210
 Vib (V=0)       0.103384D+01          0.014454          0.033281
 Electronic      0.100000D+01          0.000000          0.000000
 Translational   0.130650D+08          7.116110         16.385449
 Rotational      0.633402D+04          3.801679          8.753690
 ***** Axes restored to original set *****
 -------------------------------------------------------------------
 Center     Atomic                   Forces (Hartrees/Bohr)
 Number     Number              X              Y              Z
 -------------------------------------------------------------------
      1        8          -0.000004958    0.000000000   -0.000017845
      2        8           0.000048057    0.000000000    0.000035092
      3        8          -0.000043099    0.000000000   -0.000017248
 -------------------------------------------------------------------
 Cartesian Forces:  Max     0.000048057 RMS     0.000025904
 FormGI is forming the generalized inverse of G from B-inverse, IUseBI=4.

 GradGradGradGradGradGradGradGradGradGradGradGradGradGradGradGradGradGrad
 Berny optimization.
 Internal  Forces:  Max     0.000046137 RMS     0.000029343
 Search for a local minimum.
 Step number   1 out of a maximum of    2
 All quantities printed in internal units (Hartrees-Bohrs-Radians)
 Second derivative matrix not updated -- analytic derivatives used.
 The second derivative matrix:
                          R1        R2        A1
           R1           0.48052
           R2           0.12357   0.48020
           A1           0.05123   0.05123   0.50670
 ITU=  0
     Eigenvalues ---    0.35679   0.46806   0.64256
 Angle between quadratic step and forces=   7.68 degrees.
 Linear search not attempted -- first point.
 Iteration  1 RMS(Cart)=  0.00005076 RMS(Int)=  0.00000000
 Iteration  2 RMS(Cart)=  0.00000000 RMS(Int)=  0.00000000
 ClnCor:  largest displacement from symmetrization is 1.26D-15 for atom     3.
 Variable       Old X    -DE/DX   Delta X   Delta X   Delta X     New X
                                 (Linear)    (Quad)   (Total)
    R1        2.37494   0.00002   0.00000   0.00006   0.00006   2.37500
    R2        2.37512  -0.00005   0.00000  -0.00012  -0.00012   2.37500
    A1        2.06451   0.00001   0.00000   0.00003   0.00003   2.06454
         Item               Value     Threshold  Converged?
 Maximum Force            0.000046     0.000450     YES
 RMS     Force            0.000029     0.000300     YES
 Maximum Displacement     0.000056     0.001800     YES
 RMS     Displacement     0.000051     0.001200     YES
 Predicted change in Energy=-3.399302D-09
 Optimization completed.
    -- Stationary point found.
                           ----------------------------
                           !   Optimized Parameters   !
                           ! (Angstroms and Degrees)  !
 --------------------------                            --------------------------
 ! Name  Definition              Value          Derivative Info.                !
 --------------------------------------------------------------------------------
 ! R1    R(1,2)                  1.2568         -DE/DX =    0.0                 !
 ! R2    R(2,3)                  1.2569         -DE/DX =    0.0                 !
 ! A1    A(1,2,3)              118.2878         -DE/DX =    0.0                 !
 --------------------------------------------------------------------------------
 GradGradGradGradGradGradGradGradGradGradGradGradGradGradGradGradGradGrad

 1\1\GINC-TC-NODE158\Freq\RB3LYP\6-311+G(2d,p)\O3\EPKTB\14-Oct-2016\0\\
 #N Geom=AllCheck Guess=TCheck SCRF=Check GenChk RB3LYP/6-311+G(2d,p) F
 req\\Title Card Required\\0,1\O,0.046281559,0.,0.0635468617\O,0.053901
 1518,0.,1.3202880893\O,1.1642547087,0.,1.9091939069\\Version=ES64L-G09
 RevD.01\State=1-A'\HF=-225.4901756\RMSD=1.462e-09\RMSF=2.590e-05\ZeroP
 oint=0.0073075\Thermal=0.0102659\Dipole=-0.2295325,0.,0.138846\DipoleD
 eriv=-0.1646478,0.,0.0276285,0.,-0.1100765,0.,-0.5453599,0.,-0.6858999
 ,0.5261989,0.,0.6204486,0.,0.2202211,0.,0.6205924,0.,1.1748519,-0.3615
 511,0.,-0.6480771,0.,-0.1101447,0.,-0.0752325,0.,-0.488952\Polar=16.73
 49296,0.,9.5725798,7.9339022,0.,25.0263026\PG=CS [SG(O3)]\NImag=0\\0.0
 9021627,0.,0.00007371,0.02384803,0.,0.48029748,-0.11251281,0.,0.075256
 03,0.51159102,0.,-0.00006998,0.,0.,0.00016714,0.06602259,0.,-0.4038271
 5,0.00847604,0.,0.52077797,0.02229654,0.,-0.09910406,-0.39907821,0.,-0
 .07449864,0.37678168,0.,-0.00000373,0.,0.,-0.00009716,0.,0.,0.00010090
 ,-0.08987062,0.,-0.07647033,-0.08373207,0.,-0.11695082,0.17360270,0.,0
 .19342115\\0.00000496,0.,0.00001784,-0.00004806,0.,-0.00003509,0.00004
 310,0.,0.00001725\\\@


 Until you make peace with who you are,
 you'll never be content with what you have.
                           -- Doris Mortman
 Job cpu time:       0 days  0 hours  0 minutes 31.7 seconds.
 File lengths (MBytes):  RWF=      6 Int=      0 D2E=      0 Chk=      2 Scr=      1
 Normal termination of Gaussian 09 at Fri Oct 14 11:54:15 2016.
