 Entering Gaussian System, Link 0=g09
 Initial command:
 /cluster/software/gaussian/gaussian-09-D.01/g09/l1.exe "/local/scratch/epktb/Gau-17941.inp" -scrdir="/local/scratch/epktb/"
 Entering Link 1 = /cluster/software/gaussian/gaussian-09-D.01/g09/l1.exe PID=     17942.
  
 Copyright (c) 1988,1990,1992,1993,1995,1998,2003,2009,2013,
            Gaussian, Inc.  All Rights Reserved.
  
 This is part of the Gaussian(R) 09 program.  It is based on
 the Gaussian(R) 03 system (copyright 2003, Gaussian, Inc.),
 the Gaussian(R) 98 system (copyright 1998, Gaussian, Inc.),
 the Gaussian(R) 94 system (copyright 1995, Gaussian, Inc.),
 the Gaussian 92(TM) system (copyright 1992, Gaussian, Inc.),
 the Gaussian 90(TM) system (copyright 1990, Gaussian, Inc.),
 the Gaussian 88(TM) system (copyright 1988, Gaussian, Inc.),
 the Gaussian 86(TM) system (copyright 1986, Carnegie Mellon
 University), and the Gaussian 82(TM) system (copyright 1983,
 Carnegie Mellon University). Gaussian is a federally registered
 trademark of Gaussian, Inc.
  
 This software contains proprietary and confidential information,
 including trade secrets, belonging to Gaussian, Inc.
  
 This software is provided under written license and may be
 used, copied, transmitted, or stored only in accord with that
 written license.
  
 The following legend is applicable only to US Government
 contracts under FAR:
  
                    RESTRICTED RIGHTS LEGEND
  
 Use, reproduction and disclosure by the US Government is
 subject to restrictions as set forth in subparagraphs (a)
 and (c) of the Commercial Computer Software - Restricted
 Rights clause in FAR 52.227-19.
  
 Gaussian, Inc.
 340 Quinnipiac St., Bldg. 40, Wallingford CT 06492
  
  
 ---------------------------------------------------------------
 Warning -- This program may not be used in any manner that
 competes with the business of Gaussian, Inc. or will provide
 assistance to any competitor of Gaussian, Inc.  The licensee
 of this program is prohibited from giving any competitor of
 Gaussian, Inc. access to this program.  By using this program,
 the user acknowledges that Gaussian, Inc. is engaged in the
 business of creating and licensing software in the field of
 computational chemistry and represents and warrants to the
 licensee that it is not a competitor of Gaussian, Inc. and that
 it will not use this program in any manner prohibited above.
 ---------------------------------------------------------------
  

 Cite this work as:
 Gaussian 09, Revision D.01,
 M. J. Frisch, G. W. Trucks, H. B. Schlegel, G. E. Scuseria, 
 M. A. Robb, J. R. Cheeseman, G. Scalmani, V. Barone, B. Mennucci, 
 G. A. Petersson, H. Nakatsuji, M. Caricato, X. Li, H. P. Hratchian, 
 A. F. Izmaylov, J. Bloino, G. Zheng, J. L. Sonnenberg, M. Hada, 
 M. Ehara, K. Toyota, R. Fukuda, J. Hasegawa, M. Ishida, T. Nakajima, 
 Y. Honda, O. Kitao, H. Nakai, T. Vreven, J. A. Montgomery, Jr., 
 J. E. Peralta, F. Ogliaro, M. Bearpark, J. J. Heyd, E. Brothers, 
 K. N. Kudin, V. N. Staroverov, T. Keith, R. Kobayashi, J. Normand, 
 K. Raghavachari, A. Rendell, J. C. Burant, S. S. Iyengar, J. Tomasi, 
 M. Cossi, N. Rega, J. M. Millam, M. Klene, J. E. Knox, J. B. Cross, 
 V. Bakken, C. Adamo, J. Jaramillo, R. Gomperts, R. E. Stratmann, 
 O. Yazyev, A. J. Austin, R. Cammi, C. Pomelli, J. W. Ochterski, 
 R. L. Martin, K. Morokuma, V. G. Zakrzewski, G. A. Voth, 
 P. Salvador, J. J. Dannenberg, S. Dapprich, A. D. Daniels, 
 O. Farkas, J. B. Foresman, J. V. Ortiz, J. Cioslowski, 
 and D. J. Fox, Gaussian, Inc., Wallingford CT, 2013.
 
 ******************************************
 Gaussian 09:  ES64L-G09RevD.01 24-Apr-2013
                28-Oct-2016 
 ******************************************
 %nprocshared=6
 Will use up to    6 processors via shared memory.
 %mem=20GB
 %chk=AT-single
 --------------------------------------------------
 #t opt freq=raman b3lyp/6-311g** geom=connectivity
 --------------------------------------------------
 -------------------
 Title Card Required
 -------------------
 Symbolic Z-matrix:
 Charge =  0 Multiplicity = 1
 N(PDBName=N9,ResName=DA,ResNum=6_A)
 C(PDBName=C8,ResName=DA,ResNum=6_A) 1    B1
 N(PDBName=N7,ResName=DA,ResNum=6_A) 2    B2       1    A1
 C(PDBName=C5,ResName=DA,ResNum=6_A) 3    B3       2    A2       1    D1       0
 C(PDBName=C6,ResName=DA,ResNum=6_A) 4    B4       3    A3       2    D2       0
 N(PDBName=N6,ResName=DA,ResNum=6_A) 5    B5       4    A4       3    D3       0
 N(PDBName=N1,ResName=DA,ResNum=6_A) 5    B6       4    A5       3    D4       0
 C(PDBName=C2,ResName=DA,ResNum=6_A) 7    B7       5    A6       4    D5       0
 N(PDBName=N3,ResName=DA,ResNum=6_A) 8    B8       7    A7       5    D6       0
 C(PDBName=C4,ResName=DA,ResNum=6_A) 9    B9       8    A8       7    D7       0
 N(PDBName=N1,ResName=DT,ResNum=19_B) 7    B10      5    A9       4    D8       0
 C(PDBName=C6,ResName=DT,ResNum=19_B) 11   B11      7    A10      5    D9       0
 C(PDBName=C5,ResName=DT,ResNum=19_B) 12   B12      11   A11      7    D10      0
 C(PDBName=C5M,ResName=DT,ResNum=19_B) 13   B13      12   A12      11   D11      0
 C(PDBName=C4,ResName=DT,ResNum=19_B) 13   B14      12   A13      11   D12      0
 O(PDBName=O4,ResName=DT,ResNum=19_B) 15   B15      13   A14      12   D13      0
 N(PDBName=N3,ResName=DT,ResNum=19_B) 15   B16      13   A15      12   D14      0
 C(PDBName=C2,ResName=DT,ResNum=19_B) 17   B17      15   A16      13   D15      0
 O(PDBName=O2,ResName=DT,ResNum=19_B) 18   B18      17   A17      15   D16      0
 H(PDBName=H8,ResName=DA,ResNum=6_A) 2    B19      1    A18      10   D17      0
 H(PDBName=H6,ResName=DA,ResNum=6_A) 6    B20      5    A19      4    D18      0
 H(PDBName=H2,ResName=DA,ResNum=6_A) 8    B21      7    A20      5    D19      0
 H(PDBName=H6,ResName=DT,ResNum=19_B) 12   B22      11   A21      7    D20      0
 H(PDBName=1H5M,ResName=DT,ResNum=19_B) 14   B23      13   A22      12   D21      0
 H(PDBName=2H5M,ResName=DT,ResNum=19_B) 14   B24      13   A23      12   D22      0
 H(PDBName=3H5M,ResName=DT,ResNum=19_B) 14   B25      13   A24      12   D23      0
 H                    17   B26      15   A25      13   D24      0
 H                    6    B27      5    A26      4    D25      0
 H                    11   B28      7    A27      5    D26      0
 H                    1    B29      2    A28      3    D27      0
       Variables:
  B1                    1.37245                  
  B2                    1.30755                  
  B3                    1.38907                  
  B4                    1.41951                  
  B5                    1.33835                  
  B6                    1.35261                  
  B7                    1.33961                  
  B8                    1.34597                  
  B9                    1.34957                  
  B10                   4.93735                  
  B11                   1.38065                  
  B12                   1.34191                  
  B13                   1.49897                  
  B14                   1.45381                  
  B15                   1.21821                  
  B16                   1.38571                  
  B17                   1.36396                  
  B18                   1.22641                  
  B19                   1.07                     
  B20                   1.                       
  B21                   1.07                     
  B22                   1.07                     
  B23                   1.07                     
  B24                   1.07                     
  B25                   1.07                     
  B26                   1.                       
  B27                   1.                       
  B28                   1.                       
  B29                   1.                       
  A1                  113.7279                   
  A2                  104.404                    
  A3                  132.389                    
  A4                  123.58868                  
  A5                  117.91514                  
  A6                  118.44572                  
  A7                  129.11796                  
  A8                  111.0025                   
  A9                  142.79204                  
  A10                 106.50158                  
  A11                 123.8389                   
  A12                 123.08587                  
  A13                 117.55745                  
  A14                 125.25185                  
  A15                 115.23165                  
  A16                 127.55572                  
  A17                 121.70934                  
  A18                 123.13605                  
  A19                 120.                       
  A20                 115.44102                  
  A21                 118.08055                  
  A22                 109.47122                  
  A23                 109.47122                  
  A24                 109.47122                  
  A25                 116.22214                  
  A26                 120.                       
  A27                 134.12819                  
  A28                 127.15317                  
  D1                   -0.21074                  
  D2                  179.47053                  
  D3                   -0.45628                  
  D4                 -179.98523                  
  D5                    0.30783                  
  D6                    0.14449                  
  D7                   -0.33563                  
  D8                 -172.45222                  
  D9                  -21.36491                  
  D10                   2.38646                  
  D11                 179.13027                  
  D12                  -0.92152                  
  D13                 179.49048                  
  D14                  -0.36514                  
  D15                   1.10756                  
  D16                 178.7873                   
  D17                -179.63576                  
  D18                  -3.10842                  
  D19                -179.85551                  
  D20                -177.61354                  
  D21                 180.                       
  D22                  60.                       
  D23                 -60.                       
  D24                -178.89244                  
  D25                 176.89158                  
  D26                 159.56427                  
  D27                -179.63576                  
 
     3 tetrahedral angles replaced.
 Add virtual bond connecting atoms H27        and N7         Dist= 3.45D+00.
 Center=      5.33308065      0.04039869     -0.42207464
 Residue   0                        charge    0.00000000 layers R        AvRTP=      0.85736953    199.20986664    129.23906772
 Residue   3                        charge    0.00000000 layers R        AvRTP=      0.00000000      0.00000000      0.00000000
 Residue   1 PDB Number     6_A DA  charge    0.00000000 layers R        AvRTP=      3.26441796    180.66304460     76.40338892
 Residue   2 PDB Number    19_B DT  charge    0.00000000 layers R        AvRTP=      3.42040242      1.76895785    100.11220336

 GradGradGradGradGradGradGradGradGradGradGradGradGradGradGradGradGradGrad
 Initialization pass.
                           ----------------------------
                           !    Initial Parameters    !
                           ! (Angstroms and Degrees)  !
 --------------------------                            --------------------------
 ! Name  Definition              Value          Derivative Info.                !
 --------------------------------------------------------------------------------
 ! R1    R(1,2)                  1.3725         estimate D2E/DX2                !
 ! R2    R(1,10)                 1.3858         estimate D2E/DX2                !
 ! R3    R(1,30)                 1.0            estimate D2E/DX2                !
 ! R4    R(2,3)                  1.3075         estimate D2E/DX2                !
 ! R5    R(2,20)                 1.07           estimate D2E/DX2                !
 ! R6    R(3,4)                  1.3891         estimate D2E/DX2                !
 ! R7    R(4,5)                  1.4195         estimate D2E/DX2                !
 ! R8    R(4,10)                 1.3833         estimate D2E/DX2                !
 ! R9    R(5,6)                  1.3384         estimate D2E/DX2                !
 ! R10   R(5,7)                  1.3526         estimate D2E/DX2                !
 ! R11   R(6,21)                 1.0            estimate D2E/DX2                !
 ! R12   R(6,28)                 1.0            estimate D2E/DX2                !
 ! R13   R(7,8)                  1.3396         estimate D2E/DX2                !
 ! R14   R(7,27)                 1.8272         estimate D2E/DX2                !
 ! R15   R(8,9)                  1.346          estimate D2E/DX2                !
 ! R16   R(8,22)                 1.07           estimate D2E/DX2                !
 ! R17   R(9,10)                 1.3496         estimate D2E/DX2                !
 ! R18   R(11,12)                1.3806         estimate D2E/DX2                !
 ! R19   R(11,18)                1.3825         estimate D2E/DX2                !
 ! R20   R(11,29)                1.0            estimate D2E/DX2                !
 ! R21   R(12,13)                1.3419         estimate D2E/DX2                !
 ! R22   R(12,23)                1.07           estimate D2E/DX2                !
 ! R23   R(13,14)                1.499          estimate D2E/DX2                !
 ! R24   R(13,15)                1.4538         estimate D2E/DX2                !
 ! R25   R(14,24)                1.07           estimate D2E/DX2                !
 ! R26   R(14,25)                1.07           estimate D2E/DX2                !
 ! R27   R(14,26)                1.07           estimate D2E/DX2                !
 ! R28   R(15,16)                1.2182         estimate D2E/DX2                !
 ! R29   R(15,17)                1.3857         estimate D2E/DX2                !
 ! R30   R(17,18)                1.364          estimate D2E/DX2                !
 ! R31   R(17,27)                1.0            estimate D2E/DX2                !
 ! R32   R(18,19)                1.2264         estimate D2E/DX2                !
 ! A1    A(2,1,10)             105.6937         estimate D2E/DX2                !
 ! A2    A(2,1,30)             127.1532         estimate D2E/DX2                !
 ! A3    A(10,1,30)            127.1532         estimate D2E/DX2                !
 ! A4    A(1,2,3)              113.7279         estimate D2E/DX2                !
 ! A5    A(1,2,20)             123.1361         estimate D2E/DX2                !
 ! A6    A(3,2,20)             123.1361         estimate D2E/DX2                !
 ! A7    A(2,3,4)              104.404          estimate D2E/DX2                !
 ! A8    A(3,4,5)              132.389          estimate D2E/DX2                !
 ! A9    A(3,4,10)             110.4747         estimate D2E/DX2                !
 ! A10   A(5,4,10)             117.1345         estimate D2E/DX2                !
 ! A11   A(4,5,6)              123.5887         estimate D2E/DX2                !
 ! A12   A(4,5,7)              117.9151         estimate D2E/DX2                !
 ! A13   A(6,5,7)              118.4946         estimate D2E/DX2                !
 ! A14   A(5,6,21)             120.0            estimate D2E/DX2                !
 ! A15   A(5,6,28)             120.0            estimate D2E/DX2                !
 ! A16   A(21,6,28)            120.0            estimate D2E/DX2                !
 ! A17   A(5,7,8)              118.4457         estimate D2E/DX2                !
 ! A18   A(5,7,27)             127.9525         estimate D2E/DX2                !
 ! A19   A(8,7,27)             113.5659         estimate D2E/DX2                !
 ! A20   A(7,8,9)              129.118          estimate D2E/DX2                !
 ! A21   A(7,8,22)             115.441          estimate D2E/DX2                !
 ! A22   A(9,8,22)             115.441          estimate D2E/DX2                !
 ! A23   A(8,9,10)             111.0025         estimate D2E/DX2                !
 ! A24   A(1,10,4)             105.6984         estimate D2E/DX2                !
 ! A25   A(1,10,9)             127.9188         estimate D2E/DX2                !
 ! A26   A(4,10,9)             126.3819         estimate D2E/DX2                !
 ! A27   A(12,11,18)           121.2714         estimate D2E/DX2                !
 ! A28   A(12,11,29)           119.3643         estimate D2E/DX2                !
 ! A29   A(18,11,29)           119.3643         estimate D2E/DX2                !
 ! A30   A(11,12,13)           123.8389         estimate D2E/DX2                !
 ! A31   A(11,12,23)           118.0805         estimate D2E/DX2                !
 ! A32   A(13,12,23)           118.0805         estimate D2E/DX2                !
 ! A33   A(12,13,14)           123.0859         estimate D2E/DX2                !
 ! A34   A(12,13,15)           117.5574         estimate D2E/DX2                !
 ! A35   A(14,13,15)           119.3567         estimate D2E/DX2                !
 ! A36   A(13,14,24)           109.4712         estimate D2E/DX2                !
 ! A37   A(13,14,25)           109.4712         estimate D2E/DX2                !
 ! A38   A(13,14,26)           109.4712         estimate D2E/DX2                !
 ! A39   A(24,14,25)           109.4712         estimate D2E/DX2                !
 ! A40   A(24,14,26)           109.4712         estimate D2E/DX2                !
 ! A41   A(25,14,26)           109.4712         estimate D2E/DX2                !
 ! A42   A(13,15,16)           125.2519         estimate D2E/DX2                !
 ! A43   A(13,15,17)           115.2316         estimate D2E/DX2                !
 ! A44   A(16,15,17)           119.5163         estimate D2E/DX2                !
 ! A45   A(15,17,18)           127.5557         estimate D2E/DX2                !
 ! A46   A(15,17,27)           116.2221         estimate D2E/DX2                !
 ! A47   A(18,17,27)           116.2221         estimate D2E/DX2                !
 ! A48   A(11,18,17)           114.5243         estimate D2E/DX2                !
 ! A49   A(11,18,19)           123.7621         estimate D2E/DX2                !
 ! A50   A(17,18,19)           121.7093         estimate D2E/DX2                !
 ! A51   L(7,27,17,19,-1)      177.8879         estimate D2E/DX2                !
 ! A52   L(7,27,17,19,-2)      177.952          estimate D2E/DX2                !
 ! D1    D(10,1,2,3)             0.3642         estimate D2E/DX2                !
 ! D2    D(10,1,2,20)         -179.6358         estimate D2E/DX2                !
 ! D3    D(30,1,2,3)          -179.6358         estimate D2E/DX2                !
 ! D4    D(30,1,2,20)            0.3642         estimate D2E/DX2                !
 ! D5    D(2,1,10,4)            -0.3491         estimate D2E/DX2                !
 ! D6    D(2,1,10,9)           179.9885         estimate D2E/DX2                !
 ! D7    D(30,1,10,4)          179.6509         estimate D2E/DX2                !
 ! D8    D(30,1,10,9)           -0.0115         estimate D2E/DX2                !
 ! D9    D(1,2,3,4)             -0.2107         estimate D2E/DX2                !
 ! D10   D(20,2,3,4)           179.7893         estimate D2E/DX2                !
 ! D11   D(2,3,4,5)            179.4705         estimate D2E/DX2                !
 ! D12   D(2,3,4,10)            -0.0276         estimate D2E/DX2                !
 ! D13   D(3,4,5,6)             -0.4563         estimate D2E/DX2                !
 ! D14   D(3,4,5,7)           -179.9852         estimate D2E/DX2                !
 ! D15   D(10,4,5,6)           179.0154         estimate D2E/DX2                !
 ! D16   D(10,4,5,7)            -0.5136         estimate D2E/DX2                !
 ! D17   D(3,4,10,1)             0.2421         estimate D2E/DX2                !
 ! D18   D(3,4,10,9)           179.9113         estimate D2E/DX2                !
 ! D19   D(5,4,10,1)          -179.3413         estimate D2E/DX2                !
 ! D20   D(5,4,10,9)             0.3279         estimate D2E/DX2                !
 ! D21   D(4,5,6,21)            -3.1084         estimate D2E/DX2                !
 ! D22   D(4,5,6,28)           176.8916         estimate D2E/DX2                !
 ! D23   D(7,5,6,21)           176.418          estimate D2E/DX2                !
 ! D24   D(7,5,6,28)            -3.582          estimate D2E/DX2                !
 ! D25   D(4,5,7,8)              0.3078         estimate D2E/DX2                !
 ! D26   D(4,5,7,27)          -177.3616         estimate D2E/DX2                !
 ! D27   D(6,5,7,8)           -179.2457         estimate D2E/DX2                !
 ! D28   D(6,5,7,27)             3.0849         estimate D2E/DX2                !
 ! D29   D(5,7,8,9)              0.1445         estimate D2E/DX2                !
 ! D30   D(5,7,8,22)          -179.8555         estimate D2E/DX2                !
 ! D31   D(27,7,8,9)           178.1398         estimate D2E/DX2                !
 ! D32   D(27,7,8,22)           -1.8602         estimate D2E/DX2                !
 ! D33   D(5,7,17,15)          -16.4534         estimate D2E/DX2                !
 ! D34   D(5,7,17,18)          164.7541         estimate D2E/DX2                !
 ! D35   D(8,7,17,15)          165.2349         estimate D2E/DX2                !
 ! D36   D(8,7,17,18)          -13.5576         estimate D2E/DX2                !
 ! D37   D(7,8,9,10)            -0.3356         estimate D2E/DX2                !
 ! D38   D(22,8,9,10)          179.6644         estimate D2E/DX2                !
 ! D39   D(8,9,10,1)           179.6728         estimate D2E/DX2                !
 ! D40   D(8,9,10,4)             0.0765         estimate D2E/DX2                !
 ! D41   D(18,11,12,13)          1.6212         estimate D2E/DX2                !
 ! D42   D(18,11,12,23)       -178.3788         estimate D2E/DX2                !
 ! D43   D(29,11,12,13)       -178.3788         estimate D2E/DX2                !
 ! D44   D(29,11,12,23)          1.6212         estimate D2E/DX2                !
 ! D45   D(12,11,18,17)         -0.872          estimate D2E/DX2                !
 ! D46   D(12,11,18,19)        179.8671         estimate D2E/DX2                !
 ! D47   D(29,11,18,17)        179.128          estimate D2E/DX2                !
 ! D48   D(29,11,18,19)         -0.1329         estimate D2E/DX2                !
 ! D49   D(11,12,13,14)        179.1303         estimate D2E/DX2                !
 ! D50   D(11,12,13,15)         -0.9215         estimate D2E/DX2                !
 ! D51   D(23,12,13,14)         -0.8697         estimate D2E/DX2                !
 ! D52   D(23,12,13,15)        179.0785         estimate D2E/DX2                !
 ! D53   D(12,13,14,24)        180.0            estimate D2E/DX2                !
 ! D54   D(12,13,14,25)         60.0            estimate D2E/DX2                !
 ! D55   D(12,13,14,26)        -60.0            estimate D2E/DX2                !
 ! D56   D(15,13,14,24)          0.0527         estimate D2E/DX2                !
 ! D57   D(15,13,14,25)       -119.9473         estimate D2E/DX2                !
 ! D58   D(15,13,14,26)        120.0527         estimate D2E/DX2                !
 ! D59   D(12,13,15,16)        179.4905         estimate D2E/DX2                !
 ! D60   D(12,13,15,17)         -0.3651         estimate D2E/DX2                !
 ! D61   D(14,13,15,16)         -0.5593         estimate D2E/DX2                !
 ! D62   D(14,13,15,17)        179.5851         estimate D2E/DX2                !
 ! D63   D(13,15,17,18)          1.1076         estimate D2E/DX2                !
 ! D64   D(13,15,17,27)       -178.8924         estimate D2E/DX2                !
 ! D65   D(16,15,17,18)       -178.7569         estimate D2E/DX2                !
 ! D66   D(16,15,17,27)          1.2431         estimate D2E/DX2                !
 ! D67   D(15,17,18,11)         -0.4904         estimate D2E/DX2                !
 ! D68   D(15,17,18,19)        178.7873         estimate D2E/DX2                !
 ! D69   D(27,17,18,11)        179.5096         estimate D2E/DX2                !
 ! D70   D(27,17,18,19)         -1.2127         estimate D2E/DX2                !
 --------------------------------------------------------------------------------
 Number of steps in this run=    164 maximum allowed number of steps=    180.
 GradGradGradGradGradGradGradGradGradGradGradGradGradGradGradGradGradGrad

                    Distance matrix (angstroms):
                    1          2          3          4          5
     1  N    0.000000
     2  C    1.372454   0.000000
     3  N    2.244447   1.307548   0.000000
     4  C    2.207154   2.131387   1.389067   0.000000
     5  C    3.540301   3.534742   2.569654   1.419509   0.000000
     6  N    4.637252   4.308637   3.097665   2.430687   1.338353
     7  N    4.049019   4.444763   3.724099   2.375361   1.352608
     8  C    3.566962   4.357314   4.022616   2.656368   2.313064
     9  N    2.457738   3.518843   3.581798   2.439214   2.836796
    10  C    1.385808   2.198415   2.277602   1.383350   2.391622
    11  N    8.821213   9.369766   8.612147   7.301322   6.069991
    12  C    9.516039   9.902107   9.006027   7.780167   6.438298
    13  C    9.094045   9.309675   8.302748   7.181388   5.781309
    14  C   10.167189  10.230905   9.127224   8.136483   6.720852
    15  C    7.686780   7.862446   6.849707   5.736807   4.332485
    16  O    7.369076   7.343157   6.222182   5.274828   3.868747
    17  N    6.860499   7.243049   6.389585   5.128636   3.823002
    18  C    7.445159   8.025359   7.320564   5.984677   4.817041
    19  O    6.954186   7.709581   7.184560   5.808430   4.853727
    20  H    2.152674   1.070000   2.093832   3.167395   4.543566
    21  H    4.746083   4.128917   2.829755   2.643251   2.032127
    22  H    4.470234   5.373136   5.091419   3.726146   3.258415
    23  H   10.579920  10.971630  10.068302   8.848908   7.502210
    24  H    9.821430   9.753439   8.589678   7.714315   6.315963
    25  H   10.777437  10.881302   9.804603   8.795888   7.399061
    26  H   10.830278  10.879814   9.762301   8.786957   7.368546
    27  H    5.867114   6.246839   5.419808   4.138290   2.865021
    28  H    5.524835   5.287201   4.093627   3.328218   2.032127
    29  H    9.419668  10.063869   9.382909   8.043326   6.879001
    30  H    1.000000   2.131059   3.199831   3.181255   4.462242
                    6          7          8          9         10
     6  N    0.000000
     7  N    2.312576   0.000000
     8  C    3.529053   1.339607   0.000000
     9  N    4.173930   2.425149   1.345966   0.000000
    10  C    3.645825   2.683933   2.221492   1.349565   0.000000
    11  N    6.199146   4.937351   5.303868   6.605256   7.440348
    12  C    6.283756   5.491458   6.120004   7.460981   8.132895
    13  C    5.395539   5.056906   5.933552   7.270538   7.738553
    14  C    6.082688   6.208905   7.213772   8.525177   8.853450
    15  C    3.971936   3.679151   4.674282   5.984023   6.347912
    16  O    3.189531   3.598425   4.801395   6.006737   6.111883
    17  N    3.901996   2.826436   3.564092   4.907698   5.481174
    18  C    5.119210   3.617871   3.926899   5.229860   6.066865
    19  O    5.449256   3.540641   3.426265   4.600475   5.621388
    20  H    5.191261   5.507031   5.414770   4.509766   3.226860
    21  H    1.000000   3.222828   4.339214   4.778709   4.001473
    22  H    4.353603   2.042291   1.070000   2.047896   3.193219
    23  H    7.306210   6.560101   7.160479   8.496511   9.195809
    24  H    5.512708   6.009611   7.136317   8.394491   8.563796
    25  H    6.811352   6.834193   7.768521   9.077295   9.460608
    26  H    6.699367   6.865322   7.867140   9.184567   9.515891
    27  H    3.126869   1.827231   2.662813   3.989263   4.491201
    28  H    1.000000   2.505333   3.837445   4.727580   4.423628
    29  H    7.105063   5.679159   5.868332   7.110763   8.055670
    30  H    5.609532   4.810533   4.108712   2.831798   2.143449
                   11         12         13         14         15
    11  N    0.000000
    12  C    1.380649   0.000000
    13  C    2.402149   1.341912   0.000000
    14  C    3.788373   2.498752   1.498970   0.000000
    15  C    2.787021   2.391526   1.453809   2.548955   0.000000
    16  O    4.002209   3.533799   2.375285   2.908553   1.218206
    17  N    2.310226   2.666104   2.398185   3.778668   1.385712
    18  C    1.382509   2.408147   2.846532   4.345449   2.466718
    19  O    2.302163   3.545569   4.072734   5.571551   3.567621
    20  H   10.434264  10.947513  10.321942  11.196358   8.870539
    21  H    7.155634   7.161857   6.190991   6.722881   4.808253
    22  H    4.665806   5.646058   5.684986   7.068913   4.598912
    23  H    2.107571   1.070000   2.073010   2.682100   3.365523
    24  H    4.514243   3.353942   2.112126   1.070000   2.581316
    25  H    4.117158   2.801115   2.112126   1.070000   3.239751
    26  H    4.109764   2.801115   2.112126   1.070000   3.240379
    27  H    3.210328   3.666012   3.298878   4.574269   2.035868
    28  H    5.493459   5.435834   4.473481   5.102385   3.087784
    29  H    1.000000   2.064031   3.286217   4.562386   3.786644
    30  H    9.407055  10.193114   9.860121  10.990871   8.482216
                   16         17         18         19         20
    16  O    0.000000
    17  N    2.251125   0.000000
    18  C    3.538650   1.363963   0.000000
    19  O    4.512647   2.263386   1.226405   0.000000
    20  H    8.294589   8.293743   9.092363   8.772568   0.000000
    21  H    3.887263   4.867814   6.107494   6.445941   4.865879
    22  H    4.988276   3.323028   3.322376   2.601372   6.417405
    23  H    4.429373   3.735573   3.359750   4.403918  12.016281
    24  H    2.456157   3.953649   4.802956   6.002270  10.673660
    25  H    3.634736   4.375704   4.812727   6.021162  11.851003
    26  H    3.631112   4.379756   4.811633   6.016796  11.839421
    27  H    2.433299   1.000000   2.016367   2.454873   7.300237
    28  H    2.234203   3.248050   4.548943   5.075581   6.186366
    29  H    5.002031   3.226600   2.065717   2.558728  11.131586
    30  H    8.242677   7.567373   8.026531   7.414535   2.563212
                   21         22         23         24         25
    21  H    0.000000
    22  H    5.240121   0.000000
    23  H    8.159961   6.638143   0.000000
    24  H    6.038897   7.148851   3.704305   0.000000
    25  H    7.451730   7.558017   2.730849   1.747303   0.000000
    26  H    7.316865   7.701740   2.740002   1.747303   1.747303
    27  H    4.121869   2.627484   4.735422   4.571253   5.195312
    28  H    1.732051   4.473947   6.430097   4.533281   5.861648
    29  H    8.075134   5.102639   2.375918   5.380920   4.786597
    30  H    5.744916   4.873579  11.246240  10.693920  11.575859
                   26         27         28         29         30
    26  H    0.000000
    27  H    5.204858   0.000000
    28  H    5.703587   2.659977   0.000000
    29  H    4.771651   4.051190   6.438669   0.000000
    30  H   11.657869   6.591362   6.473169   9.933902   0.000000
 Framework group  C1[X(C10H11N7O2)]
 Deg. of freedom    84
                         Standard orientation:                         
 ---------------------------------------------------------------------
 Center     Atomic      Atomic             Coordinates (Angstroms)
 Number     Number       Type             X           Y           Z
 ---------------------------------------------------------------------
      1          7           0       -4.966599    0.644520    0.149466
      2          6           0       -5.285490   -0.673105   -0.064551
      3          7           0       -4.243530   -1.451067   -0.201570
      4          6           0       -3.155498   -0.596789   -0.075463
      5          6           0       -1.754164   -0.819393   -0.116891
      6          7           0       -1.200929   -2.024746   -0.296459
      7          7           0       -0.938473    0.247571    0.043686
      8          6           0       -1.493204    1.451231    0.238679
      9          7           0       -2.795302    1.785296    0.306238
     10          6           0       -3.582016    0.701692    0.138281
     11          7           0        3.791958    1.647056   -0.160979
     12          6           0        4.546824    0.499650   -0.020162
     13          6           0        4.022695   -0.730586    0.091805
     14          6           0        4.859087   -1.967354    0.225082
     15          6           0        2.573643   -0.847733    0.082378
     16          8           0        1.952108   -1.892111    0.166005
     17          7           0        1.885028    0.348954   -0.035716
     18          6           0        2.410209    1.601298   -0.163049
     19          8           0        1.695672    2.590868   -0.282460
     20          1           0       -6.292827   -1.030410   -0.114609
     21          1           0       -1.781340   -2.836277   -0.363836
     22          1           0       -0.804115    2.261139    0.357446
     23          1           0        5.612171    0.597072    0.000928
     24          1           0        4.221075   -2.823160    0.298816
     25          1           0        5.463400   -1.896111    1.105212
     26          1           0        5.489822   -2.065625   -0.633648
     27          1           0        0.886979    0.287196   -0.026514
     28          1           0       -0.207148   -2.113838   -0.363254
     29          1           0        4.253562    2.528204   -0.263451
     30          1           0       -5.601394    1.405178    0.285246
 ---------------------------------------------------------------------
 Rotational constants (GHZ):      0.9354165      0.1767596      0.1495595
   408 basis functions,   696 primitive gaussians,   427 cartesian basis functions
    68 alpha electrons       68 beta electrons
       nuclear repulsion energy      1364.0804492695 Hartrees.
 NAtoms=   30 NActive=   30 NUniq=   30 SFac= 1.00D+00 NAtFMM=   60 NAOKFM=F Big=F
 ExpMin= 1.03D-01 ExpMax= 8.59D+03 ExpMxC= 1.30D+03 IAcc=1 IRadAn=         1 AccDes= 0.00D+00
 Harris functional with IExCor=  402 and IRadAn=       1 diagonalized for initial guess.
 HarFok:  IExCor=  402 AccDes= 0.00D+00 IRadAn=         1 IDoV= 1 UseB2=F ITyADJ=14
 ICtDFT=  3500011 ScaDFX=  1.000000  1.000000  1.000000  1.000000
 FoFCou: FMM=F IPFlag=           0 FMFlag=      100000 FMFlg1=           0
         NFxFlg=           0 DoJE=T BraDBF=F KetDBF=T FulRan=T
         wScrn=  0.000000 ICntrl=     500 IOpCl=  0 I1Cent=   200000004 NGrid=           0
         NMat0=    1 NMatS0=      1 NMatT0=    0 NMatD0=    1 NMtDS0=    0 NMtDT0=    0
 Petite list used in FoFCou.
 Integral accuracy reduced to 1.0D-05 until final iterations.
 Initial convergence to 1.0D-05 achieved.  Increase integral accuracy.
 SCF Done:  E(RB3LYP) =  -921.716456432     A.U. after   15 cycles
            NFock= 15  Conv=0.81D-08     -V/T= 2.0032

 **********************************************************************

            Population analysis using the SCF density.

 **********************************************************************

 Orbital symmetries:
       Occupied  (A) (A) (A) (A) (A) (A) (A) (A) (A) (A) (A) (A)
                 (A) (A) (A) (A) (A) (A) (A) (A) (A) (A) (A) (A)
                 (A) (A) (A) (A) (A) (A) (A) (A) (A) (A) (A) (A)
                 (A) (A) (A) (A) (A) (A) (A) (A) (A) (A) (A) (A)
                 (A) (A) (A) (A) (A) (A) (A) (A) (A) (A) (A) (A)
                 (A) (A) (A) (A) (A) (A) (A) (A)
       Virtual   (A) (A) (A) (A) (A) (A) (A) (A) (A) (A) (A) (A)
                 (A) (A) (A) (A) (A) (A) (A) (A) (A) (A) (A) (A)
                 (A) (A) (A) (A) (A) (A) (A) (A) (A) (A) (A) (A)
                 (A) (A) (A) (A) (A) (A) (A) (A) (A) (A) (A) (A)
                 (A) (A) (A) (A) (A) (A) (A) (A) (A) (A) (A) (A)
                 (A) (A) (A) (A) (A) (A) (A) (A) (A) (A) (A) (A)
                 (A) (A) (A) (A) (A) (A) (A) (A) (A) (A) (A) (A)
                 (A) (A) (A) (A) (A) (A) (A) (A) (A) (A) (A) (A)
                 (A) (A) (A) (A) (A) (A) (A) (A) (A) (A) (A) (A)
                 (A) (A) (A) (A) (A) (A) (A) (A) (A) (A) (A) (A)
                 (A) (A) (A) (A) (A) (A) (A) (A) (A) (A) (A) (A)
                 (A) (A) (A) (A) (A) (A) (A) (A) (A) (A) (A) (A)
                 (A) (A) (A) (A) (A) (A) (A) (A) (A) (A) (A) (A)
                 (A) (A) (A) (A) (A) (A) (A) (A) (A) (A) (A) (A)
                 (A) (A) (A) (A) (A) (A) (A) (A) (A) (A) (A) (A)
                 (A) (A) (A) (A) (A) (A) (A) (A) (A) (A) (A) (A)
                 (A) (A) (A) (A) (A) (A) (A) (A) (A) (A) (A) (A)
                 (A) (A) (A) (A) (A) (A) (A) (A) (A) (A) (A) (A)
                 (A) (A) (A) (A) (A) (A) (A) (A) (A) (A) (A) (A)
                 (A) (A) (A) (A) (A) (A) (A) (A) (A) (A) (A) (A)
                 (A) (A) (A) (A) (A) (A) (A) (A) (A) (A) (A) (A)
                 (A) (A) (A) (A) (A) (A) (A) (A) (A) (A) (A) (A)
                 (A) (A) (A) (A) (A) (A) (A) (A) (A) (A) (A) (A)
                 (A) (A) (A) (A) (A) (A) (A) (A) (A) (A) (A) (A)
                 (A) (A) (A) (A) (A) (A) (A) (A) (A) (A) (A) (A)
                 (A) (A) (A) (A) (A) (A) (A) (A) (A) (A) (A) (A)
                 (A) (A) (A) (A) (A) (A) (A) (A) (A) (A) (A) (A)
                 (A) (A) (A) (A) (A) (A) (A) (A) (A) (A) (A) (A)
                 (A) (A) (A) (A)
 The electronic state is 1-A.
 Alpha  occ. eigenvalues --  -19.09348 -19.08594 -14.37908 -14.37550 -14.34046
 Alpha  occ. eigenvalues --  -14.32648 -14.30633 -14.30416 -14.29923 -10.31156
 Alpha  occ. eigenvalues --  -10.28116 -10.26217 -10.24288 -10.24128 -10.24127
 Alpha  occ. eigenvalues --  -10.22574 -10.19602 -10.19023 -10.16792  -1.07213
 Alpha  occ. eigenvalues --   -1.04488  -1.03650  -0.98062  -0.97606  -0.93369
 Alpha  occ. eigenvalues --   -0.92301  -0.88869  -0.85943  -0.82231  -0.76557
 Alpha  occ. eigenvalues --   -0.71811  -0.68076  -0.66854  -0.66274  -0.65071
 Alpha  occ. eigenvalues --   -0.62953  -0.58393  -0.57155  -0.56973  -0.55341
 Alpha  occ. eigenvalues --   -0.52145  -0.51678  -0.49713  -0.48119  -0.47668
 Alpha  occ. eigenvalues --   -0.46614  -0.46113  -0.44591  -0.43567  -0.43529
 Alpha  occ. eigenvalues --   -0.43143  -0.41886  -0.40699  -0.40338  -0.40170
 Alpha  occ. eigenvalues --   -0.38958  -0.35718  -0.35481  -0.31818  -0.29676
 Alpha  occ. eigenvalues --   -0.29561  -0.28605  -0.27951  -0.27275  -0.26600
 Alpha  occ. eigenvalues --   -0.25513  -0.24328  -0.22057
 Alpha virt. eigenvalues --   -0.04267  -0.02209   0.00127   0.01541   0.02507
 Alpha virt. eigenvalues --    0.03613   0.03868   0.05508   0.06724   0.08165
 Alpha virt. eigenvalues --    0.09299   0.09952   0.12148   0.12644   0.14268
 Alpha virt. eigenvalues --    0.14966   0.16470   0.17016   0.18221   0.18565
 Alpha virt. eigenvalues --    0.19670   0.20109   0.21237   0.22817   0.23484
 Alpha virt. eigenvalues --    0.25383   0.25820   0.27550   0.27788   0.29272
 Alpha virt. eigenvalues --    0.29569   0.30548   0.30914   0.31653   0.31974
 Alpha virt. eigenvalues --    0.33936   0.35005   0.36466   0.36542   0.37174
 Alpha virt. eigenvalues --    0.37688   0.38388   0.38805   0.39306   0.40596
 Alpha virt. eigenvalues --    0.40970   0.41342   0.42617   0.42837   0.43855
 Alpha virt. eigenvalues --    0.45045   0.45734   0.46449   0.47988   0.48275
 Alpha virt. eigenvalues --    0.49072   0.50452   0.51711   0.52242   0.54072
 Alpha virt. eigenvalues --    0.55110   0.55356   0.56049   0.57061   0.57810
 Alpha virt. eigenvalues --    0.58615   0.58881   0.59468   0.60078   0.60650
 Alpha virt. eigenvalues --    0.61684   0.62146   0.62965   0.63477   0.63756
 Alpha virt. eigenvalues --    0.64234   0.65840   0.66347   0.66968   0.67684
 Alpha virt. eigenvalues --    0.69450   0.70268   0.70872   0.71103   0.72853
 Alpha virt. eigenvalues --    0.73474   0.74859   0.75804   0.76627   0.77992
 Alpha virt. eigenvalues --    0.79291   0.79991   0.81222   0.82070   0.84086
 Alpha virt. eigenvalues --    0.84742   0.86654   0.88901   0.89200   0.89971
 Alpha virt. eigenvalues --    0.90461   0.92876   0.93775   0.94434   0.95693
 Alpha virt. eigenvalues --    0.98029   0.99380   0.99934   1.01624   1.02072
 Alpha virt. eigenvalues --    1.03502   1.05835   1.06318   1.06732   1.07684
 Alpha virt. eigenvalues --    1.10083   1.10885   1.11594   1.13098   1.15467
 Alpha virt. eigenvalues --    1.15922   1.16467   1.17047   1.19027   1.19386
 Alpha virt. eigenvalues --    1.20134   1.21224   1.22069   1.23383   1.24246
 Alpha virt. eigenvalues --    1.26747   1.28088   1.29759   1.30598   1.31540
 Alpha virt. eigenvalues --    1.34877   1.35314   1.36067   1.37293   1.38697
 Alpha virt. eigenvalues --    1.40856   1.43208   1.45741   1.45930   1.46681
 Alpha virt. eigenvalues --    1.47967   1.49091   1.51692   1.52852   1.53955
 Alpha virt. eigenvalues --    1.57173   1.57441   1.58628   1.58744   1.59859
 Alpha virt. eigenvalues --    1.60852   1.62670   1.64547   1.64753   1.66601
 Alpha virt. eigenvalues --    1.67608   1.68075   1.68711   1.69330   1.71110
 Alpha virt. eigenvalues --    1.72164   1.72659   1.73193   1.75838   1.77886
 Alpha virt. eigenvalues --    1.78000   1.78252   1.80825   1.81157   1.82119
 Alpha virt. eigenvalues --    1.82928   1.84807   1.87499   1.89787   1.90681
 Alpha virt. eigenvalues --    1.91060   1.92557   1.95241   1.96774   1.97322
 Alpha virt. eigenvalues --    1.98920   2.00597   2.04994   2.06420   2.08530
 Alpha virt. eigenvalues --    2.09227   2.11844   2.15127   2.15187   2.15965
 Alpha virt. eigenvalues --    2.18348   2.20087   2.20148   2.21193   2.23565
 Alpha virt. eigenvalues --    2.26362   2.27272   2.28728   2.30799   2.32973
 Alpha virt. eigenvalues --    2.35822   2.37043   2.37542   2.38356   2.39822
 Alpha virt. eigenvalues --    2.41325   2.43341   2.43909   2.45585   2.45989
 Alpha virt. eigenvalues --    2.47070   2.50003   2.51062   2.51584   2.52223
 Alpha virt. eigenvalues --    2.53335   2.53896   2.54575   2.55728   2.56412
 Alpha virt. eigenvalues --    2.58617   2.60045   2.61096   2.61296   2.62303
 Alpha virt. eigenvalues --    2.62666   2.65947   2.67151   2.69513   2.70258
 Alpha virt. eigenvalues --    2.70690   2.73989   2.74209   2.74870   2.76454
 Alpha virt. eigenvalues --    2.77624   2.78284   2.79508   2.80935   2.81410
 Alpha virt. eigenvalues --    2.83116   2.83933   2.85655   2.87448   2.89035
 Alpha virt. eigenvalues --    2.89673   2.90690   2.91264   2.93213   2.93805
 Alpha virt. eigenvalues --    2.94038   2.94486   2.97472   2.97920   3.00505
 Alpha virt. eigenvalues --    3.03609   3.09437   3.15460   3.18294   3.22581
 Alpha virt. eigenvalues --    3.23877   3.25594   3.28565   3.33130   3.34792
 Alpha virt. eigenvalues --    3.37283   3.38677   3.42400   3.43322   3.46934
 Alpha virt. eigenvalues --    3.48230   3.52047   3.54153   3.59144   3.60790
 Alpha virt. eigenvalues --    3.61810   3.63183   3.63537   3.68062   3.69708
 Alpha virt. eigenvalues --    3.72366   3.72970   3.75195   3.76932   3.78914
 Alpha virt. eigenvalues --    3.80486   3.81639   3.83776   3.84372   3.84852
 Alpha virt. eigenvalues --    3.86755   3.90286   3.92672   4.06396   4.17224
 Alpha virt. eigenvalues --    4.30145   4.32237   4.40495   4.53385   4.66581
 Alpha virt. eigenvalues --    4.71334   4.79676   4.85957   4.86974   4.90188
 Alpha virt. eigenvalues --    4.91526   4.93962   4.99764   5.06951   5.10033
 Alpha virt. eigenvalues --    5.16589   5.24720   5.30320   5.32329   5.68783
 Alpha virt. eigenvalues --    5.70914  23.61527  23.69129  23.80888  23.88442
 Alpha virt. eigenvalues --   23.89303  23.93077  23.94548  23.97897  24.08137
 Alpha virt. eigenvalues --   24.18444  35.50227  35.53313  35.59620  35.64752
 Alpha virt. eigenvalues --   35.65548  35.69257  35.73456  49.99415  50.01444
          Condensed to atoms (all electrons):
 Mulliken charges:
               1
     1  N   -0.388626
     2  C    0.171595
     3  N   -0.339330
     4  C   -0.097567
     5  C    0.480075
     6  N   -0.468355
     7  N   -0.497708
     8  C    0.162424
     9  N   -0.345694
    10  C    0.359610
    11  N   -0.415842
    12  C    0.212399
    13  C   -0.342712
    14  C   -0.251514
    15  C    0.458971
    16  O   -0.392545
    17  N   -0.433455
    18  C    0.488907
    19  O   -0.377939
    20  H    0.113607
    21  H    0.239310
    22  H    0.131916
    23  H    0.118911
    24  H    0.136860
    25  H    0.122268
    26  H    0.121829
    27  H    0.297708
    28  H    0.249787
    29  H    0.247111
    30  H    0.237997
 Sum of Mulliken charges =   0.00000
 Mulliken charges with hydrogens summed into heavy atoms:
               1
     1  N   -0.150629
     2  C    0.285202
     3  N   -0.339330
     4  C   -0.097567
     5  C    0.480075
     6  N    0.020742
     7  N   -0.497708
     8  C    0.294340
     9  N   -0.345694
    10  C    0.359610
    11  N   -0.168731
    12  C    0.331310
    13  C   -0.342712
    14  C    0.129444
    15  C    0.458971
    16  O   -0.392545
    17  N   -0.135748
    18  C    0.488907
    19  O   -0.377939
 Electronic spatial extent (au):  <R**2>=           6701.9577
 Charge=              0.0000 electrons
 Dipole moment (field-independent basis, Debye):
    X=              1.7156    Y=             -0.2037    Z=             -0.1066  Tot=              1.7309
 Calling FoFJK, ICntrl=      2127 FMM=F ISym2X=0 I1Cent= 0 IOpClX= 0 NMat=1 NMatS=1 NMatT=0.

 GradGradGradGradGradGradGradGradGradGradGradGradGradGradGradGradGradGrad
 FormGI is forming the generalized inverse of G from B-inverse, IUseBI=4.
 Internal  Forces:  Max     0.033542158 RMS     0.005733210
 Step number   1 out of a maximum of  164
 All quantities printed in internal units (Hartrees-Bohrs-Radians)
 Mixed Optimization -- RFO/linear search
 Second derivative matrix not updated -- first step.
 ITU=  0
     Eigenvalues ---    0.00230   0.00730   0.00780   0.01019   0.01546
     Eigenvalues ---    0.01580   0.01631   0.01764   0.01839   0.01935
     Eigenvalues ---    0.01949   0.01972   0.02012   0.02063   0.02078
     Eigenvalues ---    0.02126   0.02198   0.02242   0.02287   0.02296
     Eigenvalues ---    0.02400   0.02432   0.02464   0.02482   0.02507
     Eigenvalues ---    0.02507   0.05815   0.07544   0.07544   0.15988
     Eigenvalues ---    0.16000   0.16000   0.16000   0.16000   0.16000
     Eigenvalues ---    0.16000   0.16000   0.16000   0.16000   0.16000
     Eigenvalues ---    0.16000   0.22362   0.22379   0.22699   0.23447
     Eigenvalues ---    0.24436   0.24556   0.24748   0.24997   0.24998
     Eigenvalues ---    0.24999   0.25000   0.25000   0.32486   0.36739
     Eigenvalues ---    0.37230   0.37230   0.37230   0.37230   0.37230
     Eigenvalues ---    0.37230   0.39886   0.41979   0.43673   0.44458
     Eigenvalues ---    0.47163   0.47571   0.47687   0.47688   0.47688
     Eigenvalues ---    0.47688   0.47688   0.48568   0.49255   0.50773
     Eigenvalues ---    0.51470   0.53770   0.54810   0.55601   0.56555
     Eigenvalues ---    0.57576   0.62229   0.92601   0.96182
 Linear search not attempted -- first point.
 Maximum step size (   0.300) exceeded in Quadratic search.
    -- Step size scaled by   0.715
 Iteration  1 RMS(Cart)=  0.22705732 RMS(Int)=  0.00991788
 Iteration  2 RMS(Cart)=  0.09926647 RMS(Int)=  0.00127153
 Iteration  3 RMS(Cart)=  0.00311249 RMS(Int)=  0.00059569
 Iteration  4 RMS(Cart)=  0.00000090 RMS(Int)=  0.00059569
 Variable       Old X    -DE/DX   Delta X   Delta X   Delta X     New X
                                 (Linear)    (Quad)   (Total)
    R1        2.59356   0.00672   0.00000   0.00895   0.00895   2.60252
    R2        2.61880  -0.00763   0.00000  -0.01117  -0.01116   2.60764
    R3        1.88973   0.00672   0.00000   0.00969   0.00969   1.89942
    R4        2.47091  -0.00091   0.00000  -0.00091  -0.00091   2.46999
    R5        2.02201   0.00731   0.00000   0.01336   0.01336   2.03536
    R6        2.62496  -0.00165   0.00000  -0.00209  -0.00210   2.62286
    R7        2.68248  -0.00912   0.00000  -0.01434  -0.01434   2.66814
    R8        2.61415   0.00772   0.00000   0.01124   0.01126   2.62541
    R9        2.52912   0.00524   0.00000   0.00630   0.00630   2.53542
   R10        2.55606  -0.00344   0.00000  -0.00429  -0.00430   2.55176
   R11        1.88973   0.00525   0.00000   0.00757   0.00757   1.89729
   R12        1.88973   0.01272   0.00000   0.01835   0.01835   1.90807
   R13        2.53149   0.00503   0.00000   0.00590   0.00588   2.53737
   R14        3.45297   0.00219   0.00000   0.02023   0.02022   3.47318
   R15        2.54351  -0.01308   0.00000  -0.01644  -0.01644   2.52707
   R16        2.02201   0.01098   0.00000   0.02007   0.02007   2.04207
   R17        2.55031  -0.00801   0.00000  -0.01012  -0.01010   2.54021
   R18        2.60905  -0.00191   0.00000  -0.00324  -0.00324   2.60581
   R19        2.61256   0.00427   0.00000   0.00561   0.00563   2.61819
   R20        1.88973   0.00673   0.00000   0.00970   0.00970   1.89942
   R21        2.53585   0.01021   0.00000   0.01230   0.01229   2.54813
   R22        2.02201   0.01023   0.00000   0.01868   0.01868   2.04069
   R23        2.83264   0.00834   0.00000   0.01734   0.01734   2.84998
   R24        2.74730   0.00896   0.00000   0.01669   0.01667   2.76397
   R25        2.02201   0.01300   0.00000   0.02375   0.02375   2.04575
   R26        2.02201   0.01581   0.00000   0.02889   0.02889   2.05090
   R27        2.02201   0.01577   0.00000   0.02881   0.02881   2.05082
   R28        2.30208   0.01546   0.00000   0.01127   0.01127   2.31335
   R29        2.61862   0.00751   0.00000   0.01131   0.01130   2.62992
   R30        2.57752   0.01225   0.00000   0.01637   0.01639   2.59390
   R31        1.88973   0.03354   0.00000   0.04837   0.04838   1.93811
   R32        2.31757  -0.01190   0.00000  -0.00901  -0.00901   2.30856
    A1        1.84470   0.00513   0.00000   0.01419   0.01421   1.85891
    A2        2.21924  -0.00027   0.00000   0.00206   0.00205   2.22129
    A3        2.21924  -0.00486   0.00000  -0.01625  -0.01626   2.20298
    A4        1.98493  -0.00096   0.00000  -0.00330  -0.00331   1.98162
    A5        2.14913  -0.00281   0.00000  -0.01147  -0.01147   2.13766
    A6        2.14913   0.00377   0.00000   0.01478   0.01478   2.16391
    A7        1.82219  -0.00370   0.00000  -0.00907  -0.00910   1.81309
    A8        2.31062  -0.00135   0.00000  -0.00433  -0.00432   2.30631
    A9        1.92815   0.00627   0.00000   0.01664   0.01663   1.94477
   A10        2.04438  -0.00492   0.00000  -0.01236  -0.01238   2.03201
   A11        2.15703  -0.00031   0.00000  -0.00122  -0.00121   2.15582
   A12        2.05801  -0.00167   0.00000  -0.00368  -0.00374   2.05427
   A13        2.06812   0.00198   0.00000   0.00485   0.00488   2.07300
   A14        2.09440  -0.00076   0.00000  -0.00303  -0.00333   2.09107
   A15        2.09440  -0.00035   0.00000  -0.00141  -0.00171   2.09269
   A16        2.09440   0.00111   0.00000   0.00443   0.00413   2.09853
   A17        2.06727   0.00566   0.00000   0.01668   0.01675   2.08402
   A18        2.23319  -0.00963   0.00000  -0.03563  -0.03563   2.19757
   A19        1.98210   0.00394   0.00000   0.01854   0.01850   2.00060
   A20        2.25353  -0.00468   0.00000  -0.01491  -0.01497   2.23856
   A21        2.01483   0.00072   0.00000   0.00098   0.00096   2.01579
   A22        2.01483   0.00396   0.00000   0.01393   0.01391   2.02874
   A23        1.93736   0.00052   0.00000   0.00030   0.00030   1.93766
   A24        1.84478  -0.00673   0.00000  -0.01841  -0.01840   1.82638
   A25        2.23260   0.00165   0.00000   0.00451   0.00450   2.23710
   A26        2.20578   0.00508   0.00000   0.01391   0.01392   2.21970
   A27        2.11659   0.00790   0.00000   0.02123   0.02126   2.13785
   A28        2.08330   0.00161   0.00000   0.01159   0.01157   2.09487
   A29        2.08330  -0.00952   0.00000  -0.03282  -0.03284   2.05046
   A30        2.16140  -0.00210   0.00000  -0.00806  -0.00807   2.15333
   A31        2.06089  -0.00725   0.00000  -0.02910  -0.02910   2.03180
   A32        2.06089   0.00935   0.00000   0.03716   0.03717   2.09806
   A33        2.14825   0.00151   0.00000   0.00391   0.00393   2.15218
   A34        2.05176  -0.00052   0.00000  -0.00118  -0.00121   2.05056
   A35        2.08317  -0.00099   0.00000  -0.00273  -0.00272   2.08045
   A36        1.91063  -0.00124   0.00000  -0.00670  -0.00667   1.90396
   A37        1.91063   0.00564   0.00000   0.02339   0.02322   1.93385
   A38        1.91063   0.00543   0.00000   0.02254   0.02236   1.93300
   A39        1.91063  -0.00281   0.00000  -0.01292  -0.01289   1.89774
   A40        1.91063  -0.00273   0.00000  -0.01269  -0.01266   1.89797
   A41        1.91063  -0.00430   0.00000  -0.01362  -0.01398   1.89666
   A42        2.18606  -0.00282   0.00000  -0.00830  -0.00833   2.17773
   A43        2.01117  -0.00072   0.00000  -0.00031  -0.00036   2.01081
   A44        2.08595   0.00353   0.00000   0.00858   0.00855   2.09451
   A45        2.22627   0.00085   0.00000   0.00362   0.00363   2.22990
   A46        2.02846  -0.00415   0.00000  -0.01666  -0.01667   2.01179
   A47        2.02846   0.00329   0.00000   0.01304   0.01304   2.04150
   A48        1.99883  -0.00541   0.00000  -0.01517  -0.01518   1.98364
   A49        2.16006  -0.00697   0.00000  -0.01803  -0.01812   2.14194
   A50        2.12423   0.01240   0.00000   0.03344   0.03335   2.15757
   A51        3.10473   0.01058   0.00000   0.25581   0.25621   3.36094
   A52        3.10585   0.00206   0.00000   0.05526   0.05476   3.16061
    D1        0.00636  -0.00032   0.00000  -0.00597  -0.00600   0.00036
    D2       -3.13524  -0.00022   0.00000  -0.00406  -0.00415  -3.13938
    D3       -3.13524  -0.00010   0.00000  -0.00221  -0.00213  -3.13736
    D4        0.00636  -0.00001   0.00000  -0.00030  -0.00028   0.00608
    D5       -0.00609   0.00045   0.00000   0.00764   0.00765   0.00156
    D6        3.14139   0.00024   0.00000   0.00412   0.00433  -3.13746
    D7        3.13550   0.00023   0.00000   0.00388   0.00383   3.13933
    D8       -0.00020   0.00002   0.00000   0.00036   0.00051   0.00031
    D9       -0.00368   0.00010   0.00000   0.00168   0.00158  -0.00210
   D10        3.13791   0.00000   0.00000  -0.00024  -0.00030   3.13761
   D11        3.13235  -0.00022   0.00000  -0.00360  -0.00368   3.12867
   D12       -0.00048   0.00021   0.00000   0.00348   0.00360   0.00312
   D13       -0.00796  -0.00051   0.00000  -0.00881  -0.00908  -0.01704
   D14       -3.14133  -0.00009   0.00000  -0.00142  -0.00178   3.14007
   D15        3.12441  -0.00092   0.00000  -0.01615  -0.01654   3.10787
   D16       -0.00896  -0.00049   0.00000  -0.00876  -0.00924  -0.01821
   D17        0.00423  -0.00041   0.00000  -0.00708  -0.00716  -0.00294
   D18        3.14004  -0.00022   0.00000  -0.00367  -0.00393   3.13611
   D19       -3.13010  -0.00007   0.00000  -0.00122  -0.00115  -3.13124
   D20        0.00572   0.00012   0.00000   0.00219   0.00209   0.00781
   D21       -0.05425   0.00113   0.00000   0.01841   0.01839  -0.03587
   D22        3.08734   0.00396   0.00000   0.06402   0.06399  -3.13186
   D23        3.07907   0.00069   0.00000   0.01094   0.01098   3.09006
   D24       -0.06252   0.00352   0.00000   0.05656   0.05658  -0.00594
   D25        0.00537   0.00059   0.00000   0.00978   0.01093   0.01630
   D26       -3.09554   0.00123   0.00000   0.02267   0.02102  -3.07452
   D27       -3.12843   0.00101   0.00000   0.01681   0.01790  -3.11053
   D28        0.05384   0.00165   0.00000   0.02970   0.02799   0.08183
   D29        0.00252  -0.00025   0.00000  -0.00427  -0.00540  -0.00288
   D30       -3.13907   0.00073   0.00000   0.01125   0.01028  -3.12879
   D31        3.10913  -0.00112   0.00000  -0.01661  -0.01564   3.09348
   D32       -0.03247  -0.00014   0.00000  -0.00110   0.00004  -0.03243
   D33       -0.28717   0.00328   0.00000   0.10416   0.09999  -0.18718
   D34        2.87550   0.00199   0.00000   0.07235   0.07078   2.94628
   D35        2.88389   0.00346   0.00000   0.10790   0.10922   2.99311
   D36       -0.23663   0.00216   0.00000   0.07609   0.08001  -0.15662
   D37       -0.00586  -0.00014   0.00000  -0.00234  -0.00190  -0.00775
   D38        3.13573  -0.00112   0.00000  -0.01785  -0.01768   3.11806
   D39        3.13588   0.00043   0.00000   0.00736   0.00738  -3.13992
   D40        0.00134   0.00022   0.00000   0.00326   0.00346   0.00480
   D41        0.02830  -0.00048   0.00000  -0.00863  -0.00852   0.01978
   D42       -3.11330  -0.00042   0.00000  -0.00803  -0.00810  -3.12140
   D43       -3.11330  -0.00055   0.00000  -0.00918  -0.00892  -3.12222
   D44        0.02830  -0.00049   0.00000  -0.00858  -0.00850   0.01979
   D45       -0.01522   0.00043   0.00000   0.00845   0.00861  -0.00661
   D46        3.13927  -0.00085   0.00000  -0.01323  -0.01274   3.12654
   D47        3.12637   0.00050   0.00000   0.00900   0.00900   3.13537
   D48       -0.00232  -0.00078   0.00000  -0.01269  -0.01234  -0.01466
   D49        3.12641   0.00021   0.00000   0.00248   0.00231   3.12873
   D50       -0.01608   0.00034   0.00000   0.00521   0.00506  -0.01102
   D51       -0.01518   0.00015   0.00000   0.00189   0.00188  -0.01330
   D52        3.12551   0.00028   0.00000   0.00461   0.00463   3.13014
   D53        3.14159   0.00008   0.00000   0.00141   0.00142  -3.14018
   D54        1.04720   0.00082   0.00000   0.00701   0.00718   1.05438
   D55       -1.04720  -0.00070   0.00000  -0.00444  -0.00459  -1.05178
   D56        0.00092  -0.00006   0.00000  -0.00137  -0.00138  -0.00046
   D57       -2.09348   0.00068   0.00000   0.00424   0.00438  -2.08909
   D58        2.09531  -0.00083   0.00000  -0.00721  -0.00738   2.08794
   D59        3.13270  -0.00086   0.00000  -0.01764  -0.01763   3.11507
   D60       -0.00637  -0.00005   0.00000  -0.00200  -0.00224  -0.00861
   D61       -0.00976  -0.00073   0.00000  -0.01501  -0.01499  -0.02476
   D62        3.13435   0.00008   0.00000   0.00063   0.00039   3.13474
   D63        0.01933   0.00006   0.00000   0.00300   0.00361   0.02294
   D64       -3.12226   0.00032   0.00000   0.00548   0.00507  -3.11719
   D65       -3.11990   0.00083   0.00000   0.01770   0.01823  -3.10167
   D66        0.02170   0.00109   0.00000   0.02019   0.01969   0.04139
   D67       -0.00856  -0.00032   0.00000  -0.00628  -0.00675  -0.01531
   D68        3.12043   0.00078   0.00000   0.01450   0.01438   3.13481
   D69        3.13303  -0.00058   0.00000  -0.00876  -0.00824   3.12480
   D70       -0.02117   0.00052   0.00000   0.01202   0.01290  -0.00827
         Item               Value     Threshold  Converged?
 Maximum Force            0.033542     0.000450     NO 
 RMS     Force            0.005733     0.000300     NO 
 Maximum Displacement     0.989313     0.001800     NO 
 RMS     Displacement     0.319414     0.001200     NO 
 GradGradGradGradGradGradGradGradGradGradGradGradGradGradGradGradGradGrad

                    Distance matrix (angstroms):
                    1          2          3          4          5
     1  N    0.000000
     2  C    1.377193   0.000000
     3  N    2.245628   1.307064   0.000000
     4  C    2.191722   2.122589   1.387956   0.000000
     5  C    3.515319   3.518448   2.559238   1.411921   0.000000
     6  N    4.617181   4.294071   3.085443   2.426074   1.341689
     7  N    4.015610   4.423931   3.711554   2.364208   1.350331
     8  C    3.550804   4.357060   4.032720   2.667214   2.325235
     9  N    2.450312   3.524413   3.594558   2.448319   2.836605
    10  C    1.379904   2.209243   2.294666   1.389308   2.381101
    11  N    9.042654   9.461490   8.592767   7.354885   6.037062
    12  C    9.517071   9.751309   8.748310   7.630624   6.238232
    13  C    8.864763   8.934977   7.842072   6.843246   5.431355
    14  C    9.738144   9.619537   8.429348   7.612941   6.229322
    15  C    7.403582   7.484264   6.416007   5.385444   3.973963
    16  O    6.833700   6.718585   5.557645   4.700332   3.322947
    17  N    6.861909   7.189297   6.291489   5.071967   3.734147
    18  C    7.723764   8.221043   7.435455   6.142967   4.895657
    19  O    7.535233   8.220550   7.604727   6.246367   5.170389
    20  H    2.156338   1.077068   2.107666   3.169691   4.540102
    21  H    4.726841   4.111309   2.812965   2.638530   2.036527
    22  H    4.471551   5.387461   5.112589   3.747132   3.276431
    23  H   10.596141  10.815347   9.792936   8.696704   7.298850
    24  H    9.213441   8.965277   7.730287   7.045033   5.715125
    25  H   10.413148  10.311875   9.133626   8.313499   6.939519
    26  H   10.402982  10.260426   9.057965   8.270907   6.896932
    27  H    5.847503   6.226789   5.396217   4.123986   2.848283
    28  H    5.511725   5.282398   4.091920   3.331896   2.042142
    29  H    9.766435  10.270443   9.459312   8.185677   6.909616
    30  H    1.005130   2.140910   3.206572   3.170211   4.439972
                    6          7          8          9         10
     6  N    0.000000
     7  N    2.316827   0.000000
     8  C    3.542949   1.342720   0.000000
     9  N    4.176586   2.411415   1.337265   0.000000
    10  C    3.641412   2.658458   2.210147   1.344221   0.000000
    11  N    5.943633   5.065859   5.658539   6.988679   7.665972
    12  C    5.845072   5.507695   6.349444   7.681559   8.165701
    13  C    4.821405   4.950683   6.001248   7.287994   7.564745
    14  C    5.345418   6.018800   7.190465   8.417273   8.514283
    15  C    3.453928   3.519674   4.640516   5.892664   6.110492
    16  O    2.488907   3.294855   4.583793   5.691676   5.641416
    17  N    3.702196   2.847629   3.692288   5.015974   5.500207
    18  C    5.028213   3.805541   4.293244   5.617061   6.345486
    19  O    5.592152   3.911549   4.003892   5.242512   6.179874
    20  H    5.192530   5.495474   5.417957   4.514353   3.239081
    21  H    1.004005   3.228513   4.355548   4.783933   4.000867
    22  H    4.370473   2.054209   1.080618   2.057611   3.197295
    23  H    6.846216   6.587349   7.416293   8.750602   9.245473
    24  H    4.680390   5.730222   6.989943   8.132063   8.065948
    25  H    6.080180   6.689874   7.817253   9.051335   9.185783
    26  H    5.988561   6.700712   7.867900   9.096244   9.187475
    27  H    3.091910   1.837930   2.690267   4.002823   4.480917
    28  H    1.009708   2.514020   3.851008   4.731641   4.422957
    29  H    6.898872   5.857008   6.298701   7.604037   8.389082
    30  H    5.593243   4.776102   4.085150   2.815440   2.133913
                   11         12         13         14         15
    11  N    0.000000
    12  C    1.378935   0.000000
    13  C    2.401147   1.348414   0.000000
    14  C    3.799036   2.515225   1.508146   0.000000
    15  C    2.785981   2.403777   1.462630   2.562450   0.000000
    16  O    4.007476   3.548670   2.383343   2.913402   1.224173
    17  N    2.308622   2.678573   2.410432   3.797966   1.391693
    18  C    1.385486   2.423526   2.865369   4.373419   2.482072
    19  O    2.289529   3.544668   4.086947   5.595033   3.591842
    20  H   10.520942  10.777129   9.920591  10.535549   8.480591
    21  H    6.850711   6.639047   5.520551   5.826750   4.246060
    22  H    5.168490   6.050864   5.932821   7.255444   4.709688
    23  H    2.095817   1.079887   2.109443   2.739668   3.400721
    24  H    4.525722   3.375827   2.124697   1.082566   2.588227
    25  H    4.159594   2.847549   2.148228   1.085287   3.277191
    26  H    4.151871   2.845878   2.147590   1.085245   3.276241
    27  H    3.239647   3.703865   3.328653   4.604964   2.051129
    28  H    5.121399   4.902460   3.830166   4.343524   2.506130
    29  H    1.005131   2.073382   3.296761   4.587962   3.791050
    30  H    9.707992  10.275051   9.698193  10.633471   8.244135
                   16         17         18         19         20
    16  O    0.000000
    17  N    2.267026   0.000000
    18  C    3.562495   1.372634   0.000000
    19  O    4.553712   2.287667   1.221639   0.000000
    20  H    7.657687   8.240980   9.290647   9.295163   0.000000
    21  H    3.146297   4.654629   5.997528   6.592096   4.865056
    22  H    4.926085   3.533759   3.788593   3.245954   6.434094
    23  H    4.470988   3.756445   3.367422   4.383320  11.834890
    24  H    2.447468   3.967168   4.828581   6.029165   9.829433
    25  H    3.660250   4.422218   4.871239   6.070207  11.226029
    26  H    3.647250   4.424694   4.867575   6.067792  11.162508
    27  H    2.445602   1.025602   2.052528   2.516286   7.288960
    28  H    1.484992   2.986112   4.350947   5.083572   6.197735
    29  H    5.012340   3.221566   2.053089   2.513467  11.338218
    30  H    7.744316   7.600313   8.356978   8.044665   2.566558
                   21         22         23         24         25
    21  H    0.000000
    22  H    5.261188   0.000000
    23  H    7.596952   7.079510   0.000000
    24  H    5.023924   7.214427   3.769938   0.000000
    25  H    6.546650   7.831461   2.815416   1.761941   0.000000
    26  H    6.431262   7.915226   2.820809   1.762052   1.763431
    27  H    4.090607   2.666334   4.781849   4.587371   5.251927
    28  H    1.746005   4.485601   5.879401   3.721471   5.094977
    29  H    7.821884   5.676678   2.364358   5.407012   4.843734
    30  H    5.730621   4.866592  11.354514  10.147344  11.295320
                   26         27         28         29         30
    26  H    0.000000
    27  H    5.261373   0.000000
    28  H    4.999927   2.611559   0.000000
    29  H    4.830699   4.074290   6.102735   0.000000
    30  H   11.302950   6.575790   6.462540  10.374450   0.000000
 Framework group  C1[X(C10H11N7O2)]
 Deg. of freedom    84
                         Standard orientation:                         
 ---------------------------------------------------------------------
 Center     Atomic      Atomic             Coordinates (Angstroms)
 Number     Number       Type             X           Y           Z
 ---------------------------------------------------------------------
      1          7           0       -4.966447    0.493201    0.041306
      2          6           0       -5.154840   -0.862676   -0.109580
      3          7           0       -4.039248   -1.540649   -0.174578
      4          6           0       -3.052983   -0.570568   -0.062118
      5          6           0       -1.643388   -0.650058   -0.046494
      6          7           0       -0.965454   -1.804832   -0.130344
      7          7           0       -0.951009    0.502625    0.077310
      8          6           0       -1.617237    1.662095    0.198414
      9          7           0       -2.939754    1.859612    0.212958
     10          6           0       -3.602267    0.698139    0.075167
     11          7           0        4.027094    1.420249   -0.121131
     12          6           0        4.543964    0.144932   -0.032382
     13          6           0        3.778116   -0.961624    0.052652
     14          6           0        4.344828   -2.356905    0.133483
     15          6           0        2.326958   -0.779110    0.063393
     16          8           0        1.509151   -1.688870    0.109532
     17          7           0        1.895124    0.542062   -0.006126
     18          6           0        2.665094    1.673891   -0.107282
     19          8           0        2.202926    2.802980   -0.170214
     20          1           0       -6.133972   -1.307515   -0.168697
     21          1           0       -1.464917   -2.674483   -0.178002
     22          1           0       -1.001230    2.546091    0.281018
     23          1           0        5.620649    0.061837   -0.033092
     24          1           0        3.529939   -3.067159    0.192178
     25          1           0        4.968974   -2.468970    1.014240
     26          1           0        4.940595   -2.581485   -0.745370
     27          1           0        0.878283    0.672411    0.023930
     28          1           0        0.043929   -1.798894   -0.105462
     29          1           0        4.645059    2.209124   -0.199133
     30          1           0       -5.675524    1.201602    0.116569
 ---------------------------------------------------------------------
 Rotational constants (GHZ):      0.8921364      0.1835636      0.1527280
   408 basis functions,   696 primitive gaussians,   427 cartesian basis functions
    68 alpha electrons       68 beta electrons
       nuclear repulsion energy      1371.1337814176 Hartrees.
 NAtoms=   30 NActive=   30 NUniq=   30 SFac= 1.00D+00 NAtFMM=   60 NAOKFM=F Big=F
 Initial guess from the checkpoint file:  "AT-single.chk"
 B after Tr=     0.000000    0.000000    0.000000
         Rot=    0.999897   -0.001750    0.002998    0.013895 Ang=  -1.64 deg.
 ExpMin= 1.03D-01 ExpMax= 8.59D+03 ExpMxC= 1.30D+03 IAcc=1 IRadAn=         1 AccDes= 0.00D+00
 Harris functional with IExCor=  402 and IRadAn=       1 diagonalized for initial guess.
 HarFok:  IExCor=  402 AccDes= 0.00D+00 IRadAn=         1 IDoV= 1 UseB2=F ITyADJ=14
 ICtDFT=  3500011 ScaDFX=  1.000000  1.000000  1.000000  1.000000
 FoFCou: FMM=F IPFlag=           0 FMFlag=      100000 FMFlg1=           0
         NFxFlg=           0 DoJE=T BraDBF=F KetDBF=T FulRan=T
         wScrn=  0.000000 ICntrl=     500 IOpCl=  0 I1Cent=   200000004 NGrid=           0
         NMat0=    1 NMatS0=      1 NMatT0=    0 NMatD0=    1 NMtDS0=    0 NMtDT0=    0
 Petite list used in FoFCou.
 Integral accuracy reduced to 1.0D-05 until final iterations.
 Initial convergence to 1.0D-05 achieved.  Increase integral accuracy.
 SCF Done:  E(RB3LYP) =  -921.713707799     A.U. after   15 cycles
            NFock= 15  Conv=0.36D-08     -V/T= 2.0033
 Calling FoFJK, ICntrl=      2127 FMM=F ISym2X=0 I1Cent= 0 IOpClX= 0 NMat=1 NMatS=1 NMatT=0.

 GradGradGradGradGradGradGradGradGradGradGradGradGradGradGradGradGradGrad
 Using GEDIIS/GDIIS optimizer.
 FormGI is forming the generalized inverse of G from B-inverse, IUseBI=4.
 GSVD:  received Info=                   1 from GESDD.
 Internal  Forces:  Max     0.145989790 RMS     0.018352762
 Step number   2 out of a maximum of  164
 All quantities printed in internal units (Hartrees-Bohrs-Radians)
 Mixed Optimization -- RFO/linear search
 Trust test=-2.70D-01 RLast= 3.70D-01 DXMaxT set to 1.50D-01
 ITU= -1  0
 Use linear search instead of GDIIS.
 Energy rises -- skip Quadratic/GDIIS search.
 Quartic linear search produced a step of -0.44923.
 Iteration  1 RMS(Cart)=  0.14510551 RMS(Int)=  0.00269946
 Iteration  2 RMS(Cart)=  0.00727838 RMS(Int)=  0.00014450
 Iteration  3 RMS(Cart)=  0.00000754 RMS(Int)=  0.00014449
 Iteration  4 RMS(Cart)=  0.00000000 RMS(Int)=  0.00014449
 Variable       Old X    -DE/DX   Delta X   Delta X   Delta X     New X
                                 (Linear)    (Quad)   (Total)
    R1        2.60252   0.00017  -0.00402   0.00000  -0.00402   2.59849
    R2        2.60764  -0.00231   0.00501   0.00000   0.00501   2.61265
    R3        1.89942   0.00228  -0.00436   0.00000  -0.00436   1.89507
    R4        2.46999   0.00044   0.00041   0.00000   0.00041   2.47041
    R5        2.03536   0.00218  -0.00600   0.00000  -0.00600   2.02936
    R6        2.62286  -0.00142   0.00094   0.00000   0.00095   2.62380
    R7        2.66814   0.00461   0.00644   0.00000   0.00644   2.67459
    R8        2.62541  -0.00124  -0.00506   0.00000  -0.00506   2.62035
    R9        2.53542  -0.01973  -0.00283   0.00000  -0.00283   2.53259
   R10        2.55176   0.02948   0.00193   0.00000   0.00194   2.55369
   R11        1.89729   0.00222  -0.00340   0.00000  -0.00340   1.89389
   R12        1.90807   0.00581  -0.00824   0.00000  -0.00824   1.89983
   R13        2.53737   0.00668  -0.00264   0.00000  -0.00264   2.53473
   R14        3.47318   0.03226  -0.00908   0.00000  -0.00908   3.46411
   R15        2.52707  -0.00812   0.00739   0.00000   0.00739   2.53445
   R16        2.04207   0.00381  -0.00901   0.00000  -0.00901   2.03306
   R17        2.54021  -0.01223   0.00454   0.00000   0.00453   2.54474
   R18        2.60581  -0.01239   0.00146   0.00000   0.00145   2.60726
   R19        2.61819   0.00160  -0.00253   0.00000  -0.00253   2.61566
   R20        1.89942   0.00262  -0.00436   0.00000  -0.00436   1.89507
   R21        2.54813  -0.00259  -0.00552   0.00000  -0.00552   2.54262
   R22        2.04069   0.00283  -0.00839   0.00000  -0.00839   2.03230
   R23        2.84998   0.00086  -0.00779   0.00000  -0.00779   2.84219
   R24        2.76397   0.00275  -0.00749   0.00000  -0.00748   2.75649
   R25        2.04575   0.00435  -0.01067   0.00000  -0.01067   2.03509
   R26        2.05090   0.00514  -0.01298   0.00000  -0.01298   2.03792
   R27        2.05082   0.00513  -0.01294   0.00000  -0.01294   2.03787
   R28        2.31335  -0.00977  -0.00506   0.00000  -0.00506   2.30829
   R29        2.62992   0.01536  -0.00508   0.00000  -0.00508   2.62484
   R30        2.59390   0.01101  -0.00736   0.00000  -0.00736   2.58654
   R31        1.93811   0.04585  -0.02173   0.00000  -0.02174   1.91637
   R32        2.30856  -0.01132   0.00405   0.00000   0.00405   2.31261
    A1        1.85891  -0.00004  -0.00638   0.00000  -0.00638   1.85252
    A2        2.22129   0.00092  -0.00092   0.00000  -0.00092   2.22037
    A3        2.20298  -0.00088   0.00730   0.00000   0.00731   2.21029
    A4        1.98162  -0.00216   0.00149   0.00000   0.00149   1.98311
    A5        2.13766  -0.00113   0.00515   0.00000   0.00515   2.14281
    A6        2.16391   0.00329  -0.00664   0.00000  -0.00664   2.15727
    A7        1.81309   0.00230   0.00409   0.00000   0.00410   1.81719
    A8        2.30631  -0.00573   0.00194   0.00000   0.00194   2.30824
    A9        1.94477  -0.00226  -0.00747   0.00000  -0.00746   1.93731
   A10        2.03201   0.00800   0.00556   0.00000   0.00556   2.03757
   A11        2.15582  -0.03336   0.00054   0.00000   0.00054   2.15636
   A12        2.05427  -0.00395   0.00168   0.00000   0.00169   2.05596
   A13        2.07300   0.03733  -0.00219   0.00000  -0.00219   2.07080
   A14        2.09107  -0.00539   0.00150   0.00000   0.00157   2.09264
   A15        2.09269   0.00140   0.00077   0.00000   0.00084   2.09353
   A16        2.09853   0.00395  -0.00186   0.00000  -0.00178   2.09675
   A17        2.08402  -0.01912  -0.00752   0.00000  -0.00754   2.07648
   A18        2.19757   0.07512   0.01600   0.00000   0.01600   2.21357
   A19        2.00060  -0.05596  -0.00831   0.00000  -0.00831   1.99229
   A20        2.23856   0.01566   0.00673   0.00000   0.00674   2.24530
   A21        2.01579  -0.00821  -0.00043   0.00000  -0.00043   2.01536
   A22        2.02874  -0.00743  -0.00625   0.00000  -0.00625   2.02249
   A23        1.93766   0.00154  -0.00013   0.00000  -0.00013   1.93752
   A24        1.82638   0.00216   0.00827   0.00000   0.00827   1.83465
   A25        2.23710  -0.00004  -0.00202   0.00000  -0.00202   2.23508
   A26        2.21970  -0.00213  -0.00625   0.00000  -0.00625   2.21345
   A27        2.13785   0.00387  -0.00955   0.00000  -0.00956   2.12829
   A28        2.09487   0.00122  -0.00520   0.00000  -0.00520   2.08968
   A29        2.05046  -0.00509   0.01475   0.00000   0.01476   2.06522
   A30        2.15333  -0.00443   0.00363   0.00000   0.00363   2.15695
   A31        2.03180  -0.00141   0.01307   0.00000   0.01307   2.04487
   A32        2.09806   0.00584  -0.01670   0.00000  -0.01670   2.08136
   A33        2.15218  -0.00259  -0.00176   0.00000  -0.00177   2.15041
   A34        2.05056   0.00621   0.00054   0.00000   0.00055   2.05111
   A35        2.08045  -0.00362   0.00122   0.00000   0.00122   2.08167
   A36        1.90396   0.00008   0.00300   0.00000   0.00299   1.90695
   A37        1.93385   0.00213  -0.01043   0.00000  -0.01039   1.92346
   A38        1.93300   0.00210  -0.01005   0.00000  -0.01000   1.92299
   A39        1.89774  -0.00133   0.00579   0.00000   0.00578   1.90353
   A40        1.89797  -0.00134   0.00569   0.00000   0.00568   1.90365
   A41        1.89666  -0.00176   0.00628   0.00000   0.00637   1.90302
   A42        2.17773  -0.03240   0.00374   0.00000   0.00375   2.18148
   A43        2.01081   0.00580   0.00016   0.00000   0.00018   2.01099
   A44        2.09451   0.02664  -0.00384   0.00000  -0.00384   2.09067
   A45        2.22990  -0.02323  -0.00163   0.00000  -0.00164   2.22826
   A46        2.01179   0.08060   0.00749   0.00000   0.00749   2.01928
   A47        2.04150  -0.05737  -0.00586   0.00000  -0.00585   2.03564
   A48        1.98364   0.01179   0.00682   0.00000   0.00683   1.99047
   A49        2.14194  -0.00753   0.00814   0.00000   0.00816   2.15010
   A50        2.15757  -0.00426  -0.01498   0.00000  -0.01496   2.14262
   A51        3.36094  -0.14599  -0.11510   0.00000  -0.11522   3.24572
   A52        3.16061  -0.00960  -0.02460   0.00000  -0.02447   3.13614
    D1        0.00036  -0.00004   0.00269   0.00000   0.00270   0.00306
    D2       -3.13938   0.00002   0.00186   0.00000   0.00188  -3.13750
    D3       -3.13736  -0.00011   0.00096   0.00000   0.00094  -3.13643
    D4        0.00608  -0.00005   0.00012   0.00000   0.00012   0.00620
    D5        0.00156  -0.00009  -0.00344   0.00000  -0.00344  -0.00188
    D6       -3.13746  -0.00011  -0.00195   0.00000  -0.00200  -3.13946
    D7        3.13933  -0.00001  -0.00172   0.00000  -0.00171   3.13762
    D8        0.00031  -0.00004  -0.00023   0.00000  -0.00027   0.00005
    D9       -0.00210   0.00015  -0.00071   0.00000  -0.00069  -0.00279
   D10        3.13761   0.00008   0.00014   0.00000   0.00015   3.13776
   D11        3.12867   0.00027   0.00165   0.00000   0.00167   3.13034
   D12        0.00312  -0.00021  -0.00162   0.00000  -0.00165   0.00147
   D13       -0.01704   0.00108   0.00408   0.00000   0.00414  -0.01290
   D14        3.14007  -0.00057   0.00080   0.00000   0.00089   3.14096
   D15        3.10787   0.00151   0.00743   0.00000   0.00752   3.11539
   D16       -0.01821  -0.00015   0.00415   0.00000   0.00427  -0.01394
   D17       -0.00294   0.00019   0.00322   0.00000   0.00324   0.00030
   D18        3.13611   0.00021   0.00177   0.00000   0.00183   3.13794
   D19       -3.13124  -0.00009   0.00052   0.00000   0.00050  -3.13075
   D20        0.00781  -0.00007  -0.00094   0.00000  -0.00091   0.00690
   D21       -0.03587   0.00009  -0.00826   0.00000  -0.00825  -0.04412
   D22       -3.13186   0.00104  -0.02875   0.00000  -0.02874   3.12259
   D23        3.09006   0.00140  -0.00493   0.00000  -0.00494   3.08511
   D24       -0.00594   0.00236  -0.02542   0.00000  -0.02543  -0.03136
   D25        0.01630   0.00029  -0.00491   0.00000  -0.00519   0.01111
   D26       -3.07452   0.00089  -0.00944   0.00000  -0.00905  -3.08357
   D27       -3.11053  -0.00065  -0.00804   0.00000  -0.00830  -3.11884
   D28        0.08183  -0.00005  -0.01257   0.00000  -0.01216   0.06967
   D29       -0.00288  -0.00057   0.00243   0.00000   0.00271  -0.00018
   D30       -3.12879  -0.00146  -0.00462   0.00000  -0.00438  -3.13317
   D31        3.09348   0.00252   0.00703   0.00000   0.00679   3.10027
   D32       -0.03243   0.00163  -0.00002   0.00000  -0.00030  -0.03273
   D33       -0.18718  -0.00877  -0.04492   0.00000  -0.04392  -0.23110
   D34        2.94628  -0.00473  -0.03180   0.00000  -0.03144   2.91484
   D35        2.99311  -0.00184  -0.04906   0.00000  -0.04939   2.94371
   D36       -0.15662   0.00220  -0.03594   0.00000  -0.03691  -0.19353
[...]
 62,0.00024910,-0.00099192,0.00185194,0.00680382,-0.00598868,-0.0158520
 0,-0.17313949,0.13049918,-0.00060234,0.00084206,0.00191591,-0.00041794
 ,-0.00009836,-0.00127662,0.00015451,-0.00030169,-0.00046054,-0.0002490
 1,-0.00002193,0.00017319,0.00004771,0.00005884,-0.00005964,0.00000012,
 -0.00000022,0.00000041,0.00001259,-0.00000403,0.00001109,-0.00000347,-
 0.00000054,-0.00000281,-0.00002615,0.00032411,-0.00012213,0.01873958,0
 .18678661,-0.00001723,-0.00000172,0.00000634,-0.00000577,0.00000099,0.
 00000515,-0.00001359,-0.00000235,0.00001117,-0.00000058,0.00000172,-0.
 00000092,-0.00000484,0.00000058,-0.00005223,-0.00001274,-0.00002638,0.
 00002857,-0.00010232,-0.00001435,0.00004541,0.00005719,0.00000387,0.00
 000087,-0.00005695,-0.00000167,0.00002100,0.00002386,-0.00000013,-0.00
 001981,-0.00087676,-0.00163590,-0.00113151,-0.00264732,0.00149268,0.00
 061293,-0.00143029,0.01297809,-0.02152455,0.01683920,0.13103672,-0.174
 22186,0.00217412,-0.00056377,-0.00168352,-0.00026631,0.00005951,0.0017
 8139,-0.00023180,-0.00010860,0.00018991,0.00113275,0.00015116,-0.00028
 499,-0.00050333,-0.00004100,-0.00016331,-0.00000159,0.00000075,0.,-0.0
 0000375,0.00000845,-0.00000682,0.00002190,0.00000442,0.00000284,-0.000
 09894,0.00082115,-0.00011989,-0.01370967,-0.14150039,0.19414150,0.0000
 1412,0.00000258,0.00000940,0.00000158,-0.00000149,-0.00000860,0.000004
 24,0.00000368,0.00001140,0.00005244,0.00000630,0.00002878,-0.00014425,
 -0.00004484,-0.00018308,0.00017648,0.00004266,0.00008862,0.00000420,0.
 00003380,0.00011583,-0.00000895,-0.00001514,-0.00008301,0.00000798,0.0
 0000923,0.00005294,-0.00001428,-0.00000819,-0.00003968,-0.00149566,0.0
 0076323,-0.00126683,-0.00134886,-0.00086077,0.00062870,0.00362998,-0.0
 2042311,-0.01091384,-0.05372272,0.03663903,0.01767106,0.00049425,-0.00
 099541,-0.00280636,0.00020404,0.00081850,0.00167990,0.00038081,0.00066
 021,0.00085253,0.00169841,-0.00029911,-0.00077798,-0.00068095,-0.00008
 447,-0.00013189,0.00000085,-0.00000003,0.00000016,-0.00000161,-0.00001
 023,0.00000274,0.00001765,0.00000119,0.00000578,0.00006421,-0.00036537
 ,-0.00015112,0.00008399,-0.00298850,-0.00104273,0.05451480,-0.00000167
 ,0.00000287,0.00001023,-0.00000393,-0.00000130,-0.00000516,-0.00000271
 ,0.00000498,0.00001297,0.00003040,0.00000294,0.00001386,-0.00008019,-0
 .00003200,-0.00012927,0.00008927,0.00004193,0.00006828,-0.00004921,0.0
 0002082,0.00008145,0.00002348,-0.00000445,-0.00002575,-0.00002260,0.00
 000667,0.00003554,0.00000680,-0.00000662,-0.00003230,-0.00063598,-0.00
 023604,-0.00025004,-0.00042706,0.00002983,0.00122858,-0.00206160,-0.00
 060547,-0.00312425,0.03687518,-0.25113499,-0.10044855,0.00129037,0.000
 15211,-0.00283906,0.00030425,0.00060034,0.00188355,-0.00017561,-0.0000
 2683,0.00063242,0.00077508,-0.00012651,-0.00029865,-0.00028022,0.00003
 922,-0.00003045,-0.00000052,-0.00000062,-0.00000019,-0.00001249,-0.000
 01259,-0.00000936,0.00001231,0.00000038,0.00000443,-0.00000672,0.00001
 983,0.00004755,0.00425192,-0.02187087,-0.00946682,-0.04017443,0.271839
 81,-0.00001767,0.00000140,0.00000251,-0.00000467,0.00000076,0.00000730
 ,-0.00001375,0.00000336,0.00000611,-0.00001044,-0.00000304,-0.00000478
 ,0.00002206,-0.00000897,-0.00000880,-0.00004540,0.00002101,-0.00000355
 ,-0.00009271,0.00001409,0.00001478,0.00005235,0.00000309,0.00000918,-0
 .00005256,0.00000166,0.00000950,0.00002289,-0.00000251,-0.00000937,-0.
 00086000,0.00124042,-0.00163218,-0.00253917,-0.00153940,0.00076132,0.0
 0083795,-0.02084961,-0.01593325,0.01881631,-0.10088466,-0.09161628,0.0
 0182102,0.00009347,-0.00095250,-0.00041060,0.00034988,0.00116198,-0.00
 018968,0.00017467,-0.00005676,0.00096811,-0.00010602,-0.00015544,-0.00
 044470,-0.00007979,-0.00016118,-0.00000141,-0.00000067,0.00000035,0.00
 000135,-0.00000687,-0.00000036,0.00001943,-0.00000147,0.00000258,-0.00
 002238,-0.00088289,0.00015495,-0.00366813,0.02077968,0.01035591,-0.015
 61183,0.11125806,0.10392829,-0.00004270,-0.00000113,0.00000441,-0.0000
 1108,0.00000220,0.00001558,-0.00002976,0.00000042,0.00001018,-0.000030
 81,-0.00000350,-0.00001267,0.00007562,0.00000272,-0.00000392,-0.000124
 28,-0.00000599,0.00000164,-0.00024434,-0.00000692,0.00002624,0.0001211
 6,0.00002328,0.00010294,-0.00011644,-0.00000651,-0.00000786,0.00005600
 ,0.00000036,-0.00001234,-0.00018637,-0.00015977,-0.00096569,0.00120061
 ,0.00055953,0.00296811,-0.01989623,0.00061550,0.00825652,-0.27281173,0
 .00539144,0.09003386,-0.00088111,-0.00057452,-0.00278975,0.00011515,-0
 .00010848,-0.00056989,-0.00170933,-0.00004774,0.00020860,0.00032298,0.
 00016003,0.00083751,-0.00013524,-0.00007221,-0.00037515,-0.00000353,-0
 .00000018,-0.00000004,-0.00000963,-0.00000243,-0.00001347,0.00001959,0
 .00000089,0.00000029,0.00055226,-0.00015823,-0.00099476,-0.00130958,-0
 .00030349,0.00073894,-0.00353833,0.00032670,0.00139649,0.29813284,-0.0
 0000032,-0.00000027,0.00000156,-0.00000069,0.00000004,-0.00000060,-0.0
 0000081,0.00000034,0.00000167,0.00000543,-0.00000090,0.00000427,-0.000
 01698,-0.00000502,-0.00002677,0.00001473,0.00001704,0.00001114,-0.0000
 2480,0.00001164,0.00001861,0.00000581,0.00000121,0.00000381,-0.0000056
 1,-0.00000155,0.00000384,0.00000078,-0.00000064,-0.00000564,0.00003708
 ,-0.00034199,0.00006350,-0.00011793,0.00024998,0.00033296,-0.00507625,
 -0.00172760,0.00226510,0.00595610,-0.04727258,-0.00258838,-0.00039929,
 0.00088791,-0.00130781,0.00017064,0.00036374,0.00014689,-0.00035169,0.
 00014812,0.00012840,-0.00002226,0.00000764,0.00008822,0.00001146,0.000
 01975,-0.00003163,-0.00000012,0.00000022,-0.00000008,-0.00000150,-0.00
 000747,0.00000027,0.00000103,0.00000115,0.00000002,0.00010534,0.000234
 04,-0.00011454,-0.02165624,0.00127759,0.00708851,0.02692937,0.00129434
 ,-0.00984833,-0.00557945,0.04491672,0.00000916,0.00000177,0.00000732,-
 0.00000105,-0.00000135,-0.00000733,0.00000312,0.00000135,0.00000706,0.
 00003888,0.00000660,0.00002607,-0.00011766,-0.00003190,-0.00015305,0.0
 0012137,0.00001654,0.00007822,-0.00007665,0.00001398,0.00011006,0.0000
 0188,-0.00000078,-0.00000467,-0.00000238,0.00000409,0.00002224,-0.0000
 1009,-0.00000553,-0.00002899,0.00016818,0.00011496,0.00026394,-0.00094
 233,0.00015554,0.00134279,-0.02456618,0.00077843,0.00901700,0.09328447
 ,-0.00244111,-0.08553167,-0.00177504,-0.00126178,-0.00568294,0.0010426
 9,0.00022027,0.00132812,-0.00154363,0.00004897,0.00082881,-0.00021305,
 0.00004050,0.00028210,0.00010735,-0.00000979,-0.00005975,0.00000031,-0
 .00000007,-0.00000022,-0.00000806,0.00000051,-0.00000237,0.00000109,0.
 00000005,0.00000113,0.00052849,-0.00004558,-0.00015231,0.02051263,-0.0
 0278271,-0.00793673,0.01189805,0.00139431,-0.00572459,-0.09841166,0.00
 383210,0.09230248,0.00190865,-0.00002953,-0.00067988,0.00054337,-0.000
 02927,-0.00034478,0.00169347,-0.00005465,-0.00071658,-0.00135396,-0.00
 056533,-0.00265860,0.00812068,0.00294704,0.01508934,-0.00506691,-0.001
 02751,-0.00488286,0.00654058,-0.00053445,-0.00766210,-0.00671409,-0.00
 209634,-0.01035468,0.00760631,0.00031035,0.00010403,-0.00250779,0.0004
 5851,0.00330320,0.00429640,-0.00079631,-0.00474273,-0.00065102,-0.0001
 9912,-0.00108288,0.00131743,-0.00013553,-0.00011207,0.00019705,-0.0000
 5740,-0.00031747,-0.01796828,-0.00364045,-0.01584951,-0.00153965,0.002
 00063,0.01083112,-0.30707874,-0.00273893,0.05651454,0.00628281,0.00414
 209,0.02218508,-0.00523790,-0.00141828,-0.00771214,0.00017762,0.000013
 16,0.00002242,-0.00037871,0.00000541,0.00011517,0.00082358,0.00014421,
 0.00057173,0.00015560,0.00002357,-0.00002061,0.00001874,-0.00001994,0.
 00016939,0.00001665,0.00007784,0.00015342,0.00035883,0.00002408,0.0000
 2675,0.30232703,-0.00001259,-0.00005297,0.00001388,0.00000790,-0.00013
 379,0.00000902,0.00002639,0.00014351,-0.00002701,-0.00007129,0.0009060
 2,-0.00029762,0.00084869,0.00081606,0.00006649,0.00001617,-0.00102056,
 0.00009005,-0.00010089,-0.01107943,-0.00041571,-0.00078682,0.00003309,
 0.00050517,-0.00015233,0.00102844,-0.00035277,0.00002818,0.00002570,-0
 .00005105,0.00010737,0.00346948,-0.00178907,-0.00014385,-0.00044492,-0
 .00020886,-0.00064655,0.00360824,-0.00150541,-0.00021786,0.00026449,0.
 00012906,-0.00568622,0.00197415,0.00258400,0.00102080,-0.00408525,0.00
 088009,-0.00337644,-0.03090396,-0.00824916,0.00640350,-0.00001324,0.00
 020673,-0.00054967,-0.00330862,0.00083030,0.00000324,-0.00002671,0.000
 00607,-0.00003037,-0.00006198,-0.00000448,-0.00012528,-0.00018813,-0.0
 0006259,0.00002223,-0.00042841,0.00009038,0.00003050,0.00000759,0.0000
 0947,-0.00001789,-0.00001297,-0.00000674,-0.00005534,-0.00008123,-0.00
 005076,0.00322304,0.03763608,-0.00058376,0.00001831,0.00020230,-0.0001
 3129,0.00001870,0.00000613,-0.00025062,-0.00000597,0.00017770,0.000190
 27,-0.00016881,-0.00006306,0.00297981,-0.00048051,-0.00278088,0.001143
 60,0.00036206,0.00075438,-0.00515236,-0.00030263,-0.01140316,-0.002797
 38,0.00084629,0.00559126,-0.00257481,-0.00047321,-0.00096628,0.0008238
 1,-0.00016309,-0.00112069,0.00048007,-0.00155665,-0.00533221,-0.000767
 56,-0.00019400,-0.00132191,-0.00304620,-0.00163685,-0.00474138,-0.0012
 3928,0.00008664,0.00107726,-0.02759375,0.00205537,0.02082582,0.0051699
 4,0.00062238,-0.00204215,0.05271215,-0.00841648,-0.09159870,0.03526852
 ,0.00079303,-0.00495172,-0.00269890,0.00105878,0.00338362,-0.00003482,
 0.00000348,0.00000125,-0.00009226,-0.00001383,-0.00011551,-0.00098102,
 -0.00013272,-0.00068149,-0.00002882,0.00009001,0.00008198,0.00002427,0
 .00005106,-0.00004881,0.00003777,-0.00006016,-0.00002619,-0.00043009,-
 0.00007134,-0.00036880,-0.05073011,0.00829353,0.09710395,0.00038200,0.
 00005688,0.00009109,0.00058046,-0.00003509,-0.00034363,0.00010698,0.00
 011891,0.00052295,0.00486309,0.00006261,0.00027176,-0.02265459,-0.0027
 6874,-0.01075042,-0.39804883,-0.00591382,0.06746149,-0.00058367,0.0014
 7366,0.00769729,-0.00032484,-0.00024424,-0.00155185,0.00010086,0.00043
 879,0.00253650,-0.00106603,-0.00054491,-0.00230530,-0.00211331,-0.0004
 6178,-0.00211113,0.00224118,0.00063577,0.00311945,0.00237472,-0.000735
 75,-0.00465143,-0.00025739,-0.00008676,-0.00041700,0.00019578,0.003443
 62,0.01998718,0.00332035,-0.00214621,-0.01479182,-0.00458442,-0.001267
 78,-0.00635068,0.00172371,0.00075155,0.00390232,-0.00215683,-0.0005125
 5,-0.00241064,0.00003950,0.00000661,0.00002223,0.00448641,0.00009418,-
 0.00172553,0.00026576,0.00005882,0.00027005,0.00009370,-0.00004424,-0.
 00031256,-0.00019501,0.00007557,0.00006730,-0.00018754,-0.00006275,0.0
 0009415,0.00019780,-0.00001022,-0.00011440,0.00515580,-0.00000331,-0.0
 0109071,0.40631866,0.00000778,-0.00052313,0.00003898,-0.00007624,0.000
 03070,-0.00000111,0.00016192,-0.00049161,0.00012420,-0.00051688,0.0041
 7948,-0.00177720,-0.00585674,-0.00238874,0.00275552,-0.00663207,-0.010
 14177,-0.01125613,0.00053991,-0.00343852,0.00118721,-0.00010148,-0.000
 87897,-0.00002545,0.00023851,0.00011406,-0.00010343,-0.00030332,0.0021
 3532,-0.00004991,-0.00005596,0.00001355,0.00002199,-0.00000752,0.00013
 964,-0.00000846,-0.00006423,0.00080664,-0.00012754,-0.00000026,0.00006
 113,0.00000646,0.00053671,0.00059981,-0.00041199,-0.00065993,-0.005868
 98,0.00041335,0.00011272,-0.00087198,0.00016370,0.00003335,0.00002468,
 -0.00018250,0.00000551,-0.00004527,0.00007149,-0.00000114,-0.00002016,
 0.00000105,0.00507608,-0.00382414,0.00107465,0.00000709,0.00000150,0.0
 0000921,0.00000170,-0.00011950,0.00002575,0.00001056,-0.00001263,0.000
 03379,-0.00001259,-0.00003317,-0.00002492,-0.00000447,-0.00001390,-0.0
 0000219,-0.00000405,0.00095480,-0.00052009,0.00758863,0.01967851,-0.00
 019240,0.00002621,-0.00032920,-0.00058108,-0.00001183,0.00011672,0.000
 77124,0.00013531,0.00005951,-0.00307316,-0.00192819,-0.00581385,-0.028
 59736,0.00194752,0.01608084,0.06338611,-0.01144028,-0.09035486,0.00231
 364,0.00094535,0.00118183,-0.00072779,0.00001177,-0.00061368,0.0013818
 0,-0.00015559,-0.00113449,-0.00091300,0.00001295,0.00246924,0.00023120
 ,0.00012770,0.00068962,-0.00058996,-0.00017616,-0.00072087,-0.00077185
 ,0.00004718,0.00130722,0.00008107,0.00002902,0.00020604,0.00321696,-0.
 00116909,-0.00694026,-0.00621417,0.00080035,0.00032839,0.00160788,0.00
 052337,0.00169458,-0.00024222,-0.00036945,-0.00201496,0.00057843,0.000
 20640,0.00098254,-0.00002206,-0.00000095,-0.00001999,0.02697296,0.0023
 7190,0.00240583,-0.00002831,-0.00000424,-0.00001742,-0.00004709,0.0000
 3769,0.00010586,0.00003555,0.00000942,-0.00002566,0.00004029,-0.000004
 43,-0.00001249,-0.00008086,-0.00000070,0.00000391,-0.00109383,-0.00052
 018,-0.00167154,-0.05735883,0.00853381,0.08200018,-0.00000582,0.000000
 55,0.00000235,-0.00000435,-0.00000111,-0.00000497,-0.00000459,-0.00000
 074,-0.00000580,0.00002079,0.00000777,0.00004106,-0.00008900,-0.000035
 55,-0.00017705,0.00010892,0.00001447,0.00004639,-0.00047935,-0.0000199
 4,-0.00001328,-0.00000942,0.00005125,0.00029784,-0.00005354,-0.0000149
 6,-0.00007699,0.00000504,-0.00000411,-0.00002230,-0.09926858,0.0124449
 8,0.09584967,0.01345319,-0.00358476,-0.02600062,-0.00383341,-0.0008351
 5,-0.00312081,0.00080325,-0.00019273,-0.00075574,-0.00256524,-0.000224
 14,-0.00077254,0.00077361,0.00002376,-0.00015359,-0.00839987,-0.000405
 55,0.00073027,0.00100417,0.00719002,0.04107018,0.00270646,-0.00060360,
 -0.00518746,-0.00000109,-0.00000036,-0.00000107,0.00000126,-0.00000034
 ,0.00000206,-0.00006476,-0.00000867,-0.00002881,0.00034892,0.00007679,
 -0.00002844,-0.00018545,-0.00002297,-0.00020235,-0.00022046,-0.0000665
 5,-0.00022484,-0.00008268,0.00000243,0.00004088,0.00128872,0.00024002,
 0.00130199,-0.00012498,-0.00000612,0.00000402,0.09488140,-0.00000786,-
 0.00000917,0.00000071,-0.00000168,0.00000178,0.00000446,-0.00000507,-0
 .00001040,0.00000149,-0.00001097,0.00000460,-0.00000627,0.00002894,0.0
 0002205,0.00001127,-0.00003102,-0.00003513,-0.00000255,-0.00003849,-0.
 00008948,-0.00000158,0.00002228,0.00000375,0.00002057,-0.00002122,-0.0
 0001892,-0.00000312,0.00000911,0.00001096,0.00000123,0.01282831,-0.018
 00515,-0.06678410,0.00197816,-0.00735443,-0.00277799,-0.00111052,0.002
 56009,-0.00026607,0.00001451,0.00210005,-0.00044433,0.00021091,-0.0005
 7162,-0.00000323,-0.00008300,-0.00029857,0.00022720,-0.00049689,0.0032
 5726,-0.00032133,0.00065786,-0.00015506,0.00148160,-0.00004284,-0.0037
 8491,0.00026606,-0.00000069,0.00000279,-0.00000042,-0.00000269,0.00001
 572,-0.00000509,0.00000361,0.00001623,-0.00000072,0.00007188,-0.001376
 70,0.00042847,-0.00041881,-0.00012111,-0.00033139,0.00039283,0.0000500
 1,0.00030590,0.00000615,0.00002112,0.00000407,0.00002460,0.00092704,-0
 .00010759,0.00004554,0.00002382,-0.00002214,-0.01402452,0.02280273,-0.
 00004623,-0.00000149,-0.00000553,-0.00000828,0.00000433,0.00002819,-0.
 00003080,0.00000036,-0.00000039,-0.00006746,-0.00001121,-0.00004094,0.
 00019607,0.00002835,0.00013128,-0.00021727,-0.00001455,-0.00006062,-0.
 00011875,-0.00000645,-0.00009362,0.00013109,0.00001297,0.00003996,-0.0
 0011307,-0.00000475,-0.00001546,0.00005405,0.00000471,0.00002351,0.098
 02392,-0.06666821,-0.41689227,0.00606703,-0.00133319,-0.01622913,-0.00
 472170,-0.00033897,0.00194243,0.00044448,-0.00038973,-0.00019069,0.001
 74165,0.00010976,-0.00040202,-0.00077157,0.00020026,0.00102334,0.00022
 308,-0.00034397,0.00129338,0.00345427,-0.00023126,-0.00267581,-0.00196
 448,0.00041109,-0.00094471,-0.00000297,-0.00000051,0.00000073,-0.00001
 157,-0.00000571,-0.00001318,0.00004205,0.00000251,0.00001964,-0.000058
 32,0.00042797,0.00102671,0.00004317,-0.00006330,0.00001739,-0.00010407
 ,0.00005431,-0.00011847,0.00006280,0.00000515,0.00003359,0.00004927,-0
 .00016513,-0.00002121,0.00030363,-0.00000865,-0.00010359,-0.10261267,0
 .06832516,0.43221914,-0.33743193,-0.04470007,-0.17171853,0.00797794,0.
 00063047,-0.00077897,0.00309097,0.00065464,0.00455951,-0.00618867,-0.0
 0005191,0.00225670,-0.00008407,-0.00047110,-0.00236161,-0.00025145,0.0
 0009657,0.00057831,0.00092509,0.00021628,0.00102039,-0.00137398,-0.000
 12654,-0.00043104,0.00353479,0.00031288,0.00019405,-0.01284523,-0.0040
 9519,-0.02142741,0.00008958,-0.00000189,-0.00003694,-0.00000055,0.0000
 0249,0.00001475,0.00004378,-0.00000206,-0.00002443,-0.00000212,-0.0000
 0178,-0.00000871,-0.00014367,-0.00001081,-0.00002013,0.00010228,0.0000
 0353,-0.00001133,0.00021144,0.00000144,-0.00005455,-0.00014957,0.00000
 696,0.00008523,0.00009947,0.00000029,-0.00003313,-0.00020980,0.0000402
 4,0.00002453,-0.00007066,-0.00001103,-0.00000660,0.00004385,-0.0000043
 6,0.00000099,0.00000742,0.,-0.00000117,-0.00000311,0.00000070,0.000004
 20,-0.00000306,0.00000061,0.00000442,0.00001032,-0.00000010,-0.0000031
 4,-0.00033224,-0.00000132,0.00009155,-0.00014933,-0.00001747,-0.000087
 18,-0.00000316,0.00000156,0.00001263,0.34310566,-0.04501461,-0.0140117
 7,-0.03918032,-0.00372607,-0.00893906,0.00163041,-0.00038892,0.0057595
 4,-0.00192765,0.00050120,0.00352719,-0.00091715,-0.00018719,0.00126641
 ,-0.00010138,0.00009975,-0.00016175,0.00003700,0.00003667,0.00004373,-
 0.00005624,-0.00002583,-0.00022966,-0.00002896,-0.00003943,-0.00261600
 ,0.00036605,0.00105239,-0.00382715,0.00283638,0.00000218,-0.00001058,-
 0.00000731,0.00000356,0.00000217,0.00000694,0.00000747,-0.00000471,-0.
 00000537,-0.00000015,0.00000359,-0.00000190,-0.00001747,0.00001877,0.0
 0000944,0.00002143,-0.00002028,-0.00001084,0.00002533,-0.00003098,-0.0
 0001260,-0.00000473,0.00002701,0.00002512,0.00000071,-0.00003579,-0.00
 000957,0.00017595,-0.00097633,0.00015369,0.00001141,0.00014487,-0.0000
 3298,-0.00000049,0.00014002,-0.00002633,0.00000054,0.00000307,-0.00000
 085,-0.00000019,-0.00000037,0.00000262,-0.00000106,-0.00000162,-0.0000
 0158,0.00000114,0.00000061,-0.00000050,-0.00004741,0.00004750,0.000004
 31,-0.00001298,-0.00009120,0.00003727,-0.00000018,0.00001067,0.0000001
 7,0.04752700,0.01996212,-0.17353676,-0.03926250,-0.18669238,-0.0259086
 4,0.00050137,0.00055423,-0.00146079,-0.00219849,-0.00619239,0.00544626
 ,-0.00077361,-0.00221085,-0.00072366,-0.00002791,0.00131932,0.00059558
 ,0.00003783,-0.00010915,-0.00001444,-0.00010293,-0.00053787,0.00014998
 ,-0.00000275,-0.00027864,-0.00183869,0.00027469,-0.00061607,0.00827067
 ,0.00417140,0.01755323,-0.00001313,-0.00000623,-0.00004202,0.00002089,
 0.00000722,0.00003701,0.00003065,-0.00000287,-0.00002875,0.00000072,-0
 .00000147,-0.00000476,-0.00005887,0.00000767,0.00007761,0.00009204,-0.
 00000617,-0.00007895,0.00008348,-0.00000638,-0.00008851,0.00001748,0.0
 0002207,0.00014574,-0.00003064,-0.00000946,-0.00008077,0.00080716,0.00
 018888,-0.00013065,0.00012332,-0.00002708,-0.00003831,0.00002331,-0.00
 002532,-0.00000753,0.00000203,-0.00000070,-0.00000139,-0.00000320,0.00
 000145,0.00000022,-0.00000293,-0.00000108,0.00000143,0.00000405,-0.000
 00018,-0.00000143,-0.00017462,-0.00000769,0.00005004,-0.00006146,0.000
 03843,0.00014054,0.00000259,-0.00000029,0.00000835,0.18815763,0.037212
 09,0.17725270\\-0.00000795,-0.00000225,-0.00000221,0.00000241,0.000003
 92,-0.00000510,-0.00000344,-0.00000135,-0.00000154,0.00001635,-0.00000
 700,0.00000550,-0.00001059,-0.00000033,-0.00001474,-0.00000780,-0.0000
 0036,0.00000495,0.00002288,0.00000597,0.00002110,-0.00001003,-0.000003
 23,-0.00001249,0.00000160,0.00000113,0.00000966,-0.00000207,0.00000435
 ,-0.00000076,0.00000308,0.00001231,0.00000130,-0.00000028,-0.00000081,
 0.00000575,0.00001782,0.00000121,-0.00000653,-0.00001512,0.00000278,-0
 .00000774,-0.00000396,0.00000200,-0.00000031,0.00000411,-0.00000216,-0
 .00000659,0.00001180,-0.00001271,-0.00000932,0.00001555,-0.00000698,0.
 00002974,-0.00001071,0.00000448,-0.00001276,-0.00000047,-0.00000090,0.
 00000005,0.00001134,0.00000180,-0.00000029,0.00000185,-0.00000046,0.00
 000303,-0.00000184,0.00000099,-0.00000428,0.00000176,-0.00000128,0.000
 00062,0.00000109,-0.00000119,-0.00000029,0.00000294,-0.00000175,0.0000
 0041,-0.00003105,0.00000738,-0.00000595,-0.00000188,0.00000061,0.00000
 733,-0.00000564,-0.00000625,-0.00000006,-0.00000176,0.00000007,0.00000
 151\\\@


 LIFE IS SO UNCERTAIN - EAT DESSERT FIRST.
 Job cpu time:       0 days  1 hours 42 minutes 23.0 seconds.
 File lengths (MBytes):  RWF=    546 Int=      0 D2E=      0 Chk=     14 Scr=      1
 Normal termination of Gaussian 09 at Fri Oct 28 13:22:26 2016.
