 Entering Gaussian System, Link 0=g09
 Initial command:
 /share/sw/gaussian/D.01/g09/l1.exe "/local/scratch/epluhar/Gau-125326.inp" -scrdir="/local/scratch/epluhar/"
 Entering Link 1 = /share/sw/gaussian/D.01/g09/l1.exe PID=    125330.
  
 Copyright (c) 1988,1990,1992,1993,1995,1998,2003,2009,2013,
            Gaussian, Inc.  All Rights Reserved.
  
 This is part of the Gaussian(R) 09 program.  It is based on
 the Gaussian(R) 03 system (copyright 2003, Gaussian, Inc.),
 the Gaussian(R) 98 system (copyright 1998, Gaussian, Inc.),
 the Gaussian(R) 94 system (copyright 1995, Gaussian, Inc.),
 the Gaussian 92(TM) system (copyright 1992, Gaussian, Inc.),
 the Gaussian 90(TM) system (copyright 1990, Gaussian, Inc.),
 the Gaussian 88(TM) system (copyright 1988, Gaussian, Inc.),
 the Gaussian 86(TM) system (copyright 1986, Carnegie Mellon
 University), and the Gaussian 82(TM) system (copyright 1983,
 Carnegie Mellon University). Gaussian is a federally registered
 trademark of Gaussian, Inc.
  
 This software contains proprietary and confidential information,
 including trade secrets, belonging to Gaussian, Inc.
  
 This software is provided under written license and may be
 used, copied, transmitted, or stored only in accord with that
 written license.
  
 The following legend is applicable only to US Government
 contracts under FAR:
  
                    RESTRICTED RIGHTS LEGEND
  
 Use, reproduction and disclosure by the US Government is
 subject to restrictions as set forth in subparagraphs (a)
 and (c) of the Commercial Computer Software - Restricted
 Rights clause in FAR 52.227-19.
  
 Gaussian, Inc.
 340 Quinnipiac St., Bldg. 40, Wallingford CT 06492
  
  
 ---------------------------------------------------------------
 Warning -- This program may not be used in any manner that
 competes with the business of Gaussian, Inc. or will provide
 assistance to any competitor of Gaussian, Inc.  The licensee
 of this program is prohibited from giving any competitor of
 Gaussian, Inc. access to this program.  By using this program,
 the user acknowledges that Gaussian, Inc. is engaged in the
 business of creating and licensing software in the field of
 computational chemistry and represents and warrants to the
 licensee that it is not a competitor of Gaussian, Inc. and that
 it will not use this program in any manner prohibited above.
 ---------------------------------------------------------------
  

 Cite this work as:
 Gaussian 09, Revision D.01,
 M. J. Frisch, G. W. Trucks, H. B. Schlegel, G. E. Scuseria, 
 M. A. Robb, J. R. Cheeseman, G. Scalmani, V. Barone, B. Mennucci, 
 G. A. Petersson, H. Nakatsuji, M. Caricato, X. Li, H. P. Hratchian, 
 A. F. Izmaylov, J. Bloino, G. Zheng, J. L. Sonnenberg, M. Hada, 
 M. Ehara, K. Toyota, R. Fukuda, J. Hasegawa, M. Ishida, T. Nakajima, 
 Y. Honda, O. Kitao, H. Nakai, T. Vreven, J. A. Montgomery, Jr., 
 J. E. Peralta, F. Ogliaro, M. Bearpark, J. J. Heyd, E. Brothers, 
 K. N. Kudin, V. N. Staroverov, T. Keith, R. Kobayashi, J. Normand, 
 K. Raghavachari, A. Rendell, J. C. Burant, S. S. Iyengar, J. Tomasi, 
 M. Cossi, N. Rega, J. M. Millam, M. Klene, J. E. Knox, J. B. Cross, 
 V. Bakken, C. Adamo, J. Jaramillo, R. Gomperts, R. E. Stratmann, 
 O. Yazyev, A. J. Austin, R. Cammi, C. Pomelli, J. W. Ochterski, 
 R. L. Martin, K. Morokuma, V. G. Zakrzewski, G. A. Voth, 
 P. Salvador, J. J. Dannenberg, S. Dapprich, A. D. Daniels, 
 O. Farkas, J. B. Foresman, J. V. Ortiz, J. Cioslowski, 
 and D. J. Fox, Gaussian, Inc., Wallingford CT, 2013.
 
 ******************************************
 Gaussian 09:  ES64L-G09RevD.01 24-Apr-2013
                 2-Sep-2016 
 ******************************************
 %nprocshared=2
 Will use up to    2 processors via shared memory.
 %mem=256MW
 %chk=A01.NH3.C3v.100.chk
 -----------------------------
 # opt=(z-matrix) rhf/6-31g(d)
 -----------------------------
 1/10=7,18=40,38=1/1,3;
 2/12=2,17=6,18=5,29=3,40=1/2;
 3/5=1,6=6,7=1,11=1,16=1,25=1,30=1,71=1,116=1/1,2,3;
 4//1;
 5/5=2,38=5/2;
 6/7=2,8=2,9=2,10=2,28=1/1;
 7/29=1/1,2,3,16;
 1/10=7,18=40/3(2);
 2/29=3/2;
 99//99;
 2/29=3/2;
 3/5=1,6=6,7=1,11=1,16=1,25=1,30=1,71=1,116=1/1,2,3;
 4/5=5,16=3,69=1/1;
 5/5=2,38=5/2;
 7//1,2,3,16;
 1/18=40/3(-5);
 2/29=3/2;
 6/7=2,8=2,9=2,10=2,19=2,28=1/1;
 99/9=1/99;
 -----------
 Ammonia c3v
 -----------
 Symbolic Z-matrix:
 Charge =  0 Multiplicity = 1
 N
 X                    1     1. 
 H                    1    B1       2    A1
 H                    1    B1       2    A1       3     120.     0
 H                    1    B1       2    A1       3    -120.     0
       Variables:
  B1                    1.                       
       Constants:
  A1                  100.                       
 

 GradGradGradGradGradGradGradGradGradGradGradGradGradGradGradGradGradGrad
 Berny optimization.
 Initialization pass.
                       ----------------------------
                       !    Initial Parameters    !
                       ! (Angstroms and Degrees)  !
 ----------------------                            ----------------------
 !      Name          Value   Derivative information (Atomic Units)     !
 ------------------------------------------------------------------------
 !       B1          1.0      estimate D2E/DX2                          !
 !       A1        100.0      Frozen                                    !
 ------------------------------------------------------------------------
 Trust Radius=3.00D-01 FncErr=1.00D-07 GrdErr=1.00D-07
 Number of steps in this run=     20 maximum allowed number of steps=    100.
 GradGradGradGradGradGradGradGradGradGradGradGradGradGradGradGradGradGrad

 ---------------------------------------------------------------------------------------------------
                            Z-MATRIX (ANGSTROMS AND DEGREES)
   CD    Cent   Atom    N1       Length/X        N2       Alpha/Y        N3        Beta/Z          J
 ---------------------------------------------------------------------------------------------------
      1      1  N 
      2         X        1   1.000000(     1)
      3      2  H        1   1.000000(     2)      2  100.000(     5)
      4      3  H        1   1.000000(     3)      2  100.000(     6)      3  120.000(     8)      0
      5      4  H        1   1.000000(     4)      2  100.000(     7)      3 -120.000(     9)      0
 ---------------------------------------------------------------------------------------------------
                         Z-Matrix orientation:                         
 ---------------------------------------------------------------------
 Center     Atomic      Atomic             Coordinates (Angstroms)
 Number     Number       Type             X           Y           Z
 ---------------------------------------------------------------------
      1          7           0        0.000000    0.000000    0.000000
      2         -1           0        0.000000    0.000000    1.000000
      3          1           0        0.984808    0.000000   -0.173648
      4          1           0       -0.492404   -0.852869   -0.173648
      5          1           0       -0.492404    0.852869   -0.173648
 ---------------------------------------------------------------------
                    Distance matrix (angstroms):
                    1          2          3          4          5
     1  N    0.000000
     2  X    1.000000   0.000000
     3  H    1.000000   1.532089   0.000000
     4  H    1.000000   1.532089   1.705737   0.000000
     5  H    1.000000   1.532089   1.705737   1.705737   0.000000
 Stoichiometry    H3N
 Framework group  C3V[C3(N),3SGV(H)]
 Deg. of freedom     2
 Full point group                 C3V     NOp   6
 Largest Abelian subgroup         CS      NOp   2
 Largest concise Abelian subgroup CS      NOp   2
                         Standard orientation:                         
 ---------------------------------------------------------------------
 Center     Atomic      Atomic             Coordinates (Angstroms)
 Number     Number       Type             X           Y           Z
 ---------------------------------------------------------------------
      1          7           0        0.000000    0.000000    0.052094
      2          1           0        0.000000    0.984808   -0.121554
      3          1           0        0.852869   -0.492404   -0.121554
      4          1           0       -0.852869   -0.492404   -0.121554
 ---------------------------------------------------------------------
 Rotational constants (GHZ):    327.9269725    327.9269725    172.3486477
 Standard basis: 6-31G(d) (6D, 7F)
 There are    15 symmetry adapted cartesian basis functions of A'  symmetry.
 There are     6 symmetry adapted cartesian basis functions of A"  symmetry.
 There are    15 symmetry adapted basis functions of A'  symmetry.
 There are     6 symmetry adapted basis functions of A"  symmetry.
    21 basis functions,    40 primitive gaussians,    21 cartesian basis functions
     5 alpha electrons        5 beta electrons
       nuclear repulsion energy        12.0434226352 Hartrees.
 NAtoms=    4 NActive=    4 NUniq=    2 SFac= 4.00D+00 NAtFMM=   60 NAOKFM=F Big=F
 Integral buffers will be    131072 words long.
 Raffenetti 1 integral format.
 Two-electron integral symmetry is turned on.
 One-electron integrals computed using PRISM.
 NBasis=    21 RedAO= T EigKep=  3.06D-02  NBF=    15     6
 NBsUse=    21 1.00D-06 EigRej= -1.00D+00 NBFU=    15     6
 ExpMin= 1.61D-01 ExpMax= 4.17D+03 ExpMxC= 6.27D+02 IAcc=1 IRadAn=         1 AccDes= 0.00D+00
 Harris functional with IExCor=  205 and IRadAn=       1 diagonalized for initial guess.
 HarFok:  IExCor=  205 AccDes= 0.00D+00 IRadAn=         1 IDoV= 1 UseB2=F ITyADJ=14
 ICtDFT=  3500011 ScaDFX=  1.000000  1.000000  1.000000  1.000000
 FoFCou: FMM=F IPFlag=           0 FMFlag=      100000 FMFlg1=           0
         NFxFlg=           0 DoJE=T BraDBF=F KetDBF=T FulRan=T
         wScrn=  0.000000 ICntrl=     500 IOpCl=  0 I1Cent=   200000004 NGrid=           0
         NMat0=    1 NMatS0=      1 NMatT0=    0 NMatD0=    1 NMtDS0=    0 NMtDT0=    0
 Petite list used in FoFCou.
 Initial guess orbital symmetries:
       Occupied  (A1) (A1) (E) (E) (A1)
       Virtual   (A1) (E) (E) (A1) (E) (E) (A1) (E) (E) (A1) (E)
                 (E) (A1) (E) (E) (A1)
 The electronic state of the initial guess is 1-A1.
 Keep R1 ints in memory in symmetry-blocked form, NReq=875485.
 Requested convergence on RMS density matrix=1.00D-08 within 128 cycles.
 Requested convergence on MAX density matrix=1.00D-06.
 Requested convergence on             energy=1.00D-06.
 No special actions if energy rises.
 SCF Done:  E(RHF) =  -56.1779334389     A.U. after   10 cycles
            NFock= 10  Conv=0.39D-08     -V/T= 2.0025

 **********************************************************************

            Population analysis using the SCF density.

 **********************************************************************

 Orbital symmetries:
       Occupied  (A1) (A1) (E) (E) (A1)
       Virtual   (A1) (E) (E) (E) (E) (A1) (A1) (E) (E) (A1) (E)
                 (E) (A1) (E) (E) (A1)
 The electronic state is 1-A1.
 Alpha  occ. eigenvalues --  -15.52202  -1.11948  -0.63817  -0.63817  -0.38802
 Alpha virt. eigenvalues --    0.22785   0.32869   0.32869   0.93030   0.93030
 Alpha virt. eigenvalues --    0.97178   1.09042   1.24989   1.24989   1.32254
 Alpha virt. eigenvalues --    1.98486   1.98486   2.45134   2.72165   2.72165
 Alpha virt. eigenvalues --    4.11661
          Condensed to atoms (all electrons):
               1          2          3          4
     1  N    7.041473   0.339300   0.339300   0.339300
     2  H    0.339300   0.349342  -0.020883  -0.020883
     3  H    0.339300  -0.020883   0.349342  -0.020883
     4  H    0.339300  -0.020883  -0.020883   0.349342
 Mulliken charges:
               1
     1  N   -1.059372
     2  H    0.353124
     3  H    0.353124
     4  H    0.353124
 Sum of Mulliken charges =   0.00000
 Mulliken charges with hydrogens summed into heavy atoms:
               1
     1  N    0.000000
 Electronic spatial extent (au):  <R**2>=             25.7974
 Charge=              0.0000 electrons
 Dipole moment (field-independent basis, Debye):
    X=              0.0000    Y=              0.0000    Z=             -1.0102  Tot=              1.0102
 Quadrupole moment (field-independent basis, Debye-Ang):
   XX=             -5.5740   YY=             -5.5740   ZZ=             -9.2712
   XY=              0.0000   XZ=              0.0000   YZ=              0.0000
 Traceless Quadrupole moment (field-independent basis, Debye-Ang):
   XX=              1.2324   YY=              1.2324   ZZ=             -2.4648
   XY=              0.0000   XZ=              0.0000   YZ=              0.0000
 Octapole moment (field-independent basis, Debye-Ang**2):
  XXX=              0.0000  YYY=              1.1784  ZZZ=             -0.9339  XYY=              0.0000
  XXY=             -1.1784  XXZ=             -0.5190  XZZ=              0.0000  YZZ=              0.0000
  YYZ=             -0.5190  XYZ=              0.0000
 Hexadecapole moment (field-independent basis, Debye-Ang**3):
 XXXX=             -8.5269 YYYY=             -8.5269 ZZZZ=             -9.0762 XXXY=              0.0000
 XXXZ=              0.0000 YYYX=              0.0000 YYYZ=             -0.1839 ZZZX=              0.0000
 ZZZY=              0.0000 XXYY=             -2.8423 XXZZ=             -3.2462 YYZZ=             -3.2462
 XXYZ=              0.1839 YYXZ=              0.0000 ZZXY=              0.0000
 N-N= 1.204342263521D+01 E-N=-1.558711172358D+02  KE= 5.604010453288D+01
 Symmetry A'   KE= 5.344075348980D+01
 Symmetry A"   KE= 2.599351043077D+00
 Calling FoFJK, ICntrl=      2127 FMM=F ISym2X=1 I1Cent= 0 IOpClX= 0 NMat=1 NMatS=1 NMatT=0.
 ***** Axes restored to original set *****
 -------------------------------------------------------------------
 Center     Atomic                   Forces (Hartrees/Bohr)
 Number     Number              X              Y              Z
 -------------------------------------------------------------------
      1        7           0.000000000    0.000000000    0.017880086
      2        1          -0.009448469    0.000000000   -0.005960029
      3        1           0.004724235    0.008182614   -0.005960029
      4        1           0.004724235   -0.008182614   -0.005960029
 -------------------------------------------------------------------
 Cartesian Forces:  Max     0.017880086 RMS     0.007605283
 -----------------------------------------------------------------------------------------------
                       Internal Coordinate Forces (Hartree/Bohr or radian)
  Cent   Atom   N1       Length/X         N2         Alpha/Y        N3         Beta/Z          J
 -----------------------------------------------------------------------------------------------
      1  N 
         X        1   0.000000(     1)
      2  H        1  -0.008270(     2)      2   0.014192(     5)
      3  H        1  -0.008270(     3)      2   0.014192(     6)      3   0.000000(     8)     0
      4  H        1  -0.008270(     4)      2   0.014192(     7)      3   0.000000(     9)     0
 -----------------------------------------------------------------------------------------------
 Internal  Forces:  Max     0.014192206 RMS     0.009483516

 GradGradGradGradGradGradGradGradGradGradGradGradGradGradGradGradGradGrad
 Berny optimization.
 Search for a local minimum.
 Step number   1 out of a maximum of   20
 All quantities printed in internal units (Hartrees-Bohrs-Radians)
 Second derivative matrix not updated -- first step.
 The second derivative matrix:
                          B1        A1
           B1           1.43065
           A1           0.00000   0.33237
 ITU=  0
     Eigenvalues ---    1.430651000.00000
 RFO step:  Lambda=-4.30117598D-04 EMin= 1.43064988D+00
 Linear search not attempted -- first point.
 Variable       Old X    -DE/DX   Delta X   Delta X   Delta X     New X
                                 (Linear)    (Quad)   (Total)
    B1        1.88973  -0.02481   0.00000  -0.01734  -0.01734   1.87239
    A1        1.74533   0.04258   0.00000   0.00000   0.00000   1.74533
         Item               Value     Threshold  Converged?
 Maximum Force            0.024810     0.000450     NO 
 RMS     Force            0.024810     0.000300     NO 
 Maximum Displacement     0.017337     0.001800     NO 
 RMS     Displacement     0.012259     0.001200     NO 
 Predicted change in Energy=-2.151235D-04
 GradGradGradGradGradGradGradGradGradGradGradGradGradGradGradGradGradGrad

 ---------------------------------------------------------------------------------------------------
                            Z-MATRIX (ANGSTROMS AND DEGREES)
   CD    Cent   Atom    N1       Length/X        N2       Alpha/Y        N3        Beta/Z          J
 ---------------------------------------------------------------------------------------------------
      1      1  N 
      2         X        1   1.000000(     1)
      3      2  H        1   0.990826(     2)      2  100.000(     5)
      4      3  H        1   0.990826(     3)      2  100.000(     6)      3  120.000(     8)      0
      5      4  H        1   0.990826(     4)      2  100.000(     7)      3 -120.000(     9)      0
 ---------------------------------------------------------------------------------------------------
                         Z-Matrix orientation:                         
 ---------------------------------------------------------------------
 Center     Atomic      Atomic             Coordinates (Angstroms)
 Number     Number       Type             X           Y           Z
 ---------------------------------------------------------------------
      1          7           0        0.000000    0.000000    0.000000
      2         -1           0        0.000000    0.000000    1.000000
      3          1           0        0.975773    0.000000   -0.172055
      4          1           0       -0.487887   -0.845044   -0.172055
      5          1           0       -0.487887    0.845044   -0.172055
 ---------------------------------------------------------------------
                    Distance matrix (angstroms):
                    1          2          3          4          5
     1  N    0.000000
     2  X    1.000000   0.000000
     3  H    0.990826   1.525073   0.000000
     4  H    0.990826   1.525073   1.690088   0.000000
     5  H    0.990826   1.525073   1.690088   1.690088   0.000000
 Stoichiometry    H3N
 Framework group  C3V[C3(N),3SGV(H)]
 Deg. of freedom     2
 Full point group                 C3V     NOp   6
 Largest Abelian subgroup         CS      NOp   2
 Largest concise Abelian subgroup CS      NOp   2
                         Standard orientation:                         
 ---------------------------------------------------------------------
 Center     Atomic      Atomic             Coordinates (Angstroms)
 Number     Number       Type             X           Y           Z
 ---------------------------------------------------------------------
      1          7           0        0.000000    0.000000    0.051617
      2          1           0        0.000000    0.975773   -0.120439
      3          1           0        0.845044   -0.487887   -0.120439
      4          1           0       -0.845044   -0.487887   -0.120439
 ---------------------------------------------------------------------
 Rotational constants (GHZ):    334.0276563    334.0276563    175.5549854
 Standard basis: 6-31G(d) (6D, 7F)
 There are    15 symmetry adapted cartesian basis functions of A'  symmetry.
 There are     6 symmetry adapted cartesian basis functions of A"  symmetry.
 There are    15 symmetry adapted basis functions of A'  symmetry.
 There are     6 symmetry adapted basis functions of A"  symmetry.
    21 basis functions,    40 primitive gaussians,    21 cartesian basis functions
     5 alpha electrons        5 beta electrons
       nuclear repulsion energy        12.1549330346 Hartrees.
 NAtoms=    4 NActive=    4 NUniq=    2 SFac= 4.00D+00 NAtFMM=   60 NAOKFM=F Big=F
 Integral buffers will be    131072 words long.
 Raffenetti 1 integral format.
 Two-electron integral symmetry is turned on.
 One-electron integrals computed using PRISM.
 NBasis=    21 RedAO= T EigKep=  2.99D-02  NBF=    15     6
 NBsUse=    21 1.00D-06 EigRej= -1.00D+00 NBFU=    15     6
 Initial guess from the checkpoint file:  "A01.NH3.C3v.100.chk"
 B after Tr=     0.000000    0.000000    0.000000
         Rot=    1.000000    0.000000    0.000000    0.000000 Ang=   0.00 deg.
 Initial guess orbital symmetries:
       Occupied  (A1) (A1) (E) (E) (A1)
       Virtual   (?A) (?A) (?A) (?A) (?A) (?A) (?A) (?A) (?A) (?A)
                 (?A) (?A) (?A) (?A) (?A) (?A)
 Keep R1 ints in memory in symmetry-blocked form, NReq=875485.
 Requested convergence on RMS density matrix=1.00D-08 within 128 cycles.
 Requested convergence on MAX density matrix=1.00D-06.
 Requested convergence on             energy=1.00D-06.
 No special actions if energy rises.
 SCF Done:  E(RHF) =  -56.1781250162     A.U. after    9 cycles
            NFock=  9  Conv=0.13D-08     -V/T= 2.0016
 Calling FoFJK, ICntrl=      2127 FMM=F ISym2X=1 I1Cent= 0 IOpClX= 0 NMat=1 NMatS=1 NMatT=0.
 ***** Axes restored to original set *****
 -------------------------------------------------------------------
 Center     Atomic                   Forces (Hartrees/Bohr)
 Number     Number              X              Y              Z
 -------------------------------------------------------------------
      1        7           0.000000000    0.000000000    0.021858497
      2        1          -0.000277028    0.000000000   -0.007286166
      3        1           0.000138514    0.000239913   -0.007286166
      4        1           0.000138514   -0.000239913   -0.007286166
 -------------------------------------------------------------------
 Cartesian Forces:  Max     0.021858497 RMS     0.007287482
 -----------------------------------------------------------------------------------------------
                       Internal Coordinate Forces (Hartree/Bohr or radian)
  Cent   Atom   N1       Length/X         N2         Alpha/Y        N3         Beta/Z          J
 -----------------------------------------------------------------------------------------------
      1  N 
         X        1   0.000000(     1)
      2  H        1   0.000992(     2)      2   0.013525(     5)
      3  H        1   0.000992(     3)      2   0.013525(     6)      3   0.000000(     8)     0
      4  H        1   0.000992(     4)      2   0.013525(     7)      3   0.000000(     9)     0
 -----------------------------------------------------------------------------------------------
 Internal  Forces:  Max     0.013525352 RMS     0.007829858

 GradGradGradGradGradGradGradGradGradGradGradGradGradGradGradGradGradGrad
 Berny optimization.
 Search for a local minimum.
 Step number   2 out of a maximum of   20
 All quantities printed in internal units (Hartrees-Bohrs-Radians)
 Update second derivatives using D2CorN and points    1    2
 DE= -1.92D-04 DEPred=-2.15D-04 R= 8.91D-01
 TightC=F SS=  1.41D+00  RLast= 1.73D-02 DXNew= 5.0454D-01 5.2010D-02
 Trust test= 8.91D-01 RLast= 1.73D-02 DXMaxT set to 3.00D-01
 The second derivative matrix:
                          B1        A1
           B1           1.60281
           A1          -0.05770   0.33237
 ITU=  1  0
     Eigenvalues ---    1.602811000.00000
 RFO step:  Lambda= 0.00000000D+00 EMin= 1.60281183D+00
 Quartic linear search produced a step of -0.10442.
 Variable       Old X    -DE/DX   Delta X   Delta X   Delta X     New X
                                 (Linear)    (Quad)   (Total)
    B1        1.87239   0.00298   0.00181   0.00000   0.00181   1.87420
    A1        1.74533   0.04058   0.00000   0.00000   0.00000   1.74533
         Item               Value     Threshold  Converged?
 Maximum Force            0.002977     0.000450     NO 
 RMS     Force            0.002977     0.000300     NO 
 Maximum Displacement     0.001810     0.001800     NO 
 RMS     Displacement     0.001280     0.001200     NO 
 Predicted change in Energy=-2.763329D-06
 GradGradGradGradGradGradGradGradGradGradGradGradGradGradGradGradGradGrad

 ---------------------------------------------------------------------------------------------------
                            Z-MATRIX (ANGSTROMS AND DEGREES)
   CD    Cent   Atom    N1       Length/X        N2       Alpha/Y        N3        Beta/Z          J
 ---------------------------------------------------------------------------------------------------
      1      1  N 
      2         X        1   1.000000(     1)
      3      2  H        1   0.991784(     2)      2  100.000(     5)
      4      3  H        1   0.991784(     3)      2  100.000(     6)      3  120.000(     8)      0
      5      4  H        1   0.991784(     4)      2  100.000(     7)      3 -120.000(     9)      0
 ---------------------------------------------------------------------------------------------------
                         Z-Matrix orientation:                         
 ---------------------------------------------------------------------
 Center     Atomic      Atomic             Coordinates (Angstroms)
 Number     Number       Type             X           Y           Z
 ---------------------------------------------------------------------
      1          7           0        0.000000    0.000000    0.000000
      2         -1           0        0.000000    0.000000    1.000000
      3          1           0        0.976716    0.000000   -0.172221
      4          1           0       -0.488358   -0.845861   -0.172221
      5          1           0       -0.488358    0.845861   -0.172221
 ---------------------------------------------------------------------
                    Distance matrix (angstroms):
                    1          2          3          4          5
     1  N    0.000000
     2  X    1.000000   0.000000
     3  H    0.991784   1.525804   0.000000
     4  H    0.991784   1.525804   1.691723   0.000000
     5  H    0.991784   1.525804   1.691723   1.691723   0.000000
 Stoichiometry    H3N
 Framework group  C3V[C3(N),3SGV(H)]
 Deg. of freedom     2
 Full point group                 C3V     NOp   6
 Largest Abelian subgroup         CS      NOp   2
 Largest concise Abelian subgroup CS      NOp   2
                         Standard orientation:                         
 ---------------------------------------------------------------------
 Center     Atomic      Atomic             Coordinates (Angstroms)
 Number     Number       Type             X           Y           Z
 ---------------------------------------------------------------------
      1          7           0        0.000000    0.000000    0.051666
      2          1           0        0.000000    0.976716   -0.120555
      3          1           0        0.845861   -0.488358   -0.120555
      4          1           0       -0.845861   -0.488358   -0.120555
 ---------------------------------------------------------------------
 Rotational constants (GHZ):    333.3826692    333.3826692    175.2159994
 Standard basis: 6-31G(d) (6D, 7F)
 There are    15 symmetry adapted cartesian basis functions of A'  symmetry.
 There are     6 symmetry adapted cartesian basis functions of A"  symmetry.
 There are    15 symmetry adapted basis functions of A'  symmetry.
 There are     6 symmetry adapted basis functions of A"  symmetry.
    21 basis functions,    40 primitive gaussians,    21 cartesian basis functions
     5 alpha electrons        5 beta electrons
       nuclear repulsion energy        12.1431921462 Hartrees.
 NAtoms=    4 NActive=    4 NUniq=    2 SFac= 4.00D+00 NAtFMM=   60 NAOKFM=F Big=F
 Integral buffers will be    131072 words long.
 Raffenetti 1 integral format.
 Two-electron integral symmetry is turned on.
 One-electron integrals computed using PRISM.
 NBasis=    21 RedAO= T EigKep=  3.00D-02  NBF=    15     6
 NBsUse=    21 1.00D-06 EigRej= -1.00D+00 NBFU=    15     6
 Initial guess from the checkpoint file:  "A01.NH3.C3v.100.chk"
 B after Tr=     0.000000    0.000000    0.000000
         Rot=    1.000000    0.000000    0.000000    0.000000 Ang=   0.00 deg.
 Initial guess orbital symmetries:
       Occupied  (A1) (A1) (E) (E) (A1)
       Virtual   (?A) (?A) (?A) (?A) (?A) (?A) (?A) (?A) (?A) (?A)
                 (?A) (?A) (?A) (?A) (?A) (?A)
 Keep R1 ints in memory in symmetry-blocked form, NReq=875485.
 Requested convergence on RMS density matrix=1.00D-08 within 128 cycles.
 Requested convergence on MAX density matrix=1.00D-06.
 Requested convergence on             energy=1.00D-06.
 No special actions if energy rises.
 SCF Done:  E(RHF) =  -56.1781277082     A.U. after    8 cycles
            NFock=  8  Conv=0.46D-08     -V/T= 2.0017
 Calling FoFJK, ICntrl=      2127 FMM=F ISym2X=1 I1Cent= 0 IOpClX= 0 NMat=1 NMatS=1 NMatT=0.
 ***** Axes restored to original set *****
 -------------------------------------------------------------------
 Center     Atomic                   Forces (Hartrees/Bohr)
 Number     Number              X              Y              Z
 -------------------------------------------------------------------
      1        7           0.000000000    0.000000000    0.021430041
      2        1          -0.001259638    0.000000000   -0.007143347
      3        1           0.000629819    0.001090878   -0.007143347
      4        1           0.000629819   -0.001090878   -0.007143347
 -------------------------------------------------------------------
 Cartesian Forces:  Max     0.021430041 RMS     0.007171058
 -----------------------------------------------------------------------------------------------
                       Internal Coordinate Forces (Hartree/Bohr or radian)
  Cent   Atom   N1       Length/X         N2         Alpha/Y        N3         Beta/Z          J
 -----------------------------------------------------------------------------------------------
      1  N 
         X        1   0.000000(     1)
      2  H        1   0.000000(     2)      2   0.013595(     5)
      3  H        1   0.000000(     3)      2   0.013595(     6)      3   0.000000(     8)     0
      4  H        1   0.000000(     4)      2   0.013595(     7)      3   0.000000(     9)     0
 -----------------------------------------------------------------------------------------------
 Internal  Forces:  Max     0.013594617 RMS     0.007848856

 GradGradGradGradGradGradGradGradGradGradGradGradGradGradGradGradGradGrad
 Berny optimization.
 Search for a local minimum.
 Step number   3 out of a maximum of   20
 All quantities printed in internal units (Hartrees-Bohrs-Radians)
 Update second derivatives using D2CorN and points    2    3
 DE= -2.69D-06 DEPred=-2.76D-06 R= 9.74D-01
 TightC=F SS=  1.41D+00  RLast= 1.81D-03 DXNew= 5.0454D-01 5.4311D-03
 Trust test= 9.74D-01 RLast= 1.81D-03 DXMaxT set to 3.00D-01
 The second derivative matrix:
                          B1        A1
           B1           1.64467
           A1          -0.08624   0.33237
 ITU=  1  1  0
     Eigenvalues ---    1.644671000.00000
 RFO step:  Lambda= 0.00000000D+00 EMin= 1.64467311D+00
 Quartic linear search produced a step of -0.00007.
 Variable       Old X    -DE/DX   Delta X   Delta X   Delta X     New X
                                 (Linear)    (Quad)   (Total)
    B1        1.87420   0.00000   0.00000   0.00000   0.00000   1.87420
    A1        1.74533   0.04078   0.00000   0.00000   0.00000   1.74533
         Item               Value     Threshold  Converged?
 Maximum Force            0.000000     0.000450     YES
 RMS     Force            0.000000     0.000300     YES
 Maximum Displacement     0.000000     0.001800     YES
 RMS     Displacement     0.000000     0.001200     YES
 Predicted change in Energy=-1.412180D-14
 Optimization completed.
    -- Stationary point found.
                       ----------------------------
                       !   Optimized Parameters   !
                       ! (Angstroms and Degrees)  !
 ----------------------                            ----------------------
 !      Name          Value   Derivative information (Atomic Units)     !
 ------------------------------------------------------------------------
 !       B1          0.9918   -DE/DX =    0.0                           !
 !       A1        100.0      -DE/DX =    0.0408                        !
 ------------------------------------------------------------------------
 GradGradGradGradGradGradGradGradGradGradGradGradGradGradGradGradGradGrad

 ---------------------------------------------------------------------------------------------------
                            Z-MATRIX (ANGSTROMS AND DEGREES)
   CD    Cent   Atom    N1       Length/X        N2       Alpha/Y        N3        Beta/Z          J
 ---------------------------------------------------------------------------------------------------
      1      1  N 
      2         X        1   1.000000(     1)
      3      2  H        1   0.991784(     2)      2  100.000(     5)
      4      3  H        1   0.991784(     3)      2  100.000(     6)      3  120.000(     8)      0
      5      4  H        1   0.991784(     4)      2  100.000(     7)      3 -120.000(     9)      0
 ---------------------------------------------------------------------------------------------------
                         Z-Matrix orientation:                         
 ---------------------------------------------------------------------
 Center     Atomic      Atomic             Coordinates (Angstroms)
 Number     Number       Type             X           Y           Z
 ---------------------------------------------------------------------
      1          7           0        0.000000    0.000000    0.000000
      2         -1           0        0.000000    0.000000    1.000000
      3          1           0        0.976716    0.000000   -0.172221
      4          1           0       -0.488358   -0.845861   -0.172221
      5          1           0       -0.488358    0.845861   -0.172221
 ---------------------------------------------------------------------
                    Distance matrix (angstroms):
                    1          2          3          4          5
     1  N    0.000000
     2  X    1.000000   0.000000
     3  H    0.991784   1.525804   0.000000
     4  H    0.991784   1.525804   1.691723   0.000000
     5  H    0.991784   1.525804   1.691723   1.691723   0.000000
 Stoichiometry    H3N
 Framework group  C3V[C3(N),3SGV(H)]
 Deg. of freedom     2
 Full point group                 C3V     NOp   6
 Largest Abelian subgroup         CS      NOp   2
 Largest concise Abelian subgroup CS      NOp   2
                         Standard orientation:                         
 ---------------------------------------------------------------------
 Center     Atomic      Atomic             Coordinates (Angstroms)
 Number     Number       Type             X           Y           Z
 ---------------------------------------------------------------------
      1          7           0        0.000000    0.000000    0.051666
      2          1           0        0.000000    0.976716   -0.120555
      3          1           0        0.845861   -0.488358   -0.120555
      4          1           0       -0.845861   -0.488358   -0.120555
 ---------------------------------------------------------------------
 Rotational constants (GHZ):    333.3826692    333.3826692    175.2159994

 **********************************************************************

            Population analysis using the SCF density.

 **********************************************************************

 Orbital symmetries:
       Occupied  (A1) (A1) (E) (E) (A1)
       Virtual   (A1) (E) (E) (E) (E) (A1) (A1) (E) (E) (A1) (E)
                 (E) (A1) (E) (E) (A1)
 The electronic state is 1-A1.
 Alpha  occ. eigenvalues --  -15.51950  -1.12377  -0.64203  -0.64203  -0.38848
 Alpha virt. eigenvalues --    0.23005   0.33042   0.33042   0.92809   0.92809
 Alpha virt. eigenvalues --    0.97178   1.09832   1.25773   1.25773   1.32659
 Alpha virt. eigenvalues --    1.98279   1.98279   2.45884   2.73290   2.73290
 Alpha virt. eigenvalues --    4.12278
          Condensed to atoms (all electrons):
               1          2          3          4
     1  N    7.036603   0.340995   0.340995   0.340995
     2  H    0.340995   0.347738  -0.020965  -0.020965
     3  H    0.340995  -0.020965   0.347738  -0.020965
     4  H    0.340995  -0.020965  -0.020965   0.347738
 Mulliken charges:
               1
     1  N   -1.059588
     2  H    0.353196
     3  H    0.353196
     4  H    0.353196
 Sum of Mulliken charges =   0.00000
 Mulliken charges with hydrogens summed into heavy atoms:
               1
     1  N    0.000000
 Electronic spatial extent (au):  <R**2>=             25.6107
 Charge=              0.0000 electrons
 Dipole moment (field-independent basis, Debye):
    X=              0.0000    Y=              0.0000    Z=             -1.0075  Tot=              1.0075
 Quadrupole moment (field-independent basis, Debye-Ang):
   XX=             -5.5797   YY=             -5.5797   ZZ=             -9.2423
   XY=              0.0000   XZ=              0.0000   YZ=              0.0000
 Traceless Quadrupole moment (field-independent basis, Debye-Ang):
   XX=              1.2209   YY=              1.2209   ZZ=             -2.4417
   XY=              0.0000   XZ=              0.0000   YZ=              0.0000
 Octapole moment (field-independent basis, Debye-Ang**2):
  XXX=              0.0000  YYY=              1.1455  ZZZ=             -0.9402  XYY=              0.0000
  XXY=             -1.1455  XXZ=             -0.5146  XZZ=              0.0000  YZZ=              0.0000
  YYZ=             -0.5146  XYZ=              0.0000
 Hexadecapole moment (field-independent basis, Debye-Ang**3):
 XXXX=             -8.4395 YYYY=             -8.4395 ZZZZ=             -9.0333 XXXY=              0.0000
 XXXZ=              0.0000 YYYX=              0.0000 YYYZ=             -0.1780 ZZZX=              0.0000
 ZZZY=              0.0000 XXYY=             -2.8132 XXZZ=             -3.2137 YYZZ=             -3.2137
 XXYZ=              0.1780 YYXZ=              0.0000 ZZXY=              0.0000
 N-N= 1.214319214623D+01 E-N=-1.560964584386D+02  KE= 5.608545812678D+01
 Symmetry A'   KE= 5.346736730075D+01
 Symmetry A"   KE= 2.618090826036D+00
 1\1\GINC-C11-03\POpt\RHF\6-31G(d)\H3N1\EPLUHAR\02-Sep-2016\1\\# opt=(z
 -matrix) rhf/6-31g(d)\\Ammonia c3v\\0,1\N\X,1,1.\H,1,B1,2,A1\H,1,B1,2,
 A1,3,120.,0\H,1,B1,2,A1,3,-120.,0\\B1=0.99178391\A1=100.\\Version=ES64
 L-G09RevD.01\State=1-A1\HF=-56.1781277\RMSD=4.601e-09\RMSF=7.171e-03\D
 ipole=0.,0.,-0.3963698\Quadrupole=0.9076843,0.9076843,-1.8153687,0.,0.
 ,0.\PG=C03V [C3(N1),3SGV(H1)]\\@


 "A LITTLE BIT GOES A LONG WAY"
 R.S. MULLIKEN AS QUOTED BY K. RUEDENBERG
 Job cpu time:       0 days  0 hours  0 minutes 17.6 seconds.
 File lengths (MBytes):  RWF=      5 Int=      0 D2E=      0 Chk=      1 Scr=      1
 Normal termination of Gaussian 09 at Fri Sep  2 13:31:39 2016.
