 Entering Gaussian System, Link 0=g09
 Initial command:
 /share/sw/gaussian/D.01/g09/l1.exe "/local/scratch/epluhar/Gau-126452.inp" -scrdir="/local/scratch/epluhar/"
 Entering Link 1 = /share/sw/gaussian/D.01/g09/l1.exe PID=    126453.
  
 Copyright (c) 1988,1990,1992,1993,1995,1998,2003,2009,2013,
            Gaussian, Inc.  All Rights Reserved.
  
 This is part of the Gaussian(R) 09 program.  It is based on
 the Gaussian(R) 03 system (copyright 2003, Gaussian, Inc.),
 the Gaussian(R) 98 system (copyright 1998, Gaussian, Inc.),
 the Gaussian(R) 94 system (copyright 1995, Gaussian, Inc.),
 the Gaussian 92(TM) system (copyright 1992, Gaussian, Inc.),
 the Gaussian 90(TM) system (copyright 1990, Gaussian, Inc.),
 the Gaussian 88(TM) system (copyright 1988, Gaussian, Inc.),
 the Gaussian 86(TM) system (copyright 1986, Carnegie Mellon
 University), and the Gaussian 82(TM) system (copyright 1983,
 Carnegie Mellon University). Gaussian is a federally registered
 trademark of Gaussian, Inc.
  
 This software contains proprietary and confidential information,
 including trade secrets, belonging to Gaussian, Inc.
  
 This software is provided under written license and may be
 used, copied, transmitted, or stored only in accord with that
 written license.
  
 The following legend is applicable only to US Government
 contracts under FAR:
  
                    RESTRICTED RIGHTS LEGEND
  
 Use, reproduction and disclosure by the US Government is
 subject to restrictions as set forth in subparagraphs (a)
 and (c) of the Commercial Computer Software - Restricted
 Rights clause in FAR 52.227-19.
  
 Gaussian, Inc.
 340 Quinnipiac St., Bldg. 40, Wallingford CT 06492
  
  
 ---------------------------------------------------------------
 Warning -- This program may not be used in any manner that
 competes with the business of Gaussian, Inc. or will provide
 assistance to any competitor of Gaussian, Inc.  The licensee
 of this program is prohibited from giving any competitor of
 Gaussian, Inc. access to this program.  By using this program,
 the user acknowledges that Gaussian, Inc. is engaged in the
 business of creating and licensing software in the field of
 computational chemistry and represents and warrants to the
 licensee that it is not a competitor of Gaussian, Inc. and that
 it will not use this program in any manner prohibited above.
 ---------------------------------------------------------------
  

 Cite this work as:
 Gaussian 09, Revision D.01,
 M. J. Frisch, G. W. Trucks, H. B. Schlegel, G. E. Scuseria, 
 M. A. Robb, J. R. Cheeseman, G. Scalmani, V. Barone, B. Mennucci, 
 G. A. Petersson, H. Nakatsuji, M. Caricato, X. Li, H. P. Hratchian, 
 A. F. Izmaylov, J. Bloino, G. Zheng, J. L. Sonnenberg, M. Hada, 
 M. Ehara, K. Toyota, R. Fukuda, J. Hasegawa, M. Ishida, T. Nakajima, 
 Y. Honda, O. Kitao, H. Nakai, T. Vreven, J. A. Montgomery, Jr., 
 J. E. Peralta, F. Ogliaro, M. Bearpark, J. J. Heyd, E. Brothers, 
 K. N. Kudin, V. N. Staroverov, T. Keith, R. Kobayashi, J. Normand, 
 K. Raghavachari, A. Rendell, J. C. Burant, S. S. Iyengar, J. Tomasi, 
 M. Cossi, N. Rega, J. M. Millam, M. Klene, J. E. Knox, J. B. Cross, 
 V. Bakken, C. Adamo, J. Jaramillo, R. Gomperts, R. E. Stratmann, 
 O. Yazyev, A. J. Austin, R. Cammi, C. Pomelli, J. W. Ochterski, 
 R. L. Martin, K. Morokuma, V. G. Zakrzewski, G. A. Voth, 
 P. Salvador, J. J. Dannenberg, S. Dapprich, A. D. Daniels, 
 O. Farkas, J. B. Foresman, J. V. Ortiz, J. Cioslowski, 
 and D. J. Fox, Gaussian, Inc., Wallingford CT, 2013.
 
 ******************************************
 Gaussian 09:  ES64L-G09RevD.01 24-Apr-2013
                 2-Sep-2016 
 ******************************************
 %nprocshared=2
 Will use up to    2 processors via shared memory.
 %mem=256MW
 %chk=A01.NH3.C3v.118.chk
 -----------------------------
 # opt=(z-matrix) rhf/6-31g(d)
 -----------------------------
 1/10=7,18=40,38=1/1,3;
 2/12=2,17=6,18=5,29=3,40=1/2;
 3/5=1,6=6,7=1,11=1,16=1,25=1,30=1,71=1,116=1/1,2,3;
 4//1;
 5/5=2,38=5/2;
 6/7=2,8=2,9=2,10=2,28=1/1;
 7/29=1/1,2,3,16;
 1/10=7,18=40/3(2);
 2/29=3/2;
 99//99;
 2/29=3/2;
 3/5=1,6=6,7=1,11=1,16=1,25=1,30=1,71=1,116=1/1,2,3;
 4/5=5,16=3,69=1/1;
 5/5=2,38=5/2;
 7//1,2,3,16;
 1/18=40/3(-5);
 2/29=3/2;
 6/7=2,8=2,9=2,10=2,19=2,28=1/1;
 99/9=1/99;
 -----------
 Ammonia c3v
 -----------
 Symbolic Z-matrix:
 Charge =  0 Multiplicity = 1
 N
 X                    1     1. 
 H                    1    B1       2    A1
 H                    1    B1       2    A1       3     120.     0
 H                    1    B1       2    A1       3    -120.     0
       Variables:
  B1                    1.                       
       Constants:
  A1                  118.                       
 

 GradGradGradGradGradGradGradGradGradGradGradGradGradGradGradGradGradGrad
 Berny optimization.
 Initialization pass.
                       ----------------------------
                       !    Initial Parameters    !
                       ! (Angstroms and Degrees)  !
 ----------------------                            ----------------------
 !      Name          Value   Derivative information (Atomic Units)     !
 ------------------------------------------------------------------------
 !       B1          1.0      estimate D2E/DX2                          !
 !       A1        118.0      Frozen                                    !
 ------------------------------------------------------------------------
 Trust Radius=3.00D-01 FncErr=1.00D-07 GrdErr=1.00D-07
 Number of steps in this run=     20 maximum allowed number of steps=    100.
 GradGradGradGradGradGradGradGradGradGradGradGradGradGradGradGradGradGrad

 ---------------------------------------------------------------------------------------------------
                            Z-MATRIX (ANGSTROMS AND DEGREES)
   CD    Cent   Atom    N1       Length/X        N2       Alpha/Y        N3        Beta/Z          J
 ---------------------------------------------------------------------------------------------------
      1      1  N 
      2         X        1   1.000000(     1)
      3      2  H        1   1.000000(     2)      2  118.000(     5)
      4      3  H        1   1.000000(     3)      2  118.000(     6)      3  120.000(     8)      0
      5      4  H        1   1.000000(     4)      2  118.000(     7)      3 -120.000(     9)      0
 ---------------------------------------------------------------------------------------------------
                         Z-Matrix orientation:                         
 ---------------------------------------------------------------------
 Center     Atomic      Atomic             Coordinates (Angstroms)
 Number     Number       Type             X           Y           Z
 ---------------------------------------------------------------------
      1          7           0        0.000000    0.000000    0.000000
      2         -1           0        0.000000    0.000000    1.000000
      3          1           0        0.882948    0.000000   -0.469472
      4          1           0       -0.441474   -0.764655   -0.469472
      5          1           0       -0.441474    0.764655   -0.469472
 ---------------------------------------------------------------------
                    Distance matrix (angstroms):
                    1          2          3          4          5
     1  N    0.000000
     2  X    1.000000   0.000000
     3  H    1.000000   1.714335   0.000000
     4  H    1.000000   1.714335   1.529310   0.000000
     5  H    1.000000   1.714335   1.529310   1.529310   0.000000
 Stoichiometry    H3N
 Framework group  C3V[C3(N),3SGV(H)]
 Deg. of freedom     2
 Full point group                 C3V     NOp   6
 Largest Abelian subgroup         CS      NOp   2
 Largest concise Abelian subgroup CS      NOp   2
                         Standard orientation:                         
 ---------------------------------------------------------------------
 Center     Atomic      Atomic             Coordinates (Angstroms)
 Number     Number       Type             X           Y           Z
 ---------------------------------------------------------------------
      1          7           0        0.000000    0.000000    0.140841
      2          1           0        0.000000    0.882948   -0.328630
      3          1           0        0.764655   -0.441474   -0.328630
      4          1           0       -0.764655   -0.441474   -0.328630
 ---------------------------------------------------------------------
 Rotational constants (GHZ):    292.7023218    292.7023218    214.4079796
 Standard basis: 6-31G(d) (6D, 7F)
 There are    15 symmetry adapted cartesian basis functions of A'  symmetry.
 There are     6 symmetry adapted cartesian basis functions of A"  symmetry.
 There are    15 symmetry adapted basis functions of A'  symmetry.
 There are     6 symmetry adapted basis functions of A"  symmetry.
    21 basis functions,    40 primitive gaussians,    21 cartesian basis functions
     5 alpha electrons        5 beta electrons
       nuclear repulsion energy        12.1507918377 Hartrees.
 NAtoms=    4 NActive=    4 NUniq=    2 SFac= 4.00D+00 NAtFMM=   60 NAOKFM=F Big=F
 Integral buffers will be    131072 words long.
 Raffenetti 1 integral format.
 Two-electron integral symmetry is turned on.
 One-electron integrals computed using PRISM.
 NBasis=    21 RedAO= T EigKep=  2.66D-02  NBF=    15     6
 NBsUse=    21 1.00D-06 EigRej= -1.00D+00 NBFU=    15     6
 ExpMin= 1.61D-01 ExpMax= 4.17D+03 ExpMxC= 6.27D+02 IAcc=1 IRadAn=         1 AccDes= 0.00D+00
 Harris functional with IExCor=  205 and IRadAn=       1 diagonalized for initial guess.
 HarFok:  IExCor=  205 AccDes= 0.00D+00 IRadAn=         1 IDoV= 1 UseB2=F ITyADJ=14
 ICtDFT=  3500011 ScaDFX=  1.000000  1.000000  1.000000  1.000000
 FoFCou: FMM=F IPFlag=           0 FMFlag=      100000 FMFlg1=           0
         NFxFlg=           0 DoJE=T BraDBF=F KetDBF=T FulRan=T
         wScrn=  0.000000 ICntrl=     500 IOpCl=  0 I1Cent=   200000004 NGrid=           0
         NMat0=    1 NMatS0=      1 NMatT0=    0 NMatD0=    1 NMtDS0=    0 NMtDT0=    0
 Petite list used in FoFCou.
 Initial guess orbital symmetries:
       Occupied  (A1) (A1) (E) (E) (A1)
       Virtual   (A1) (E) (E) (E) (E) (A1) (E) (E) (A1) (A1) (E)
                 (E) (A1) (E) (E) (A1)
 The electronic state of the initial guess is 1-A1.
 Keep R1 ints in memory in symmetry-blocked form, NReq=875485.
 Requested convergence on RMS density matrix=1.00D-08 within 128 cycles.
 Requested convergence on MAX density matrix=1.00D-06.
 Requested convergence on             energy=1.00D-06.
 No special actions if energy rises.
 SCF Done:  E(RHF) =  -56.1803210800     A.U. after   10 cycles
            NFock= 10  Conv=0.18D-08     -V/T= 2.0004

 **********************************************************************

            Population analysis using the SCF density.

 **********************************************************************

 Orbital symmetries:
       Occupied  (A1) (A1) (E) (E) (A1)
       Virtual   (A1) (E) (E) (E) (E) (A1) (E) (E) (A1) (A1) (E)
                 (E) (A1) (E) (E) (A1)
 The electronic state is 1-A1.
 Alpha  occ. eigenvalues --  -15.54074  -1.15849  -0.61893  -0.61893  -0.44383
 Alpha virt. eigenvalues --    0.21804   0.32286   0.32286   0.87571   0.87571
 Alpha virt. eigenvalues --    0.96851   1.22323   1.22323   1.25652   1.51143
 Alpha virt. eigenvalues --    1.95681   1.95681   2.15750   2.77631   2.77631
 Alpha virt. eigenvalues --    4.07928
          Condensed to atoms (all electrons):
               1          2          3          4
     1  N    6.977387   0.327727   0.327727   0.327727
     2  H    0.327727   0.414911  -0.031414  -0.031414
     3  H    0.327727  -0.031414   0.414911  -0.031414
     4  H    0.327727  -0.031414  -0.031414   0.414911
 Mulliken charges:
               1
     1  N   -0.960569
     2  H    0.320190
     3  H    0.320190
     4  H    0.320190
 Sum of Mulliken charges =   0.00000
 Mulliken charges with hydrogens summed into heavy atoms:
               1
     1  N    0.000000
 Electronic spatial extent (au):  <R**2>=             25.9080
 Charge=              0.0000 electrons
 Dipole moment (field-independent basis, Debye):
    X=              0.0000    Y=              0.0000    Z=             -2.2780  Tot=              2.2780
 Quadrupole moment (field-independent basis, Debye-Ang):
   XX=             -6.4157   YY=             -6.4157   ZZ=             -8.5588
   XY=              0.0000   XZ=              0.0000   YZ=              0.0000
 Traceless Quadrupole moment (field-independent basis, Debye-Ang):
   XX=              0.7144   YY=              0.7144   ZZ=             -1.4287
   XY=              0.0000   XZ=              0.0000   YZ=              0.0000
 Octapole moment (field-independent basis, Debye-Ang**2):
  XXX=              0.0000  YYY=              0.6445  ZZZ=             -2.2179  XYY=              0.0000
  XXY=             -0.6445  XXZ=             -1.0731  XZZ=              0.0000  YZZ=              0.0000
  YYZ=             -1.0731  XYZ=              0.0000
 Hexadecapole moment (field-independent basis, Debye-Ang**3):
 XXXX=             -9.3667 YYYY=             -9.3667 ZZZZ=            -10.1097 XXXY=              0.0000
 XXXZ=              0.0000 YYYX=              0.0000 YYYZ=             -0.3177 ZZZX=              0.0000
 ZZZY=              0.0000 XXYY=             -3.1222 XXZZ=             -3.1662 YYZZ=             -3.1662
 XXYZ=              0.3177 YYXZ=              0.0000 ZZXY=              0.0000
 N-N= 1.215079183768D+01 E-N=-1.560605529962D+02  KE= 5.616014902481D+01
 Symmetry A'   KE= 5.352560123404D+01
 Symmetry A"   KE= 2.634547790766D+00
 Calling FoFJK, ICntrl=      2127 FMM=F ISym2X=1 I1Cent= 0 IOpClX= 0 NMat=1 NMatS=1 NMatT=0.
 ***** Axes restored to original set *****
 -------------------------------------------------------------------
 Center     Atomic                   Forces (Hartrees/Bohr)
 Number     Number              X              Y              Z
 -------------------------------------------------------------------
      1        7           0.000000000    0.000000000   -0.022543216
      2        1           0.015173911    0.000000000    0.007514405
      3        1          -0.007586956   -0.013140993    0.007514405
      4        1          -0.007586956    0.013140993    0.007514405
 -------------------------------------------------------------------
 Cartesian Forces:  Max     0.022543216 RMS     0.010678398
 -----------------------------------------------------------------------------------------------
                       Internal Coordinate Forces (Hartree/Bohr or radian)
  Cent   Atom   N1       Length/X         N2         Alpha/Y        N3         Beta/Z          J
 -----------------------------------------------------------------------------------------------
      1  N 
         X        1   0.000000(     1)
      2  H        1   0.009870(     2)      2  -0.026000(     5)
      3  H        1   0.009870(     3)      2  -0.026000(     6)      3   0.000000(     8)     0
      4  H        1   0.009870(     4)      2  -0.026000(     7)      3   0.000000(     9)     0
 -----------------------------------------------------------------------------------------------
 Internal  Forces:  Max     0.025999884 RMS     0.016056258

 GradGradGradGradGradGradGradGradGradGradGradGradGradGradGradGradGradGrad
 Berny optimization.
 Search for a local minimum.
 Step number   1 out of a maximum of   20
 All quantities printed in internal units (Hartrees-Bohrs-Radians)
 Second derivative matrix not updated -- first step.
 The second derivative matrix:
                          B1        A1
           B1           1.43065
           A1           0.00000   0.76425
 ITU=  0
     Eigenvalues ---    1.430651000.00000
 RFO step:  Lambda=-6.12568608D-04 EMin= 1.43064988D+00
 Linear search not attempted -- first point.
 Variable       Old X    -DE/DX   Delta X   Delta X   Delta X     New X
                                 (Linear)    (Quad)   (Total)
    B1        1.88973   0.02961   0.00000   0.02069   0.02069   1.91041
    A1        2.05949  -0.07800   0.00000   0.00000   0.00000   2.05949
         Item               Value     Threshold  Converged?
 Maximum Force            0.029610     0.000450     NO 
 RMS     Force            0.029610     0.000300     NO 
 Maximum Displacement     0.020688     0.001800     NO 
 RMS     Displacement     0.014629     0.001200     NO 
 Predicted change in Energy=-3.064154D-04
 GradGradGradGradGradGradGradGradGradGradGradGradGradGradGradGradGradGrad

 ---------------------------------------------------------------------------------------------------
                            Z-MATRIX (ANGSTROMS AND DEGREES)
   CD    Cent   Atom    N1       Length/X        N2       Alpha/Y        N3        Beta/Z          J
 ---------------------------------------------------------------------------------------------------
      1      1  N 
      2         X        1   1.000000(     1)
      3      2  H        1   1.010948(     2)      2  118.000(     5)
      4      3  H        1   1.010948(     3)      2  118.000(     6)      3  120.000(     8)      0
      5      4  H        1   1.010948(     4)      2  118.000(     7)      3 -120.000(     9)      0
 ---------------------------------------------------------------------------------------------------
                         Z-Matrix orientation:                         
 ---------------------------------------------------------------------
 Center     Atomic      Atomic             Coordinates (Angstroms)
 Number     Number       Type             X           Y           Z
 ---------------------------------------------------------------------
      1          7           0        0.000000    0.000000    0.000000
      2         -1           0        0.000000    0.000000    1.000000
      3          1           0        0.892614    0.000000   -0.474611
      4          1           0       -0.446307   -0.773026   -0.474611
      5          1           0       -0.446307    0.773026   -0.474611
 ---------------------------------------------------------------------
                    Distance matrix (angstroms):
                    1          2          3          4          5
     1  N    0.000000
     2  X    1.000000   0.000000
     3  H    1.010948   1.723728   0.000000
     4  H    1.010948   1.723728   1.546052   0.000000
     5  H    1.010948   1.723728   1.546052   1.546052   0.000000
 Stoichiometry    H3N
 Framework group  C3V[C3(N),3SGV(H)]
 Deg. of freedom     2
 Full point group                 C3V     NOp   6
 Largest Abelian subgroup         CS      NOp   2
 Largest concise Abelian subgroup CS      NOp   2
                         Standard orientation:                         
 ---------------------------------------------------------------------
 Center     Atomic      Atomic             Coordinates (Angstroms)
 Number     Number       Type             X           Y           Z
 ---------------------------------------------------------------------
      1          7           0        0.000000    0.000000    0.142383
      2          1           0        0.000000    0.892614   -0.332228
      3          1           0        0.773026   -0.446307   -0.332228
      4          1           0       -0.773026   -0.446307   -0.332228
 ---------------------------------------------------------------------
 Rotational constants (GHZ):    286.3972718    286.3972718    209.7894545
 Standard basis: 6-31G(d) (6D, 7F)
 There are    15 symmetry adapted cartesian basis functions of A'  symmetry.
 There are     6 symmetry adapted cartesian basis functions of A"  symmetry.
 There are    15 symmetry adapted basis functions of A'  symmetry.
 There are     6 symmetry adapted basis functions of A"  symmetry.
    21 basis functions,    40 primitive gaussians,    21 cartesian basis functions
     5 alpha electrons        5 beta electrons
       nuclear repulsion energy        12.0192103367 Hartrees.
 NAtoms=    4 NActive=    4 NUniq=    2 SFac= 4.00D+00 NAtFMM=   60 NAOKFM=F Big=F
 Integral buffers will be    131072 words long.
 Raffenetti 1 integral format.
 Two-electron integral symmetry is turned on.
 One-electron integrals computed using PRISM.
 NBasis=    21 RedAO= T EigKep=  2.73D-02  NBF=    15     6
 NBsUse=    21 1.00D-06 EigRej= -1.00D+00 NBFU=    15     6
 Initial guess from the checkpoint file:  "A01.NH3.C3v.118.chk"
 B after Tr=     0.000000    0.000000    0.000000
         Rot=    1.000000    0.000000    0.000000    0.000000 Ang=   0.00 deg.
 Initial guess orbital symmetries:
       Occupied  (A1) (A1) (E) (E) (A1)
       Virtual   (?A) (?A) (?A) (?A) (?A) (?A) (?A) (?A) (?A) (?A)
                 (?A) (?A) (?A) (?A) (?A) (?A)
 ExpMin= 1.61D-01 ExpMax= 4.17D+03 ExpMxC= 6.27D+02 IAcc=1 IRadAn=         1 AccDes= 0.00D+00
 Harris functional with IExCor=  205 and IRadAn=       1 diagonalized for initial guess.
 HarFok:  IExCor=  205 AccDes= 0.00D+00 IRadAn=         1 IDoV= 1 UseB2=F ITyADJ=14
 ICtDFT=  3500011 ScaDFX=  1.000000  1.000000  1.000000  1.000000
 FoFCou: FMM=F IPFlag=           0 FMFlag=      100000 FMFlg1=           0
         NFxFlg=           0 DoJE=T BraDBF=F KetDBF=T FulRan=T
         wScrn=  0.000000 ICntrl=     500 IOpCl=  0 I1Cent=   200000004 NGrid=           0
         NMat0=    1 NMatS0=      1 NMatT0=    0 NMatD0=    1 NMtDS0=    0 NMtDT0=    0
 Petite list used in FoFCou.
 Keep R1 ints in memory in symmetry-blocked form, NReq=875485.
 Requested convergence on RMS density matrix=1.00D-08 within 128 cycles.
 Requested convergence on MAX density matrix=1.00D-06.
 Requested convergence on             energy=1.00D-06.
 No special actions if energy rises.
 SCF Done:  E(RHF) =  -56.1806109067     A.U. after    9 cycles
            NFock=  9  Conv=0.12D-08     -V/T= 2.0014
 Calling FoFJK, ICntrl=      2127 FMM=F ISym2X=1 I1Cent= 0 IOpClX= 0 NMat=1 NMatS=1 NMatT=0.
 ***** Axes restored to original set *****
 -------------------------------------------------------------------
 Center     Atomic                   Forces (Hartrees/Bohr)
 Number     Number              X              Y              Z
 -------------------------------------------------------------------
      1        7           0.000000000    0.000000000   -0.034569247
      2        1           0.005658417    0.000000000    0.011523082
      3        1          -0.002829209   -0.004900333    0.011523082
      4        1          -0.002829209    0.004900333    0.011523082
 -------------------------------------------------------------------
 Cartesian Forces:  Max     0.034569247 RMS     0.011865321
 -----------------------------------------------------------------------------------------------
                       Internal Coordinate Forces (Hartree/Bohr or radian)
  Cent   Atom   N1       Length/X         N2         Alpha/Y        N3         Beta/Z          J
 -----------------------------------------------------------------------------------------------
      1  N 
         X        1   0.000000(     1)
      2  H        1  -0.000414(     2)      2  -0.024512(     5)
      3  H        1  -0.000414(     3)      2  -0.024512(     6)      3   0.000000(     8)     0
      4  H        1  -0.000414(     4)      2  -0.024512(     7)      3   0.000000(     9)     0
 -----------------------------------------------------------------------------------------------
 Internal  Forces:  Max     0.024512034 RMS     0.014154044

 GradGradGradGradGradGradGradGradGradGradGradGradGradGradGradGradGradGrad
 Berny optimization.
 Search for a local minimum.
 Step number   2 out of a maximum of   20
 All quantities printed in internal units (Hartrees-Bohrs-Radians)
 Update second derivatives using D2CorN and points    1    2
 DE= -2.90D-04 DEPred=-3.06D-04 R= 9.46D-01
 TightC=F SS=  1.41D+00  RLast= 2.07D-02 DXNew= 5.0454D-01 6.2064D-02
 Trust test= 9.46D-01 RLast= 2.07D-02 DXMaxT set to 3.00D-01
 The second derivative matrix:
                          B1        A1
           B1           1.49125
           A1          -0.10788   0.76425
 ITU=  1  0
     Eigenvalues ---    1.491251000.00000
 RFO step:  Lambda= 0.00000000D+00 EMin= 1.49125004D+00
 Quartic linear search produced a step of -0.04158.
 Variable       Old X    -DE/DX   Delta X   Delta X   Delta X     New X
                                 (Linear)    (Quad)   (Total)
    B1        1.91041  -0.00124  -0.00086   0.00000  -0.00086   1.90955
    A1        2.05949  -0.07354   0.00000   0.00000   0.00000   2.05949
         Item               Value     Threshold  Converged?
 Maximum Force            0.001241     0.000450     NO 
 RMS     Force            0.001241     0.000300     NO 
 Maximum Displacement     0.000860     0.001800     YES
 RMS     Displacement     0.000608     0.001200     YES
 Predicted change in Energy=-5.158092D-07
 GradGradGradGradGradGradGradGradGradGradGradGradGradGradGradGradGradGrad

 ---------------------------------------------------------------------------------------------------
                            Z-MATRIX (ANGSTROMS AND DEGREES)
   CD    Cent   Atom    N1       Length/X        N2       Alpha/Y        N3        Beta/Z          J
 ---------------------------------------------------------------------------------------------------
      1      1  N 
      2         X        1   1.000000(     1)
      3      2  H        1   1.010492(     2)      2  118.000(     5)
      4      3  H        1   1.010492(     3)      2  118.000(     6)      3  120.000(     8)      0
      5      4  H        1   1.010492(     4)      2  118.000(     7)      3 -120.000(     9)      0
 ---------------------------------------------------------------------------------------------------
                         Z-Matrix orientation:                         
 ---------------------------------------------------------------------
 Center     Atomic      Atomic             Coordinates (Angstroms)
 Number     Number       Type             X           Y           Z
 ---------------------------------------------------------------------
      1          7           0        0.000000    0.000000    0.000000
      2         -1           0        0.000000    0.000000    1.000000
      3          1           0        0.892212    0.000000   -0.474397
      4          1           0       -0.446106   -0.772678   -0.474397
      5          1           0       -0.446106    0.772678   -0.474397
 ---------------------------------------------------------------------
                    Distance matrix (angstroms):
                    1          2          3          4          5
     1  N    0.000000
     2  X    1.000000   0.000000
     3  H    1.010492   1.723337   0.000000
     4  H    1.010492   1.723337   1.545356   0.000000
     5  H    1.010492   1.723337   1.545356   1.545356   0.000000
 Stoichiometry    H3N
 Framework group  C3V[C3(N),3SGV(H)]
 Deg. of freedom     2
 Full point group                 C3V     NOp   6
 Largest Abelian subgroup         CS      NOp   2
 Largest concise Abelian subgroup CS      NOp   2
                         Standard orientation:                         
 ---------------------------------------------------------------------
 Center     Atomic      Atomic             Coordinates (Angstroms)
 Number     Number       Type             X           Y           Z
 ---------------------------------------------------------------------
      1          7           0        0.000000    0.000000    0.142319
      2          1           0        0.000000    0.892212   -0.332078
      3          1           0        0.772678   -0.446106   -0.332078
      4          1           0       -0.772678   -0.446106   -0.332078
 ---------------------------------------------------------------------
 Rotational constants (GHZ):    286.6553319    286.6553319    209.9784865
 Standard basis: 6-31G(d) (6D, 7F)
 There are    15 symmetry adapted cartesian basis functions of A'  symmetry.
 There are     6 symmetry adapted cartesian basis functions of A"  symmetry.
 There are    15 symmetry adapted basis functions of A'  symmetry.
 There are     6 symmetry adapted basis functions of A"  symmetry.
    21 basis functions,    40 primitive gaussians,    21 cartesian basis functions
     5 alpha electrons        5 beta electrons
       nuclear repulsion energy        12.0246241087 Hartrees.
 NAtoms=    4 NActive=    4 NUniq=    2 SFac= 4.00D+00 NAtFMM=   60 NAOKFM=F Big=F
 Integral buffers will be    131072 words long.
 Raffenetti 1 integral format.
 Two-electron integral symmetry is turned on.
 One-electron integrals computed using PRISM.
 NBasis=    21 RedAO= T EigKep=  2.72D-02  NBF=    15     6
 NBsUse=    21 1.00D-06 EigRej= -1.00D+00 NBFU=    15     6
 Initial guess from the checkpoint file:  "A01.NH3.C3v.118.chk"
 B after Tr=     0.000000    0.000000    0.000000
         Rot=    1.000000    0.000000    0.000000    0.000000 Ang=   0.00 deg.
 Initial guess orbital symmetries:
       Occupied  (A1) (A1) (E) (E) (A1)
       Virtual   (?A) (?A) (?A) (?A) (?A) (?A) (?A) (?A) (?A) (?A)
                 (?A) (?A) (?A) (?A) (?A) (?A)
 Keep R1 ints in memory in symmetry-blocked form, NReq=875485.
 Requested convergence on RMS density matrix=1.00D-08 within 128 cycles.
 Requested convergence on MAX density matrix=1.00D-06.
 Requested convergence on             energy=1.00D-06.
 No special actions if energy rises.
 SCF Done:  E(RHF) =  -56.1806114406     A.U. after    7 cycles
            NFock=  7  Conv=0.41D-08     -V/T= 2.0013
 Calling FoFJK, ICntrl=      2127 FMM=F ISym2X=1 I1Cent= 0 IOpClX= 0 NMat=1 NMatS=1 NMatT=0.
 ***** Axes restored to original set *****
 -------------------------------------------------------------------
 Center     Atomic                   Forces (Hartrees/Bohr)
 Number     Number              X              Y              Z
 -------------------------------------------------------------------
      1        7           0.000000000    0.000000000   -0.034087593
      2        1           0.006041632    0.000000000    0.011362531
      3        1          -0.003020816   -0.005232207    0.011362531
      4        1          -0.003020816    0.005232207    0.011362531
 -------------------------------------------------------------------
 Cartesian Forces:  Max     0.034087593 RMS     0.011757229
 -----------------------------------------------------------------------------------------------
                       Internal Coordinate Forces (Hartree/Bohr or radian)
  Cent   Atom   N1       Length/X         N2         Alpha/Y        N3         Beta/Z          J
 -----------------------------------------------------------------------------------------------
      1  N 
         X        1   0.000000(     1)
      2  H        1   0.000000(     2)      2  -0.024574(     5)
      3  H        1   0.000000(     3)      2  -0.024574(     6)      3   0.000000(     8)     0
      4  H        1   0.000000(     4)      2  -0.024574(     7)      3   0.000000(     9)     0
 -----------------------------------------------------------------------------------------------
 Internal  Forces:  Max     0.024573848 RMS     0.014187718

 GradGradGradGradGradGradGradGradGradGradGradGradGradGradGradGradGradGrad
 Berny optimization.
 Search for a local minimum.
 Step number   3 out of a maximum of   20
 All quantities printed in internal units (Hartrees-Bohrs-Radians)
 Update second derivatives using D2CorN and points    1    3
 DE= -5.34D-07 DEPred=-5.16D-07 R= 1.04D+00
 Trust test= 1.04D+00 RLast= 8.60D-04 DXMaxT set to 3.00D-01
 The second derivative matrix:
                          B1        A1
           B1           1.49334
           A1          -0.16182   0.76425
 ITU=  0  1  0
     Eigenvalues ---    1.493341000.00000
 RFO step:  Lambda= 0.00000000D+00 EMin= 1.49334029D+00
 Quartic linear search produced a step of -0.00014.
 Variable       Old X    -DE/DX   Delta X   Delta X   Delta X     New X
                                 (Linear)    (Quad)   (Total)
    B1        1.90955   0.00000   0.00000   0.00000   0.00000   1.90955
    A1        2.05949  -0.07372   0.00000   0.00000   0.00000   2.05949
         Item               Value     Threshold  Converged?
 Maximum Force            0.000000     0.000450     YES
 RMS     Force            0.000000     0.000300     YES
 Maximum Displacement     0.000000     0.001800     YES
 RMS     Displacement     0.000000     0.001200     YES
 Predicted change in Energy=-1.066782D-14
 Optimization completed.
    -- Stationary point found.
                       ----------------------------
                       !   Optimized Parameters   !
                       ! (Angstroms and Degrees)  !
 ----------------------                            ----------------------
 !      Name          Value   Derivative information (Atomic Units)     !
 ------------------------------------------------------------------------
 !       B1          1.0105   -DE/DX =    0.0                           !
 !       A1        118.0      -DE/DX =   -0.0737                        !
 ------------------------------------------------------------------------
 GradGradGradGradGradGradGradGradGradGradGradGradGradGradGradGradGradGrad

 ---------------------------------------------------------------------------------------------------
                            Z-MATRIX (ANGSTROMS AND DEGREES)
   CD    Cent   Atom    N1       Length/X        N2       Alpha/Y        N3        Beta/Z          J
 ---------------------------------------------------------------------------------------------------
      1      1  N 
      2         X        1   1.000000(     1)
      3      2  H        1   1.010492(     2)      2  118.000(     5)
      4      3  H        1   1.010492(     3)      2  118.000(     6)      3  120.000(     8)      0
      5      4  H        1   1.010492(     4)      2  118.000(     7)      3 -120.000(     9)      0
 ---------------------------------------------------------------------------------------------------
                         Z-Matrix orientation:                         
 ---------------------------------------------------------------------
 Center     Atomic      Atomic             Coordinates (Angstroms)
 Number     Number       Type             X           Y           Z
 ---------------------------------------------------------------------
      1          7           0        0.000000    0.000000    0.000000
      2         -1           0        0.000000    0.000000    1.000000
      3          1           0        0.892212    0.000000   -0.474397
      4          1           0       -0.446106   -0.772678   -0.474397
      5          1           0       -0.446106    0.772678   -0.474397
 ---------------------------------------------------------------------
                    Distance matrix (angstroms):
                    1          2          3          4          5
     1  N    0.000000
     2  X    1.000000   0.000000
     3  H    1.010492   1.723337   0.000000
     4  H    1.010492   1.723337   1.545356   0.000000
     5  H    1.010492   1.723337   1.545356   1.545356   0.000000
 Stoichiometry    H3N
 Framework group  C3V[C3(N),3SGV(H)]
 Deg. of freedom     2
 Full point group                 C3V     NOp   6
 Largest Abelian subgroup         CS      NOp   2
 Largest concise Abelian subgroup CS      NOp   2
                         Standard orientation:                         
 ---------------------------------------------------------------------
 Center     Atomic      Atomic             Coordinates (Angstroms)
 Number     Number       Type             X           Y           Z
 ---------------------------------------------------------------------
      1          7           0        0.000000    0.000000    0.142319
      2          1           0        0.000000    0.892212   -0.332078
      3          1           0        0.772678   -0.446106   -0.332078
      4          1           0       -0.772678   -0.446106   -0.332078
 ---------------------------------------------------------------------
 Rotational constants (GHZ):    286.6553319    286.6553319    209.9784865

 **********************************************************************

            Population analysis using the SCF density.

 **********************************************************************

 Orbital symmetries:
       Occupied  (A1) (A1) (E) (E) (A1)
       Virtual   (A1) (E) (E) (E) (E) (A1) (E) (E) (A1) (A1) (E)
                 (E) (A1) (E) (E) (A1)
 The electronic state is 1-A1.
 Alpha  occ. eigenvalues --  -15.54466  -1.15270  -0.61482  -0.61482  -0.44355
 Alpha virt. eigenvalues --    0.21629   0.31997   0.31997   0.87766   0.87766
 Alpha virt. eigenvalues --    0.96877   1.21424   1.21424   1.24254   1.50637
 Alpha virt. eigenvalues --    1.95938   1.95938   2.15257   2.76037   2.76037
 Alpha virt. eigenvalues --    4.07261
          Condensed to atoms (all electrons):
               1          2          3          4
     1  N    6.984800   0.324639   0.324639   0.324639
     2  H    0.324639   0.417723  -0.030967  -0.030967
     3  H    0.324639  -0.030967   0.417723  -0.030967
     4  H    0.324639  -0.030967  -0.030967   0.417723
 Mulliken charges:
               1
     1  N   -0.958716
     2  H    0.319572
     3  H    0.319572
     4  H    0.319572
 Sum of Mulliken charges =   0.00000
 Mulliken charges with hydrogens summed into heavy atoms:
               1
     1  N    0.000000
 Electronic spatial extent (au):  <R**2>=             26.1559
 Charge=              0.0000 electrons
 Dipole moment (field-independent basis, Debye):
    X=              0.0000    Y=              0.0000    Z=             -2.2773  Tot=              2.2773
 Quadrupole moment (field-independent basis, Debye-Ang):
   XX=             -6.4269   YY=             -6.4269   ZZ=             -8.5861
   XY=              0.0000   XZ=              0.0000   YZ=              0.0000
 Traceless Quadrupole moment (field-independent basis, Debye-Ang):
   XX=              0.7197   YY=              0.7197   ZZ=             -1.4394
   XY=              0.0000   XZ=              0.0000   YZ=              0.0000
 Octapole moment (field-independent basis, Debye-Ang**2):
  XXX=              0.0000  YYY=              0.6684  ZZZ=             -2.1960  XYY=              0.0000
  XXY=             -0.6684  XXZ=             -1.0813  XZZ=              0.0000  YZZ=              0.0000
  YYZ=             -1.0813  XYZ=              0.0000
 Hexadecapole moment (field-independent basis, Debye-Ang**3):
 XXXX=             -9.5114 YYYY=             -9.5114 ZZZZ=            -10.2030 XXXY=              0.0000
 XXXZ=              0.0000 YYYX=              0.0000 YYYZ=             -0.3308 ZZZX=              0.0000
 ZZZY=              0.0000 XXYY=             -3.1705 XXZZ=             -3.2039 YYZZ=             -3.2039
 XXYZ=              0.3308 YYXZ=              0.0000 ZZXY=              0.0000
 N-N= 1.202462410870D+01 E-N=-1.557748635900D+02  KE= 5.610549170288D+01
 Symmetry A'   KE= 5.349270541382D+01
 Symmetry A"   KE= 2.612786289062D+00
 1\1\GINC-C11-03\POpt\RHF\6-31G(d)\H3N1\EPLUHAR\02-Sep-2016\1\\# opt=(z
 -matrix) rhf/6-31g(d)\\Ammonia c3v\\0,1\N\X,1,1.\H,1,B1,2,A1\H,1,B1,2,
 A1,3,120.,0\H,1,B1,2,A1,3,-120.,0\\B1=1.01049245\A1=118.\\Version=ES64
 L-G09RevD.01\State=1-A1\HF=-56.1806114\RMSD=4.137e-09\RMSF=1.176e-02\D
 ipole=0.,0.,-0.8959522\Quadrupole=0.5350928,0.5350928,-1.0701856,0.,0.
 ,0.\PG=C03V [C3(N1),3SGV(H1)]\\@


 I think that all right-thinking people in this
 country are sick and tired of being told that
 ordinary, decent people are fed up in this country
 with being sick and tired.  I'm certainly not!
 But I'm sick and tired of being told that I am!
                               -- Monty Python
 Job cpu time:       0 days  0 hours  0 minutes 17.5 seconds.
 File lengths (MBytes):  RWF=      5 Int=      0 D2E=      0 Chk=      1 Scr=      1
 Normal termination of Gaussian 09 at Fri Sep  2 13:36:37 2016.
