 Entering Gaussian System, Link 0=g09
 Initial command:
 /share/sw/gaussian/D.01/g09/l1.exe "/local/scratch/epluhar/Gau-125470.inp" -scrdir="/local/scratch/epluhar/"
 Entering Link 1 = /share/sw/gaussian/D.01/g09/l1.exe PID=    125471.
  
 Copyright (c) 1988,1990,1992,1993,1995,1998,2003,2009,2013,
            Gaussian, Inc.  All Rights Reserved.
  
 This is part of the Gaussian(R) 09 program.  It is based on
 the Gaussian(R) 03 system (copyright 2003, Gaussian, Inc.),
 the Gaussian(R) 98 system (copyright 1998, Gaussian, Inc.),
 the Gaussian(R) 94 system (copyright 1995, Gaussian, Inc.),
 the Gaussian 92(TM) system (copyright 1992, Gaussian, Inc.),
 the Gaussian 90(TM) system (copyright 1990, Gaussian, Inc.),
 the Gaussian 88(TM) system (copyright 1988, Gaussian, Inc.),
 the Gaussian 86(TM) system (copyright 1986, Carnegie Mellon
 University), and the Gaussian 82(TM) system (copyright 1983,
 Carnegie Mellon University). Gaussian is a federally registered
 trademark of Gaussian, Inc.
  
 This software contains proprietary and confidential information,
 including trade secrets, belonging to Gaussian, Inc.
  
 This software is provided under written license and may be
 used, copied, transmitted, or stored only in accord with that
 written license.
  
 The following legend is applicable only to US Government
 contracts under FAR:
  
                    RESTRICTED RIGHTS LEGEND
  
 Use, reproduction and disclosure by the US Government is
 subject to restrictions as set forth in subparagraphs (a)
 and (c) of the Commercial Computer Software - Restricted
 Rights clause in FAR 52.227-19.
  
 Gaussian, Inc.
 340 Quinnipiac St., Bldg. 40, Wallingford CT 06492
  
  
 ---------------------------------------------------------------
 Warning -- This program may not be used in any manner that
 competes with the business of Gaussian, Inc. or will provide
 assistance to any competitor of Gaussian, Inc.  The licensee
 of this program is prohibited from giving any competitor of
 Gaussian, Inc. access to this program.  By using this program,
 the user acknowledges that Gaussian, Inc. is engaged in the
 business of creating and licensing software in the field of
 computational chemistry and represents and warrants to the
 licensee that it is not a competitor of Gaussian, Inc. and that
 it will not use this program in any manner prohibited above.
 ---------------------------------------------------------------
  

 Cite this work as:
 Gaussian 09, Revision D.01,
 M. J. Frisch, G. W. Trucks, H. B. Schlegel, G. E. Scuseria, 
 M. A. Robb, J. R. Cheeseman, G. Scalmani, V. Barone, B. Mennucci, 
 G. A. Petersson, H. Nakatsuji, M. Caricato, X. Li, H. P. Hratchian, 
 A. F. Izmaylov, J. Bloino, G. Zheng, J. L. Sonnenberg, M. Hada, 
 M. Ehara, K. Toyota, R. Fukuda, J. Hasegawa, M. Ishida, T. Nakajima, 
 Y. Honda, O. Kitao, H. Nakai, T. Vreven, J. A. Montgomery, Jr., 
 J. E. Peralta, F. Ogliaro, M. Bearpark, J. J. Heyd, E. Brothers, 
 K. N. Kudin, V. N. Staroverov, T. Keith, R. Kobayashi, J. Normand, 
 K. Raghavachari, A. Rendell, J. C. Burant, S. S. Iyengar, J. Tomasi, 
 M. Cossi, N. Rega, J. M. Millam, M. Klene, J. E. Knox, J. B. Cross, 
 V. Bakken, C. Adamo, J. Jaramillo, R. Gomperts, R. E. Stratmann, 
 O. Yazyev, A. J. Austin, R. Cammi, C. Pomelli, J. W. Ochterski, 
 R. L. Martin, K. Morokuma, V. G. Zakrzewski, G. A. Voth, 
 P. Salvador, J. J. Dannenberg, S. Dapprich, A. D. Daniels, 
 O. Farkas, J. B. Foresman, J. V. Ortiz, J. Cioslowski, 
 and D. J. Fox, Gaussian, Inc., Wallingford CT, 2013.
 
 ******************************************
 Gaussian 09:  ES64L-G09RevD.01 24-Apr-2013
                 2-Sep-2016 
 ******************************************
 %nprocshared=2
 Will use up to    2 processors via shared memory.
 %mem=256MW
 %chk=A01.NH3.C3v.102.chk
 -----------------------------
 # opt=(z-matrix) rhf/6-31g(d)
 -----------------------------
 1/10=7,18=40,38=1/1,3;
 2/12=2,17=6,18=5,29=3,40=1/2;
 3/5=1,6=6,7=1,11=1,16=1,25=1,30=1,71=1,116=1/1,2,3;
 4//1;
 5/5=2,38=5/2;
 6/7=2,8=2,9=2,10=2,28=1/1;
 7/29=1/1,2,3,16;
 1/10=7,18=40/3(2);
 2/29=3/2;
 99//99;
 2/29=3/2;
 3/5=1,6=6,7=1,11=1,16=1,25=1,30=1,71=1,116=1/1,2,3;
 4/5=5,16=3,69=1/1;
 5/5=2,38=5/2;
 7//1,2,3,16;
 1/18=40/3(-5);
 2/29=3/2;
 6/7=2,8=2,9=2,10=2,19=2,28=1/1;
 99/9=1/99;
 -----------
 Ammonia c3v
 -----------
 Symbolic Z-matrix:
 Charge =  0 Multiplicity = 1
 N
 X                    1     1. 
 H                    1    B1       2    A1
 H                    1    B1       2    A1       3     120.     0
 H                    1    B1       2    A1       3    -120.     0
       Variables:
  B1                    1.                       
       Constants:
  A1                  102.                       
 

 GradGradGradGradGradGradGradGradGradGradGradGradGradGradGradGradGradGrad
 Berny optimization.
 Initialization pass.
                       ----------------------------
                       !    Initial Parameters    !
                       ! (Angstroms and Degrees)  !
 ----------------------                            ----------------------
 !      Name          Value   Derivative information (Atomic Units)     !
 ------------------------------------------------------------------------
 !       B1          1.0      estimate D2E/DX2                          !
 !       A1        102.0      Frozen                                    !
 ------------------------------------------------------------------------
 Trust Radius=3.00D-01 FncErr=1.00D-07 GrdErr=1.00D-07
 Number of steps in this run=     20 maximum allowed number of steps=    100.
 GradGradGradGradGradGradGradGradGradGradGradGradGradGradGradGradGradGrad

 ---------------------------------------------------------------------------------------------------
                            Z-MATRIX (ANGSTROMS AND DEGREES)
   CD    Cent   Atom    N1       Length/X        N2       Alpha/Y        N3        Beta/Z          J
 ---------------------------------------------------------------------------------------------------
      1      1  N 
      2         X        1   1.000000(     1)
      3      2  H        1   1.000000(     2)      2  102.000(     5)
      4      3  H        1   1.000000(     3)      2  102.000(     6)      3  120.000(     8)      0
      5      4  H        1   1.000000(     4)      2  102.000(     7)      3 -120.000(     9)      0
 ---------------------------------------------------------------------------------------------------
                         Z-Matrix orientation:                         
 ---------------------------------------------------------------------
 Center     Atomic      Atomic             Coordinates (Angstroms)
 Number     Number       Type             X           Y           Z
 ---------------------------------------------------------------------
      1          7           0        0.000000    0.000000    0.000000
      2         -1           0        0.000000    0.000000    1.000000
      3          1           0        0.978148    0.000000   -0.207912
      4          1           0       -0.489074   -0.847101   -0.207912
      5          1           0       -0.489074    0.847101   -0.207912
 ---------------------------------------------------------------------
                    Distance matrix (angstroms):
                    1          2          3          4          5
     1  N    0.000000
     2  X    1.000000   0.000000
     3  H    1.000000   1.554292   0.000000
     4  H    1.000000   1.554292   1.694201   0.000000
     5  H    1.000000   1.554292   1.694201   1.694201   0.000000
 Stoichiometry    H3N
 Framework group  C3V[C3(N),3SGV(H)]
 Deg. of freedom     2
 Full point group                 C3V     NOp   6
 Largest Abelian subgroup         CS      NOp   2
 Largest concise Abelian subgroup CS      NOp   2
                         Standard orientation:                         
 ---------------------------------------------------------------------
 Center     Atomic      Atomic             Coordinates (Angstroms)
 Number     Number       Type             X           Y           Z
 ---------------------------------------------------------------------
      1          7           0        0.000000    0.000000    0.062374
      2          1           0        0.000000    0.978148   -0.145538
      3          1           0        0.847101   -0.489074   -0.145538
      4          1           0       -0.847101   -0.489074   -0.145538
 ---------------------------------------------------------------------
 Rotational constants (GHZ):    325.2373509    325.2373509    174.7036627
 Standard basis: 6-31G(d) (6D, 7F)
 There are    15 symmetry adapted cartesian basis functions of A'  symmetry.
 There are     6 symmetry adapted cartesian basis functions of A"  symmetry.
 There are    15 symmetry adapted basis functions of A'  symmetry.
 There are     6 symmetry adapted basis functions of A"  symmetry.
    21 basis functions,    40 primitive gaussians,    21 cartesian basis functions
     5 alpha electrons        5 beta electrons
       nuclear repulsion energy        12.0497597280 Hartrees.
 NAtoms=    4 NActive=    4 NUniq=    2 SFac= 4.00D+00 NAtFMM=   60 NAOKFM=F Big=F
 Integral buffers will be    131072 words long.
 Raffenetti 1 integral format.
 Two-electron integral symmetry is turned on.
 One-electron integrals computed using PRISM.
 NBasis=    21 RedAO= T EigKep=  3.03D-02  NBF=    15     6
 NBsUse=    21 1.00D-06 EigRej= -1.00D+00 NBFU=    15     6
 ExpMin= 1.61D-01 ExpMax= 4.17D+03 ExpMxC= 6.27D+02 IAcc=1 IRadAn=         1 AccDes= 0.00D+00
 Harris functional with IExCor=  205 and IRadAn=       1 diagonalized for initial guess.
 HarFok:  IExCor=  205 AccDes= 0.00D+00 IRadAn=         1 IDoV= 1 UseB2=F ITyADJ=14
 ICtDFT=  3500011 ScaDFX=  1.000000  1.000000  1.000000  1.000000
 FoFCou: FMM=F IPFlag=           0 FMFlag=      100000 FMFlg1=           0
         NFxFlg=           0 DoJE=T BraDBF=F KetDBF=T FulRan=T
         wScrn=  0.000000 ICntrl=     500 IOpCl=  0 I1Cent=   200000004 NGrid=           0
         NMat0=    1 NMatS0=      1 NMatT0=    0 NMatD0=    1 NMtDS0=    0 NMtDT0=    0
 Petite list used in FoFCou.
 Initial guess orbital symmetries:
       Occupied  (A1) (A1) (E) (E) (A1)
       Virtual   (A1) (E) (E) (A1) (E) (E) (A1) (E) (E) (A1) (E)
                 (E) (A1) (E) (E) (A1)
 The electronic state of the initial guess is 1-A1.
 Keep R1 ints in memory in symmetry-blocked form, NReq=875485.
 Requested convergence on RMS density matrix=1.00D-08 within 128 cycles.
 Requested convergence on MAX density matrix=1.00D-06.
 Requested convergence on             energy=1.00D-06.
 No special actions if energy rises.
 SCF Done:  E(RHF) =  -56.1794531615     A.U. after   10 cycles
            NFock= 10  Conv=0.36D-08     -V/T= 2.0023

 **********************************************************************

            Population analysis using the SCF density.

 **********************************************************************

 Orbital symmetries:
       Occupied  (A1) (A1) (E) (E) (A1)
       Virtual   (A1) (E) (E) (E) (E) (A1) (A1) (E) (E) (A1) (E)
                 (E) (A1) (E) (E) (A1)
 The electronic state is 1-A1.
 Alpha  occ. eigenvalues --  -15.52363  -1.12234  -0.63722  -0.63722  -0.39206
 Alpha virt. eigenvalues --    0.22749   0.32829   0.32829   0.92552   0.92552
 Alpha virt. eigenvalues --    0.97129   1.10819   1.24790   1.24790   1.32369
 Alpha virt. eigenvalues --    1.98086   1.98086   2.42978   2.73180   2.73180
 Alpha virt. eigenvalues --    4.11439
          Condensed to atoms (all electrons):
               1          2          3          4
     1  N    7.035244   0.338269   0.338269   0.338269
     2  H    0.338269   0.354449  -0.021368  -0.021368
     3  H    0.338269  -0.021368   0.354449  -0.021368
     4  H    0.338269  -0.021368  -0.021368   0.354449
 Mulliken charges:
               1
     1  N   -1.050052
     2  H    0.350017
     3  H    0.350017
     4  H    0.350017
 Sum of Mulliken charges =   0.00000
 Mulliken charges with hydrogens summed into heavy atoms:
               1
     1  N    0.000000
 Electronic spatial extent (au):  <R**2>=             25.8122
 Charge=              0.0000 electrons
 Dipole moment (field-independent basis, Debye):
    X=              0.0000    Y=              0.0000    Z=             -1.1905  Tot=              1.1905
 Quadrupole moment (field-independent basis, Debye-Ang):
   XX=             -5.6374   YY=             -5.6374   ZZ=             -9.2208
   XY=              0.0000   XZ=              0.0000   YZ=              0.0000
 Traceless Quadrupole moment (field-independent basis, Debye-Ang):
   XX=              1.1945   YY=              1.1945   ZZ=             -2.3889
   XY=              0.0000   XZ=              0.0000   YZ=              0.0000
 Octapole moment (field-independent basis, Debye-Ang**2):
  XXX=              0.0000  YYY=              1.1348  ZZZ=             -1.1046  XYY=              0.0000
  XXY=             -1.1348  XXZ=             -0.6099  XZZ=              0.0000  YZZ=              0.0000
  YYZ=             -0.6099  XYZ=              0.0000
 Hexadecapole moment (field-independent basis, Debye-Ang**3):
 XXXX=             -8.6047 YYYY=             -8.6047 ZZZZ=             -9.1507 XXXY=              0.0000
 XXXZ=              0.0000 YYYX=              0.0000 YYYZ=             -0.2140 ZZZX=              0.0000
 ZZZY=              0.0000 XXYY=             -2.8682 XXZZ=             -3.2359 YYZZ=             -3.2359
 XXYZ=              0.2140 YYXZ=              0.0000 ZZXY=              0.0000
 N-N= 1.204975972797D+01 E-N=-1.558844554181D+02  KE= 5.605097626701D+01
 Symmetry A'   KE= 5.344900969581D+01
 Symmetry A"   KE= 2.601966571196D+00
 Calling FoFJK, ICntrl=      2127 FMM=F ISym2X=1 I1Cent= 0 IOpClX= 0 NMat=1 NMatS=1 NMatT=0.
 ***** Axes restored to original set *****
 -------------------------------------------------------------------
 Center     Atomic                   Forces (Hartrees/Bohr)
 Number     Number              X              Y              Z
 -------------------------------------------------------------------
      1        7           0.000000000    0.000000000    0.018498234
      2        1          -0.008279266    0.000000000   -0.006166078
      3        1           0.004139633    0.007170054   -0.006166078
      4        1           0.004139633   -0.007170054   -0.006166078
 -------------------------------------------------------------------
 Cartesian Forces:  Max     0.018498234 RMS     0.007426781
 -----------------------------------------------------------------------------------------------
                       Internal Coordinate Forces (Hartree/Bohr or radian)
  Cent   Atom   N1       Length/X         N2         Alpha/Y        N3         Beta/Z          J
 -----------------------------------------------------------------------------------------------
      1  N 
         X        1   0.000000(     1)
      2  H        1  -0.006816(     2)      2   0.014650(     5)
      3  H        1  -0.006816(     3)      2   0.014650(     6)      3   0.000000(     8)     0
      4  H        1  -0.006816(     4)      2   0.014650(     7)      3   0.000000(     9)     0
 -----------------------------------------------------------------------------------------------
 Internal  Forces:  Max     0.014650462 RMS     0.009329140

 GradGradGradGradGradGradGradGradGradGradGradGradGradGradGradGradGradGrad
 Berny optimization.
 Search for a local minimum.
 Step number   1 out of a maximum of   20
 All quantities printed in internal units (Hartrees-Bohrs-Radians)
 Second derivative matrix not updated -- first step.
 The second derivative matrix:
                          B1        A1
           B1           1.43065
           A1           0.00000   0.33726
 ITU=  0
     Eigenvalues ---    1.430651000.00000
 RFO step:  Lambda=-2.92229079D-04 EMin= 1.43064988D+00
 Linear search not attempted -- first point.
 Variable       Old X    -DE/DX   Delta X   Delta X   Delta X     New X
                                 (Linear)    (Quad)   (Total)
    B1        1.88973  -0.02045   0.00000  -0.01429  -0.01429   1.87544
    A1        1.78024   0.04395   0.00000   0.00000   0.00000   1.78024
         Item               Value     Threshold  Converged?
 Maximum Force            0.020449     0.000450     NO 
 RMS     Force            0.020449     0.000300     NO 
 Maximum Displacement     0.014291     0.001800     NO 
 RMS     Displacement     0.010105     0.001200     NO 
 Predicted change in Energy=-1.461444D-04
 GradGradGradGradGradGradGradGradGradGradGradGradGradGradGradGradGradGrad

 ---------------------------------------------------------------------------------------------------
                            Z-MATRIX (ANGSTROMS AND DEGREES)
   CD    Cent   Atom    N1       Length/X        N2       Alpha/Y        N3        Beta/Z          J
 ---------------------------------------------------------------------------------------------------
      1      1  N 
      2         X        1   1.000000(     1)
      3      2  H        1   0.992438(     2)      2  102.000(     5)
      4      3  H        1   0.992438(     3)      2  102.000(     6)      3  120.000(     8)      0
      5      4  H        1   0.992438(     4)      2  102.000(     7)      3 -120.000(     9)      0
 ---------------------------------------------------------------------------------------------------
                         Z-Matrix orientation:                         
 ---------------------------------------------------------------------
 Center     Atomic      Atomic             Coordinates (Angstroms)
 Number     Number       Type             X           Y           Z
 ---------------------------------------------------------------------
      1          7           0        0.000000    0.000000    0.000000
      2         -1           0        0.000000    0.000000    1.000000
      3          1           0        0.970751    0.000000   -0.206339
      4          1           0       -0.485375   -0.840695   -0.206339
      5          1           0       -0.485375    0.840695   -0.206339
 ---------------------------------------------------------------------
                    Distance matrix (angstroms):
                    1          2          3          4          5
     1  N    0.000000
     2  X    1.000000   0.000000
     3  H    0.992438   1.548422   0.000000
     4  H    0.992438   1.548422   1.681389   0.000000
     5  H    0.992438   1.548422   1.681389   1.681389   0.000000
 Stoichiometry    H3N
 Framework group  C3V[C3(N),3SGV(H)]
 Deg. of freedom     2
 Full point group                 C3V     NOp   6
 Largest Abelian subgroup         CS      NOp   2
 Largest concise Abelian subgroup CS      NOp   2
                         Standard orientation:                         
 ---------------------------------------------------------------------
 Center     Atomic      Atomic             Coordinates (Angstroms)
 Number     Number       Type             X           Y           Z
 ---------------------------------------------------------------------
      1          7           0        0.000000    0.000000    0.061902
      2          1           0        0.000000    0.970751   -0.144438
      3          1           0        0.840695   -0.485375   -0.144438
      4          1           0       -0.840695   -0.485375   -0.144438
 ---------------------------------------------------------------------
 Rotational constants (GHZ):    330.2127790    330.2127790    177.3762509
 Standard basis: 6-31G(d) (6D, 7F)
 There are    15 symmetry adapted cartesian basis functions of A'  symmetry.
 There are     6 symmetry adapted cartesian basis functions of A"  symmetry.
 There are    15 symmetry adapted basis functions of A'  symmetry.
 There are     6 symmetry adapted basis functions of A"  symmetry.
    21 basis functions,    40 primitive gaussians,    21 cartesian basis functions
     5 alpha electrons        5 beta electrons
       nuclear repulsion energy        12.1415775402 Hartrees.
 NAtoms=    4 NActive=    4 NUniq=    2 SFac= 4.00D+00 NAtFMM=   60 NAOKFM=F Big=F
 Integral buffers will be    131072 words long.
 Raffenetti 1 integral format.
 Two-electron integral symmetry is turned on.
 One-electron integrals computed using PRISM.
 NBasis=    21 RedAO= T EigKep=  2.97D-02  NBF=    15     6
 NBsUse=    21 1.00D-06 EigRej= -1.00D+00 NBFU=    15     6
 Initial guess from the checkpoint file:  "A01.NH3.C3v.102.chk"
 B after Tr=     0.000000    0.000000    0.000000
         Rot=    1.000000    0.000000    0.000000    0.000000 Ang=   0.00 deg.
 Initial guess orbital symmetries:
       Occupied  (A1) (A1) (E) (E) (A1)
       Virtual   (?A) (?A) (?A) (?A) (?A) (?A) (?A) (?A) (?A) (?A)
                 (?A) (?A) (?A) (?A) (?A) (?A)
 Keep R1 ints in memory in symmetry-blocked form, NReq=875485.
 Requested convergence on RMS density matrix=1.00D-08 within 128 cycles.
 Requested convergence on MAX density matrix=1.00D-06.
 Requested convergence on             energy=1.00D-06.
 No special actions if energy rises.
 SCF Done:  E(RHF) =  -56.1795841415     A.U. after    9 cycles
            NFock=  9  Conv=0.11D-08     -V/T= 2.0016
 Calling FoFJK, ICntrl=      2127 FMM=F ISym2X=1 I1Cent= 0 IOpClX= 0 NMat=1 NMatS=1 NMatT=0.
 ***** Axes restored to original set *****
 -------------------------------------------------------------------
 Center     Atomic                   Forces (Hartrees/Bohr)
 Number     Number              X              Y              Z
 -------------------------------------------------------------------
      1        7           0.000000000    0.000000000    0.022411224
      2        1          -0.000804332    0.000000000   -0.007470408
      3        1           0.000402166    0.000696572   -0.007470408
      4        1           0.000402166   -0.000696572   -0.007470408
 -------------------------------------------------------------------
 Cartesian Forces:  Max     0.022411224 RMS     0.007481225
 -----------------------------------------------------------------------------------------------
                       Internal Coordinate Forces (Hartree/Bohr or radian)
  Cent   Atom   N1       Length/X         N2         Alpha/Y        N3         Beta/Z          J
 -----------------------------------------------------------------------------------------------
      1  N 
         X        1   0.000000(     1)
      2  H        1   0.000766(     2)      2   0.014018(     5)
      3  H        1   0.000766(     3)      2   0.014018(     6)      3   0.000000(     8)     0
      4  H        1   0.000766(     4)      2   0.014018(     7)      3   0.000000(     9)     0
 -----------------------------------------------------------------------------------------------
 Internal  Forces:  Max     0.014017740 RMS     0.008105234

 GradGradGradGradGradGradGradGradGradGradGradGradGradGradGradGradGradGrad
 Berny optimization.
 Search for a local minimum.
 Step number   2 out of a maximum of   20
 All quantities printed in internal units (Hartrees-Bohrs-Radians)
 Update second derivatives using D2CorN and points    1    2
 DE= -1.31D-04 DEPred=-1.46D-04 R= 8.96D-01
 TightC=F SS=  1.41D+00  RLast= 1.43D-02 DXNew= 5.0454D-01 4.2872D-02
 Trust test= 8.96D-01 RLast= 1.43D-02 DXMaxT set to 3.00D-01
 The second derivative matrix:
                          B1        A1
           B1           1.59184
           A1          -0.06641   0.33726
 ITU=  1  0
     Eigenvalues ---    1.591841000.00000
 RFO step:  Lambda= 0.00000000D+00 EMin= 1.59183715D+00
 Quartic linear search produced a step of -0.09894.
 Variable       Old X    -DE/DX   Delta X   Delta X   Delta X     New X
                                 (Linear)    (Quad)   (Total)
    B1        1.87544   0.00230   0.00141   0.00000   0.00141   1.87685
    A1        1.78024   0.04205   0.00000   0.00000   0.00000   1.78024
         Item               Value     Threshold  Converged?
 Maximum Force            0.002299     0.000450     NO 
 RMS     Force            0.002299     0.000300     NO 
 Maximum Displacement     0.001414     0.001800     YES
 RMS     Displacement     0.001000     0.001200     YES
 Predicted change in Energy=-1.659831D-06
 GradGradGradGradGradGradGradGradGradGradGradGradGradGradGradGradGradGrad

 ---------------------------------------------------------------------------------------------------
                            Z-MATRIX (ANGSTROMS AND DEGREES)
   CD    Cent   Atom    N1       Length/X        N2       Alpha/Y        N3        Beta/Z          J
 ---------------------------------------------------------------------------------------------------
      1      1  N 
      2         X        1   1.000000(     1)
      3      2  H        1   0.993186(     2)      2  102.000(     5)
      4      3  H        1   0.993186(     3)      2  102.000(     6)      3  120.000(     8)      0
      5      4  H        1   0.993186(     4)      2  102.000(     7)      3 -120.000(     9)      0
 ---------------------------------------------------------------------------------------------------
                         Z-Matrix orientation:                         
 ---------------------------------------------------------------------
 Center     Atomic      Atomic             Coordinates (Angstroms)
 Number     Number       Type             X           Y           Z
 ---------------------------------------------------------------------
      1          7           0        0.000000    0.000000    0.000000
      2         -1           0        0.000000    0.000000    1.000000
      3          1           0        0.971482    0.000000   -0.206495
      4          1           0       -0.485741   -0.841328   -0.206495
      5          1           0       -0.485741    0.841328   -0.206495
 ---------------------------------------------------------------------
                    Distance matrix (angstroms):
                    1          2          3          4          5
     1  N    0.000000
     2  X    1.000000   0.000000
     3  H    0.993186   1.549002   0.000000
     4  H    0.993186   1.549002   1.682657   0.000000
     5  H    0.993186   1.549002   1.682657   1.682657   0.000000
 Stoichiometry    H3N
 Framework group  C3V[C3(N),3SGV(H)]
 Deg. of freedom     2
 Full point group                 C3V     NOp   6
 Largest Abelian subgroup         CS      NOp   2
 Largest concise Abelian subgroup CS      NOp   2
                         Standard orientation:                         
 ---------------------------------------------------------------------
 Center     Atomic      Atomic             Coordinates (Angstroms)
 Number     Number       Type             X           Y           Z
 ---------------------------------------------------------------------
      1          7           0        0.000000    0.000000    0.061948
      2          1           0        0.000000    0.971482   -0.144546
      3          1           0        0.841328   -0.485741   -0.144546
      4          1           0       -0.841328   -0.485741   -0.144546
 ---------------------------------------------------------------------
 Rotational constants (GHZ):    329.7154482    329.7154482    177.1091060
 Standard basis: 6-31G(d) (6D, 7F)
 There are    15 symmetry adapted cartesian basis functions of A'  symmetry.
 There are     6 symmetry adapted cartesian basis functions of A"  symmetry.
 There are    15 symmetry adapted basis functions of A'  symmetry.
 There are     6 symmetry adapted basis functions of A"  symmetry.
    21 basis functions,    40 primitive gaussians,    21 cartesian basis functions
     5 alpha electrons        5 beta electrons
       nuclear repulsion energy        12.1324309277 Hartrees.
 NAtoms=    4 NActive=    4 NUniq=    2 SFac= 4.00D+00 NAtFMM=   60 NAOKFM=F Big=F
 Integral buffers will be    131072 words long.
 Raffenetti 1 integral format.
 Two-electron integral symmetry is turned on.
 One-electron integrals computed using PRISM.
 NBasis=    21 RedAO= T EigKep=  2.98D-02  NBF=    15     6
 NBsUse=    21 1.00D-06 EigRej= -1.00D+00 NBFU=    15     6
 Initial guess from the checkpoint file:  "A01.NH3.C3v.102.chk"
 B after Tr=     0.000000    0.000000    0.000000
         Rot=    1.000000    0.000000    0.000000    0.000000 Ang=   0.00 deg.
 Initial guess orbital symmetries:
       Occupied  (A1) (A1) (E) (E) (A1)
       Virtual   (?A) (?A) (?A) (?A) (?A) (?A) (?A) (?A) (?A) (?A)
                 (?A) (?A) (?A) (?A) (?A) (?A)
 Keep R1 ints in memory in symmetry-blocked form, NReq=875485.
 Requested convergence on RMS density matrix=1.00D-08 within 128 cycles.
 Requested convergence on MAX density matrix=1.00D-06.
 Requested convergence on             energy=1.00D-06.
 No special actions if energy rises.
 SCF Done:  E(RHF) =  -56.1795857656     A.U. after    8 cycles
            NFock=  8  Conv=0.28D-08     -V/T= 2.0016
 Calling FoFJK, ICntrl=      2127 FMM=F ISym2X=1 I1Cent= 0 IOpClX= 0 NMat=1 NMatS=1 NMatT=0.
 ***** Axes restored to original set *****
 -------------------------------------------------------------------
 Center     Atomic                   Forces (Hartrees/Bohr)
 Number     Number              X              Y              Z
 -------------------------------------------------------------------
      1        7           0.000000000    0.000000000    0.022014122
      2        1          -0.001559788    0.000000000   -0.007338041
      3        1           0.000779894    0.001350816   -0.007338041
      4        1           0.000779894   -0.001350816   -0.007338041
 -------------------------------------------------------------------
 Cartesian Forces:  Max     0.022014122 RMS     0.007379368
 -----------------------------------------------------------------------------------------------
                       Internal Coordinate Forces (Hartree/Bohr or radian)
  Cent   Atom   N1       Length/X         N2         Alpha/Y        N3         Beta/Z          J
 -----------------------------------------------------------------------------------------------
      1  N 
         X        1   0.000000(     1)
      2  H        1   0.000000(     2)      2   0.014080(     5)
      3  H        1   0.000000(     3)      2   0.014080(     6)      3   0.000000(     8)     0
      4  H        1   0.000000(     4)      2   0.014080(     7)      3   0.000000(     9)     0
 -----------------------------------------------------------------------------------------------
 Internal  Forces:  Max     0.014080096 RMS     0.008129147

 GradGradGradGradGradGradGradGradGradGradGradGradGradGradGradGradGradGrad
 Berny optimization.
 Search for a local minimum.
 Step number   3 out of a maximum of   20
 All quantities printed in internal units (Hartrees-Bohrs-Radians)
 Update second derivatives using D2CorN and points    2    3
 DE= -1.62D-06 DEPred=-1.66D-06 R= 9.78D-01
 TightC=F SS=  1.41D+00  RLast= 1.41D-03 DXNew= 5.0454D-01 4.2417D-03
 Trust test= 9.78D-01 RLast= 1.41D-03 DXMaxT set to 3.00D-01
 The second derivative matrix:
                          B1        A1
           B1           1.62630
           A1          -0.09936   0.33726
 ITU=  1  1  0
     Eigenvalues ---    1.626301000.00000
 RFO step:  Lambda= 0.00000000D+00 EMin= 1.62630004D+00
 Quartic linear search produced a step of -0.00005.
 Variable       Old X    -DE/DX   Delta X   Delta X   Delta X     New X
                                 (Linear)    (Quad)   (Total)
    B1        1.87685   0.00000   0.00000   0.00000   0.00000   1.87685
    A1        1.78024   0.04224   0.00000   0.00000   0.00000   1.78024
         Item               Value     Threshold  Converged?
 Maximum Force            0.000000     0.000450     YES
 RMS     Force            0.000000     0.000300     YES
 Maximum Displacement     0.000000     0.001800     YES
 RMS     Displacement     0.000000     0.001200     YES
 Predicted change in Energy=-4.134722D-15
 Optimization completed.
    -- Stationary point found.
                       ----------------------------
                       !   Optimized Parameters   !
                       ! (Angstroms and Degrees)  !
 ----------------------                            ----------------------
 !      Name          Value   Derivative information (Atomic Units)     !
 ------------------------------------------------------------------------
 !       B1          0.9932   -DE/DX =    0.0                           !
 !       A1        102.0      -DE/DX =    0.0422                        !
 ------------------------------------------------------------------------
 GradGradGradGradGradGradGradGradGradGradGradGradGradGradGradGradGradGrad

 ---------------------------------------------------------------------------------------------------
                            Z-MATRIX (ANGSTROMS AND DEGREES)
   CD    Cent   Atom    N1       Length/X        N2       Alpha/Y        N3        Beta/Z          J
 ---------------------------------------------------------------------------------------------------
      1      1  N 
      2         X        1   1.000000(     1)
      3      2  H        1   0.993186(     2)      2  102.000(     5)
      4      3  H        1   0.993186(     3)      2  102.000(     6)      3  120.000(     8)      0
      5      4  H        1   0.993186(     4)      2  102.000(     7)      3 -120.000(     9)      0
 ---------------------------------------------------------------------------------------------------
                         Z-Matrix orientation:                         
 ---------------------------------------------------------------------
 Center     Atomic      Atomic             Coordinates (Angstroms)
 Number     Number       Type             X           Y           Z
 ---------------------------------------------------------------------
      1          7           0        0.000000    0.000000    0.000000
      2         -1           0        0.000000    0.000000    1.000000
      3          1           0        0.971482    0.000000   -0.206495
      4          1           0       -0.485741   -0.841328   -0.206495
      5          1           0       -0.485741    0.841328   -0.206495
 ---------------------------------------------------------------------
                    Distance matrix (angstroms):
                    1          2          3          4          5
     1  N    0.000000
     2  X    1.000000   0.000000
     3  H    0.993186   1.549002   0.000000
     4  H    0.993186   1.549002   1.682657   0.000000
     5  H    0.993186   1.549002   1.682657   1.682657   0.000000
 Stoichiometry    H3N
 Framework group  C3V[C3(N),3SGV(H)]
 Deg. of freedom     2
 Full point group                 C3V     NOp   6
 Largest Abelian subgroup         CS      NOp   2
 Largest concise Abelian subgroup CS      NOp   2
                         Standard orientation:                         
 ---------------------------------------------------------------------
 Center     Atomic      Atomic             Coordinates (Angstroms)
 Number     Number       Type             X           Y           Z
 ---------------------------------------------------------------------
      1          7           0        0.000000    0.000000    0.061948
      2          1           0        0.000000    0.971482   -0.144546
      3          1           0        0.841328   -0.485741   -0.144546
      4          1           0       -0.841328   -0.485741   -0.144546
 ---------------------------------------------------------------------
 Rotational constants (GHZ):    329.7154482    329.7154482    177.1091060

 **********************************************************************

            Population analysis using the SCF density.

 **********************************************************************

 Orbital symmetries:
       Occupied  (A1) (A1) (E) (E) (A1)
       Virtual   (A1) (E) (E) (E) (E) (A1) (A1) (E) (E) (A1) (E)
                 (E) (A1) (E) (E) (A1)
 The electronic state is 1-A1.
 Alpha  occ. eigenvalues --  -15.52149  -1.12590  -0.64038  -0.64038  -0.39242
 Alpha virt. eigenvalues --    0.22925   0.32976   0.32976   0.92374   0.92374
 Alpha virt. eigenvalues --    0.97125   1.11518   1.25436   1.25436   1.32683
 Alpha virt. eigenvalues --    1.97913   1.97913   2.43577   2.74129   2.74129
 Alpha virt. eigenvalues --    4.11944
          Condensed to atoms (all electrons):
               1          2          3          4
     1  N    7.031160   0.339744   0.339744   0.339744
     2  H    0.339744   0.353038  -0.021456  -0.021456
     3  H    0.339744  -0.021456   0.353038  -0.021456
     4  H    0.339744  -0.021456  -0.021456   0.353038
 Mulliken charges:
               1
     1  N   -1.050392
     2  H    0.350131
     3  H    0.350131
     4  H    0.350131
 Sum of Mulliken charges =   0.00000
 Mulliken charges with hydrogens summed into heavy atoms:
               1
     1  N    0.000000
 Electronic spatial extent (au):  <R**2>=             25.6564
 Charge=              0.0000 electrons
 Dipole moment (field-independent basis, Debye):
    X=              0.0000    Y=              0.0000    Z=             -1.1881  Tot=              1.1881
 Quadrupole moment (field-independent basis, Debye-Ang):
   XX=             -5.6410   YY=             -5.6410   ZZ=             -9.1973
   XY=              0.0000   XZ=              0.0000   YZ=              0.0000
 Traceless Quadrupole moment (field-independent basis, Debye-Ang):
   XX=              1.1854   YY=              1.1854   ZZ=             -2.3709
   XY=              0.0000   XZ=              0.0000   YZ=              0.0000
 Octapole moment (field-independent basis, Debye-Ang**2):
  XXX=              0.0000  YYY=              1.1086  ZZZ=             -1.1110  XYY=              0.0000
  XXY=             -1.1086  XXZ=             -0.6057  XZZ=              0.0000  YZZ=              0.0000
  YYZ=             -0.6057  XYZ=              0.0000
 Hexadecapole moment (field-independent basis, Debye-Ang**3):
 XXXX=             -8.5296 YYYY=             -8.5296 ZZZZ=             -9.1132 XXXY=              0.0000
 XXXZ=              0.0000 YYYX=              0.0000 YYYZ=             -0.2083 ZZZX=              0.0000
 ZZZY=              0.0000 XXYY=             -2.8432 XXZZ=             -3.2092 YYZZ=             -3.2092
 XXYZ=              0.2083 YYXZ=              0.0000 ZZXY=              0.0000
 N-N= 1.213243092772D+01 E-N=-1.560712540817D+02  KE= 5.608836283122D+01
 Symmetry A'   KE= 5.347096906266D+01
 Symmetry A"   KE= 2.617393768560D+00
 1\1\GINC-C11-03\POpt\RHF\6-31G(d)\H3N1\EPLUHAR\02-Sep-2016\1\\# opt=(z
 -matrix) rhf/6-31g(d)\\Ammonia c3v\\0,1\N\X,1,1.\H,1,B1,2,A1\H,1,B1,2,
 A1,3,120.,0\H,1,B1,2,A1,3,-120.,0\\B1=0.99318593\A1=102.\\Version=ES64
 L-G09RevD.01\State=1-A1\HF=-56.1795858\RMSD=2.816e-09\RMSF=7.379e-03\D
 ipole=0.,0.,-0.4674516\Quadrupole=0.88134,0.88134,-1.76268,0.,0.,0.\PG
 =C03V [C3(N1),3SGV(H1)]\\@


 The juvenile sea squirt wanders through the sea searching
 for a suitable rock or hunk of coral to cling to and make
 its home for life.  For this task it has a rudimentary
 nervous system.  When it finds its spot and takes root, it
 doesn't need its brain any more so it eats it.
 It's rather like getting tenure.

                               -- source unknown
 Job cpu time:       0 days  0 hours  0 minutes 16.9 seconds.
 File lengths (MBytes):  RWF=      5 Int=      0 D2E=      0 Chk=      1 Scr=      1
 Normal termination of Gaussian 09 at Fri Sep  2 13:32:14 2016.
