 Entering Gaussian System, Link 0=g09
 Initial command:
 /share/sw/gaussian/D.01/g09/l1.exe "/local/scratch/epluhar/Gau-138217.inp" -scrdir="/local/scratch/epluhar/"
 Entering Link 1 = /share/sw/gaussian/D.01/g09/l1.exe PID=    138218.
  
 Copyright (c) 1988,1990,1992,1993,1995,1998,2003,2009,2013,
            Gaussian, Inc.  All Rights Reserved.
  
 This is part of the Gaussian(R) 09 program.  It is based on
 the Gaussian(R) 03 system (copyright 2003, Gaussian, Inc.),
 the Gaussian(R) 98 system (copyright 1998, Gaussian, Inc.),
 the Gaussian(R) 94 system (copyright 1995, Gaussian, Inc.),
 the Gaussian 92(TM) system (copyright 1992, Gaussian, Inc.),
 the Gaussian 90(TM) system (copyright 1990, Gaussian, Inc.),
 the Gaussian 88(TM) system (copyright 1988, Gaussian, Inc.),
 the Gaussian 86(TM) system (copyright 1986, Carnegie Mellon
 University), and the Gaussian 82(TM) system (copyright 1983,
 Carnegie Mellon University). Gaussian is a federally registered
 trademark of Gaussian, Inc.
  
 This software contains proprietary and confidential information,
 including trade secrets, belonging to Gaussian, Inc.
  
 This software is provided under written license and may be
 used, copied, transmitted, or stored only in accord with that
 written license.
  
 The following legend is applicable only to US Government
 contracts under FAR:
  
                    RESTRICTED RIGHTS LEGEND
  
 Use, reproduction and disclosure by the US Government is
 subject to restrictions as set forth in subparagraphs (a)
 and (c) of the Commercial Computer Software - Restricted
 Rights clause in FAR 52.227-19.
  
 Gaussian, Inc.
 340 Quinnipiac St., Bldg. 40, Wallingford CT 06492
  
  
 ---------------------------------------------------------------
 Warning -- This program may not be used in any manner that
 competes with the business of Gaussian, Inc. or will provide
 assistance to any competitor of Gaussian, Inc.  The licensee
 of this program is prohibited from giving any competitor of
 Gaussian, Inc. access to this program.  By using this program,
 the user acknowledges that Gaussian, Inc. is engaged in the
 business of creating and licensing software in the field of
 computational chemistry and represents and warrants to the
 licensee that it is not a competitor of Gaussian, Inc. and that
 it will not use this program in any manner prohibited above.
 ---------------------------------------------------------------
  

 Cite this work as:
 Gaussian 09, Revision D.01,
 M. J. Frisch, G. W. Trucks, H. B. Schlegel, G. E. Scuseria, 
 M. A. Robb, J. R. Cheeseman, G. Scalmani, V. Barone, B. Mennucci, 
 G. A. Petersson, H. Nakatsuji, M. Caricato, X. Li, H. P. Hratchian, 
 A. F. Izmaylov, J. Bloino, G. Zheng, J. L. Sonnenberg, M. Hada, 
 M. Ehara, K. Toyota, R. Fukuda, J. Hasegawa, M. Ishida, T. Nakajima, 
 Y. Honda, O. Kitao, H. Nakai, T. Vreven, J. A. Montgomery, Jr., 
 J. E. Peralta, F. Ogliaro, M. Bearpark, J. J. Heyd, E. Brothers, 
 K. N. Kudin, V. N. Staroverov, T. Keith, R. Kobayashi, J. Normand, 
 K. Raghavachari, A. Rendell, J. C. Burant, S. S. Iyengar, J. Tomasi, 
 M. Cossi, N. Rega, J. M. Millam, M. Klene, J. E. Knox, J. B. Cross, 
 V. Bakken, C. Adamo, J. Jaramillo, R. Gomperts, R. E. Stratmann, 
 O. Yazyev, A. J. Austin, R. Cammi, C. Pomelli, J. W. Ochterski, 
 R. L. Martin, K. Morokuma, V. G. Zakrzewski, G. A. Voth, 
 P. Salvador, J. J. Dannenberg, S. Dapprich, A. D. Daniels, 
 O. Farkas, J. B. Foresman, J. V. Ortiz, J. Cioslowski, 
 and D. J. Fox, Gaussian, Inc., Wallingford CT, 2013.
 
 ******************************************
 Gaussian 09:  ES64L-G09RevD.01 24-Apr-2013
                 2-Sep-2016 
 ******************************************
 %nprocshared=2
 Will use up to    2 processors via shared memory.
 %mem=256MW
 %chk=ammonia-c3v
 ----------------------------------
 # opt=(z-matrix) freq rhf/6-31g(d)
 ----------------------------------
 1/10=7,18=40,38=1/1,3;
 2/12=2,17=6,18=5,29=3,40=1/2;
 3/5=1,6=6,7=1,11=1,16=1,25=1,30=1,71=1,116=1/1,2,3;
 4//1;
 5/5=2,38=5/2;
 6/7=2,8=2,9=2,10=2,28=1/1;
 7/29=1/1,2,3,16;
 1/10=7,18=40/3(2);
 2/29=3/2;
 99//99;
 2/29=3/2;
 3/5=1,6=6,7=1,11=1,16=1,25=1,30=1,71=1,116=1/1,2,3;
 4/5=5,16=3,69=1/1;
 5/5=2,38=5/2;
 7//1,2,3,16;
 1/18=40/3(-5);
 2/29=3/2;
 6/7=2,8=2,9=2,10=2,19=2,28=1/1;
 99/9=1/99;
 -----------
 Ammonia c3v
 -----------
 Symbolic Z-matrix:
 Charge =  0 Multiplicity = 1
 N
 X                    1     1. 
 H                    1    B1       2    A1
 H                    1    B1       2    A1       3     120.     0
 H                    1    B1       2    A1       3    -120.     0
       Variables:
  B1                    1.                       
  A1                  110.                       
 

 GradGradGradGradGradGradGradGradGradGradGradGradGradGradGradGradGradGrad
 Berny optimization.
 Initialization pass.
                       ----------------------------
                       !    Initial Parameters    !
                       ! (Angstroms and Degrees)  !
 ----------------------                            ----------------------
 !      Name          Value   Derivative information (Atomic Units)     !
 ------------------------------------------------------------------------
 !       B1          1.0      estimate D2E/DX2                          !
 !       A1        110.0      estimate D2E/DX2                          !
 ------------------------------------------------------------------------
 Trust Radius=3.00D-01 FncErr=1.00D-07 GrdErr=1.00D-07
 Number of steps in this run=     20 maximum allowed number of steps=    100.
 GradGradGradGradGradGradGradGradGradGradGradGradGradGradGradGradGradGrad

 ---------------------------------------------------------------------------------------------------
                            Z-MATRIX (ANGSTROMS AND DEGREES)
   CD    Cent   Atom    N1       Length/X        N2       Alpha/Y        N3        Beta/Z          J
 ---------------------------------------------------------------------------------------------------
      1      1  N 
      2         X        1   1.000000(     1)
      3      2  H        1   1.000000(     2)      2  110.000(     5)
      4      3  H        1   1.000000(     3)      2  110.000(     6)      3  120.000(     8)      0
      5      4  H        1   1.000000(     4)      2  110.000(     7)      3 -120.000(     9)      0
 ---------------------------------------------------------------------------------------------------
                         Z-Matrix orientation:                         
 ---------------------------------------------------------------------
 Center     Atomic      Atomic             Coordinates (Angstroms)
 Number     Number       Type             X           Y           Z
 ---------------------------------------------------------------------
      1          7           0        0.000000    0.000000    0.000000
      2         -1           0        0.000000    0.000000    1.000000
      3          1           0        0.939693    0.000000   -0.342020
      4          1           0       -0.469846   -0.813798   -0.342020
      5          1           0       -0.469846    0.813798   -0.342020
 ---------------------------------------------------------------------
                    Distance matrix (angstroms):
                    1          2          3          4          5
     1  N    0.000000
     2  X    1.000000   0.000000
     3  H    1.000000   1.638304   0.000000
     4  H    1.000000   1.638304   1.627595   0.000000
     5  H    1.000000   1.638304   1.627595   1.627595   0.000000
 Stoichiometry    H3N
 Framework group  C3V[C3(N),3SGV(H)]
 Deg. of freedom     2
 Full point group                 C3V     NOp   6
 Largest Abelian subgroup         CS      NOp   2
 Largest concise Abelian subgroup CS      NOp   2
                         Standard orientation:                         
 ---------------------------------------------------------------------
 Center     Atomic      Atomic             Coordinates (Angstroms)
 Number     Number       Type             X           Y           Z
 ---------------------------------------------------------------------
      1          7           0        0.000000    0.000000    0.102606
      2          1           0        0.000000    0.939693   -0.239414
      3          1           0        0.813798   -0.469846   -0.239414
      4          1           0       -0.813798   -0.469846   -0.239414
 ---------------------------------------------------------------------
 Rotational constants (GHZ):    310.8546060    310.8546060    189.2950098
 Standard basis: 6-31G(d) (6D, 7F)
 There are    15 symmetry adapted cartesian basis functions of A'  symmetry.
 There are     6 symmetry adapted cartesian basis functions of A"  symmetry.
 There are    15 symmetry adapted basis functions of A'  symmetry.
 There are     6 symmetry adapted basis functions of A"  symmetry.
    21 basis functions,    40 primitive gaussians,    21 cartesian basis functions
     5 alpha electrons        5 beta electrons
       nuclear repulsion energy        12.0881060873 Hartrees.
 NAtoms=    4 NActive=    4 NUniq=    2 SFac= 4.00D+00 NAtFMM=   60 NAOKFM=F Big=F
 Integral buffers will be    131072 words long.
 Raffenetti 1 integral format.
 Two-electron integral symmetry is turned on.
 One-electron integrals computed using PRISM.
 NBasis=    21 RedAO= T EigKep=  2.86D-02  NBF=    15     6
 NBsUse=    21 1.00D-06 EigRej= -1.00D+00 NBFU=    15     6
 ExpMin= 1.61D-01 ExpMax= 4.17D+03 ExpMxC= 6.27D+02 IAcc=1 IRadAn=         1 AccDes= 0.00D+00
 Harris functional with IExCor=  205 and IRadAn=       1 diagonalized for initial guess.
 HarFok:  IExCor=  205 AccDes= 0.00D+00 IRadAn=         1 IDoV= 1 UseB2=F ITyADJ=14
 ICtDFT=  3500011 ScaDFX=  1.000000  1.000000  1.000000  1.000000
 FoFCou: FMM=F IPFlag=           0 FMFlag=      100000 FMFlg1=           0
         NFxFlg=           0 DoJE=T BraDBF=F KetDBF=T FulRan=T
         wScrn=  0.000000 ICntrl=     500 IOpCl=  0 I1Cent=   200000004 NGrid=           0
         NMat0=    1 NMatS0=      1 NMatT0=    0 NMatD0=    1 NMtDS0=    0 NMtDT0=    0
 Petite list used in FoFCou.
 Initial guess orbital symmetries:
       Occupied  (A1) (A1) (E) (E) (A1)
       Virtual   (A1) (E) (E) (A1) (E) (E) (E) (E) (A1) (A1) (E)
                 (E) (A1) (E) (E) (A1)
 The electronic state of the initial guess is 1-A1.
 Keep R1 ints in memory in symmetry-blocked form, NReq=875485.
 Requested convergence on RMS density matrix=1.00D-08 within 128 cycles.
 Requested convergence on MAX density matrix=1.00D-06.
 Requested convergence on             energy=1.00D-06.
 No special actions if energy rises.
 SCF Done:  E(RHF) =  -56.1841515425     A.U. after   10 cycles
            NFock= 10  Conv=0.25D-08     -V/T= 2.0014

 **********************************************************************

            Population analysis using the SCF density.

 **********************************************************************

 Orbital symmetries:
       Occupied  (A1) (A1) (E) (E) (A1)
       Virtual   (A1) (E) (E) (E) (E) (A1) (A1) (E) (E) (A1) (E)
                 (E) (A1) (E) (E) (A1)
 The electronic state is 1-A1.
 Alpha  occ. eigenvalues --  -15.53162  -1.13767  -0.63071  -0.63071  -0.41424
 Alpha virt. eigenvalues --    0.22450   0.32610   0.32610   0.90149   0.90149
 Alpha virt. eigenvalues --    0.97012   1.20368   1.23719   1.23719   1.34795
 Alpha virt. eigenvalues --    1.96547   1.96547   2.31383   2.76908   2.76908
 Alpha virt. eigenvalues --    4.10174
          Condensed to atoms (all electrons):
               1          2          3          4
     1  N    7.005680   0.333453   0.333453   0.333453
     2  H    0.333453   0.380721  -0.024760  -0.024760
     3  H    0.333453  -0.024760   0.380721  -0.024760
     4  H    0.333453  -0.024760  -0.024760   0.380721
 Mulliken charges:
               1
     1  N   -1.006040
     2  H    0.335347
     3  H    0.335347
     4  H    0.335347
 Sum of Mulliken charges =   0.00000
 Mulliken charges with hydrogens summed into heavy atoms:
               1
     1  N    0.000000
 Electronic spatial extent (au):  <R**2>=             25.8703
 Charge=              0.0000 electrons
 Dipole moment (field-independent basis, Debye):
    X=              0.0000    Y=              0.0000    Z=             -1.8100  Tot=              1.8100
 Quadrupole moment (field-independent basis, Debye-Ang):
   XX=             -5.9753   YY=             -5.9753   ZZ=             -8.9419
   XY=              0.0000   XZ=              0.0000   YZ=              0.0000
 Traceless Quadrupole moment (field-independent basis, Debye-Ang):
   XX=              0.9889   YY=              0.9889   ZZ=             -1.9778
   XY=              0.0000   XZ=              0.0000   YZ=              0.0000
 Octapole moment (field-independent basis, Debye-Ang**2):
  XXX=              0.0000  YYY=              0.9110  ZZZ=             -1.7147  XYY=              0.0000
  XXY=             -0.9110  XXZ=             -0.9048  XZZ=              0.0000  YZZ=              0.0000
  YYZ=             -0.9048  XYZ=              0.0000
 Hexadecapole moment (field-independent basis, Debye-Ang**3):
 XXXX=             -8.9777 YYYY=             -8.9777 ZZZZ=             -9.5620 XXXY=              0.0000
 XXXZ=              0.0000 YYYX=              0.0000 YYYZ=             -0.2986 ZZZX=              0.0000
 ZZZY=              0.0000 XXYY=             -2.9926 XXZZ=             -3.1910 YYZZ=             -3.1910
 XXYZ=              0.2986 YYXZ=              0.0000 ZZXY=              0.0000
 N-N= 1.208810608727D+01 E-N=-1.559580104772D+02  KE= 5.610340582101D+01
 Symmetry A'   KE= 5.348757529413D+01
 Symmetry A"   KE= 2.615830526879D+00
 Calling FoFJK, ICntrl=      2127 FMM=F ISym2X=1 I1Cent= 0 IOpClX= 0 NMat=1 NMatS=1 NMatT=0.
 ***** Axes restored to original set *****
 -------------------------------------------------------------------
 Center     Atomic                   Forces (Hartrees/Bohr)
 Number     Number              X              Y              Z
 -------------------------------------------------------------------
      1        7           0.000000000    0.000000000    0.007243643
      2        1          -0.000211404    0.000000000   -0.002414548
      3        1           0.000105702    0.000183081   -0.002414548
      4        1           0.000105702   -0.000183081   -0.002414548
 -------------------------------------------------------------------
 Cartesian Forces:  Max     0.007243643 RMS     0.002416860
 -----------------------------------------------------------------------------------------------
                       Internal Coordinate Forces (Hartree/Bohr or radian)
  Cent   Atom   N1       Length/X         N2         Alpha/Y        N3         Beta/Z          J
 -----------------------------------------------------------------------------------------------
      1  N 
         X        1   0.000000(     1)
      2  H        1   0.000627(     2)      2   0.004424(     5)
      3  H        1   0.000627(     3)      2   0.004424(     6)      3   0.000000(     8)     0
      4  H        1   0.000627(     4)      2   0.004424(     7)      3   0.000000(     9)     0
 -----------------------------------------------------------------------------------------------
 Internal  Forces:  Max     0.004424296 RMS     0.002579906

 GradGradGradGradGradGradGradGradGradGradGradGradGradGradGradGradGradGrad
 Berny optimization.
 Search for a local minimum.
 Step number   1 out of a maximum of   20
 All quantities printed in internal units (Hartrees-Bohrs-Radians)
 Second derivative matrix not updated -- first step.
 The second derivative matrix:
                          B1        A1
           B1           1.43065
           A1           0.00000   0.50760
 ITU=  0
     Eigenvalues ---    0.50760   1.43065
 RFO step:  Lambda=-3.49301281D-04 EMin= 5.07596385D-01
 Linear search not attempted -- first point.
 Variable       Old X    -DE/DX   Delta X   Delta X   Delta X     New X
                                 (Linear)    (Quad)   (Total)
    B1        1.88973   0.00188   0.00000   0.00131   0.00131   1.89104
    A1        1.91986   0.01327   0.00000   0.02613   0.02613   1.94599
         Item               Value     Threshold  Converged?
 Maximum Force            0.013273     0.000450     NO 
 RMS     Force            0.009479     0.000300     NO 
 Maximum Displacement     0.026131     0.001800     NO 
 RMS     Displacement     0.018500     0.001200     NO 
 Predicted change in Energy=-1.747703D-04
 GradGradGradGradGradGradGradGradGradGradGradGradGradGradGradGradGradGrad

 ---------------------------------------------------------------------------------------------------
                            Z-MATRIX (ANGSTROMS AND DEGREES)
   CD    Cent   Atom    N1       Length/X        N2       Alpha/Y        N3        Beta/Z          J
 ---------------------------------------------------------------------------------------------------
      1      1  N 
      2         X        1   1.000000(     1)
      3      2  H        1   1.000696(     2)      2  111.497(     5)
      4      3  H        1   1.000696(     3)      2  111.497(     6)      3  120.000(     8)      0
      5      4  H        1   1.000696(     4)      2  111.497(     7)      3 -120.000(     9)      0
 ---------------------------------------------------------------------------------------------------
                         Z-Matrix orientation:                         
 ---------------------------------------------------------------------
 Center     Atomic      Atomic             Coordinates (Angstroms)
 Number     Number       Type             X           Y           Z
 ---------------------------------------------------------------------
      1          7           0        0.000000    0.000000    0.000000
      2         -1           0        0.000000    0.000000    1.000000
      3          1           0        0.931083    0.000000   -0.366710
      4          1           0       -0.465542   -0.806342   -0.366710
      5          1           0       -0.465542    0.806342   -0.366710
 ---------------------------------------------------------------------
                    Distance matrix (angstroms):
                    1          2          3          4          5
     1  N    0.000000
     2  X    1.000000   0.000000
     3  H    1.000696   1.653727   0.000000
     4  H    1.000696   1.653727   1.612683   0.000000
     5  H    1.000696   1.653727   1.612683   1.612683   0.000000
 Stoichiometry    H3N
 Framework group  C3V[C3(N),3SGV(H)]
 Deg. of freedom     2
 Full point group                 C3V     NOp   6
 Largest Abelian subgroup         CS      NOp   2
 Largest concise Abelian subgroup CS      NOp   2
                         Standard orientation:                         
 ---------------------------------------------------------------------
 Center     Atomic      Atomic             Coordinates (Angstroms)
 Number     Number       Type             X           Y           Z
 ---------------------------------------------------------------------
      1          7           0        0.000000    0.000000    0.110013
      2          1           0        0.000000    0.931083   -0.256697
      3          1           0        0.806342   -0.465542   -0.256697
      4          1           0       -0.806342   -0.465542   -0.256697
 ---------------------------------------------------------------------
 Rotational constants (GHZ):    307.2332740    307.2332740    192.8119551
 Standard basis: 6-31G(d) (6D, 7F)
 There are    15 symmetry adapted cartesian basis functions of A'  symmetry.
 There are     6 symmetry adapted cartesian basis functions of A"  symmetry.
 There are    15 symmetry adapted basis functions of A'  symmetry.
 There are     6 symmetry adapted basis functions of A"  symmetry.
    21 basis functions,    40 primitive gaussians,    21 cartesian basis functions
     5 alpha electrons        5 beta electrons
       nuclear repulsion energy        12.0893987466 Hartrees.
 NAtoms=    4 NActive=    4 NUniq=    2 SFac= 4.00D+00 NAtFMM=   60 NAOKFM=F Big=F
 Integral buffers will be    131072 words long.
 Raffenetti 1 integral format.
 Two-electron integral symmetry is turned on.
 One-electron integrals computed using PRISM.
 NBasis=    21 RedAO= T EigKep=  2.83D-02  NBF=    15     6
 NBsUse=    21 1.00D-06 EigRej= -1.00D+00 NBFU=    15     6
 Initial guess from the checkpoint file:  "ammonia-c3v.chk"
 B after Tr=     0.000000    0.000000    0.000000
         Rot=    1.000000    0.000000    0.000000    0.000000 Ang=   0.00 deg.
 Initial guess orbital symmetries:
       Occupied  (A1) (A1) (E) (E) (A1)
       Virtual   (?A) (?A) (?A) (?A) (?A) (?A) (?A) (?A) (?A) (?A)
                 (?A) (?A) (?A) (?A) (?A) (?A)
 ExpMin= 1.61D-01 ExpMax= 4.17D+03 ExpMxC= 6.27D+02 IAcc=1 IRadAn=         1 AccDes= 0.00D+00
 Harris functional with IExCor=  205 and IRadAn=       1 diagonalized for initial guess.
 HarFok:  IExCor=  205 AccDes= 0.00D+00 IRadAn=         1 IDoV= 1 UseB2=F ITyADJ=14
 ICtDFT=  3500011 ScaDFX=  1.000000  1.000000  1.000000  1.000000
 FoFCou: FMM=F IPFlag=           0 FMFlag=      100000 FMFlg1=           0
         NFxFlg=           0 DoJE=T BraDBF=F KetDBF=T FulRan=T
         wScrn=  0.000000 ICntrl=     500 IOpCl=  0 I1Cent=   200000004 NGrid=           0
         NMat0=    1 NMatS0=      1 NMatT0=    0 NMatD0=    1 NMtDS0=    0 NMtDT0=    0
 Petite list used in FoFCou.
 Keep R1 ints in memory in symmetry-blocked form, NReq=875485.
 Requested convergence on RMS density matrix=1.00D-08 within 128 cycles.
 Requested convergence on MAX density matrix=1.00D-06.
 Requested convergence on             energy=1.00D-06.
 No special actions if energy rises.
 SCF Done:  E(RHF) =  -56.1843467339     A.U. after    9 cycles
            NFock=  9  Conv=0.91D-09     -V/T= 2.0013
 Calling FoFJK, ICntrl=      2127 FMM=F ISym2X=1 I1Cent= 0 IOpClX= 0 NMat=1 NMatS=1 NMatT=0.
 ***** Axes restored to original set *****
 -------------------------------------------------------------------
 Center     Atomic                   Forces (Hartrees/Bohr)
 Number     Number              X              Y              Z
 -------------------------------------------------------------------
      1        7           0.000000000    0.000000000    0.002201678
      2        1           0.001390568    0.000000000   -0.000733893
      3        1          -0.000695284   -0.001204267   -0.000733893
      4        1          -0.000695284    0.001204267   -0.000733893
 -------------------------------------------------------------------
 Cartesian Forces:  Max     0.002201678 RMS     0.001010949
 -----------------------------------------------------------------------------------------------
                       Internal Coordinate Forces (Hartree/Bohr or radian)
  Cent   Atom   N1       Length/X         N2         Alpha/Y        N3         Beta/Z          J
 -----------------------------------------------------------------------------------------------
      1  N 
         X        1   0.000000(     1)
      2  H        1   0.001563(     2)      2   0.000328(     5)
      3  H        1   0.001563(     3)      2   0.000328(     6)      3   0.000000(     8)     0
      4  H        1   0.001563(     4)      2   0.000328(     7)      3   0.000000(     9)     0
 -----------------------------------------------------------------------------------------------
 Internal  Forces:  Max     0.001562773 RMS     0.000921884

 GradGradGradGradGradGradGradGradGradGradGradGradGradGradGradGradGradGrad
 Berny optimization.
 Search for a local minimum.
 Step number   2 out of a maximum of   20
 All quantities printed in internal units (Hartrees-Bohrs-Radians)
 Update second derivatives using D2CorN and points    1    2
 DE= -1.95D-04 DEPred=-1.75D-04 R= 1.12D+00
 TightC=F SS=  1.41D+00  RLast= 2.62D-02 DXNew= 5.0454D-01 7.8491D-02
 Trust test= 1.12D+00 RLast= 2.62D-02 DXMaxT set to 3.00D-01
 The second derivative matrix:
                          B1        A1
           B1           1.42165
           A1          -0.09041   0.47042
 ITU=  1  0
     Eigenvalues ---    0.46191   1.43016
 RFO step:  Lambda=-1.71725042D-05 EMin= 4.61907251D-01
 Quartic linear search produced a step of  0.09146.
 Variable       Old X    -DE/DX   Delta X   Delta X   Delta X     New X
                                 (Linear)    (Quad)   (Total)
    B1        1.89104   0.00469   0.00012   0.00348   0.00360   1.89464
    A1        1.94599   0.00098   0.00239   0.00014   0.00253   1.94852
         Item               Value     Threshold  Converged?
 Maximum Force            0.004688     0.000450     NO 
 RMS     Force            0.003387     0.000300     NO 
 Maximum Displacement     0.003604     0.001800     NO 
 RMS     Displacement     0.003114     0.001200     NO 
 Predicted change in Energy=-9.469720D-06
 GradGradGradGradGradGradGradGradGradGradGradGradGradGradGradGradGradGrad

 ---------------------------------------------------------------------------------------------------
                            Z-MATRIX (ANGSTROMS AND DEGREES)
   CD    Cent   Atom    N1       Length/X        N2       Alpha/Y        N3        Beta/Z          J
 ---------------------------------------------------------------------------------------------------
      1      1  N 
      2         X        1   1.000000(     1)
      3      2  H        1   1.002603(     2)      2  111.642(     5)
      4      3  H        1   1.002603(     3)      2  111.642(     6)      3  120.000(     8)      0
      5      4  H        1   1.002603(     4)      2  111.642(     7)      3 -120.000(     9)      0
 ---------------------------------------------------------------------------------------------------
                         Z-Matrix orientation:                         
 ---------------------------------------------------------------------
 Center     Atomic      Atomic             Coordinates (Angstroms)
 Number     Number       Type             X           Y           Z
 ---------------------------------------------------------------------
      1          7           0        0.000000    0.000000    0.000000
      2         -1           0        0.000000    0.000000    1.000000
      3          1           0        0.931924    0.000000   -0.369769
      4          1           0       -0.465962   -0.807070   -0.369769
      5          1           0       -0.465962    0.807070   -0.369769
 ---------------------------------------------------------------------
                    Distance matrix (angstroms):
                    1          2          3          4          5
     1  N    0.000000
     2  X    1.000000   0.000000
     3  H    1.002603   1.656729   0.000000
     4  H    1.002603   1.656729   1.614141   0.000000
     5  H    1.002603   1.656729   1.614141   1.614141   0.000000
 Stoichiometry    H3N
 Framework group  C3V[C3(N),3SGV(H)]
 Deg. of freedom     2
 Full point group                 C3V     NOp   6
 Largest Abelian subgroup         CS      NOp   2
 Largest concise Abelian subgroup CS      NOp   2
                         Standard orientation:                         
 ---------------------------------------------------------------------
 Center     Atomic      Atomic             Coordinates (Angstroms)
 Number     Number       Type             X           Y           Z
 ---------------------------------------------------------------------
      1          7           0        0.000000    0.000000    0.110931
      2          1           0        0.000000    0.931924   -0.258838
      3          1           0        0.807070   -0.465962   -0.258838
      4          1           0       -0.807070   -0.465962   -0.258838
 ---------------------------------------------------------------------
 Rotational constants (GHZ):    305.7515690    305.7515690    192.4639374
 Standard basis: 6-31G(d) (6D, 7F)
 There are    15 symmetry adapted cartesian basis functions of A'  symmetry.
 There are     6 symmetry adapted cartesian basis functions of A"  symmetry.
 There are    15 symmetry adapted basis functions of A'  symmetry.
 There are     6 symmetry adapted basis functions of A"  symmetry.
    21 basis functions,    40 primitive gaussians,    21 cartesian basis functions
     5 alpha electrons        5 beta electrons
       nuclear repulsion energy        12.0673872285 Hartrees.
 NAtoms=    4 NActive=    4 NUniq=    2 SFac= 4.00D+00 NAtFMM=   60 NAOKFM=F Big=F
 Integral buffers will be    131072 words long.
 Raffenetti 1 integral format.
 Two-electron integral symmetry is turned on.
 One-electron integrals computed using PRISM.
 NBasis=    21 RedAO= T EigKep=  2.83D-02  NBF=    15     6
 NBsUse=    21 1.00D-06 EigRej= -1.00D+00 NBFU=    15     6
 Initial guess from the checkpoint file:  "ammonia-c3v.chk"
 B after Tr=     0.000000    0.000000    0.000000
         Rot=    1.000000    0.000000    0.000000    0.000000 Ang=   0.00 deg.
 Initial guess orbital symmetries:
       Occupied  (A1) (A1) (E) (E) (A1)
       Virtual   (?A) (?A) (?A) (?A) (?A) (?A) (?A) (?A) (?A) (?A)
                 (?A) (?A) (?A) (?A) (?A) (?A)
 Keep R1 ints in memory in symmetry-blocked form, NReq=875485.
 Requested convergence on RMS density matrix=1.00D-08 within 128 cycles.
 Requested convergence on MAX density matrix=1.00D-06.
 Requested convergence on             energy=1.00D-06.
 No special actions if energy rises.
 SCF Done:  E(RHF) =  -56.1843562187     A.U. after    8 cycles
            NFock=  8  Conv=0.16D-08     -V/T= 2.0015
 Calling FoFJK, ICntrl=      2127 FMM=F ISym2X=1 I1Cent= 0 IOpClX= 0 NMat=1 NMatS=1 NMatT=0.
 ***** Axes restored to original set *****
 -------------------------------------------------------------------
 Center     Atomic                   Forces (Hartrees/Bohr)
 Number     Number              X              Y              Z
 -------------------------------------------------------------------
      1        7           0.000000000    0.000000000    0.000039019
      2        1          -0.000127605    0.000000000   -0.000013006
      3        1           0.000063803    0.000110509   -0.000013006
      4        1           0.000063803   -0.000110509   -0.000013006
 -------------------------------------------------------------------
 Cartesian Forces:  Max     0.000127605 RMS     0.000065115
 -----------------------------------------------------------------------------------------------
                       Internal Coordinate Forces (Hartree/Bohr or radian)
  Cent   Atom   N1       Length/X         N2         Alpha/Y        N3         Beta/Z          J
 -----------------------------------------------------------------------------------------------
      1  N 
         X        1   0.000000(     1)
      2  H        1  -0.000114(     2)      2   0.000112(     5)
      3  H        1  -0.000114(     3)      2   0.000112(     6)      3   0.000000(     8)     0
      4  H        1  -0.000114(     4)      2   0.000112(     7)      3   0.000000(     9)     0
 -----------------------------------------------------------------------------------------------
 Internal  Forces:  Max     0.000113813 RMS     0.000092219

 GradGradGradGradGradGradGradGradGradGradGradGradGradGradGradGradGradGrad
 Berny optimization.
 Search for a local minimum.
 Step number   3 out of a maximum of   20
 All quantities printed in internal units (Hartrees-Bohrs-Radians)
 Update second derivatives using D2CorN and points    1    2    3
 DE= -9.48D-06 DEPred=-9.47D-06 R= 1.00D+00
 TightC=F SS=  1.41D+00  RLast= 4.40D-03 DXNew= 5.0454D-01 1.3212D-02
 Trust test= 1.00D+00 RLast= 4.40D-03 DXMaxT set to 3.00D-01
 The second derivative matrix:
                          B1        A1
           B1           1.46010
           A1          -0.11667   0.45714
 ITU=  1  1  0
     Eigenvalues ---    0.44375   1.47349
 RFO step:  Lambda=-2.82557261D-07 EMin= 4.43745742D-01
 Quartic linear search produced a step of -0.01930.
 Variable       Old X    -DE/DX   Delta X   Delta X   Delta X     New X
                                 (Linear)    (Quad)   (Total)
    B1        1.89464  -0.00034  -0.00007  -0.00011  -0.00018   1.89447
    A1        1.94852   0.00034  -0.00005   0.00073   0.00069   1.94921
         Item               Value     Threshold  Converged?
 Maximum Force            0.000341     0.000450     YES
 RMS     Force            0.000339     0.000300     NO 
 Maximum Displacement     0.000686     0.001800     YES
 RMS     Displacement     0.000501     0.001200     YES
 Predicted change in Energy=-1.464771D-07
 GradGradGradGradGradGradGradGradGradGradGradGradGradGradGradGradGradGrad

 ---------------------------------------------------------------------------------------------------
                            Z-MATRIX (ANGSTROMS AND DEGREES)
   CD    Cent   Atom    N1       Length/X        N2       Alpha/Y        N3        Beta/Z          J
 ---------------------------------------------------------------------------------------------------
      1      1  N 
      2         X        1   1.000000(     1)
      3      2  H        1   1.002508(     2)      2  111.681(     5)
      4      3  H        1   1.002508(     3)      2  111.681(     6)      3  120.000(     8)      0
      5      4  H        1   1.002508(     4)      2  111.681(     7)      3 -120.000(     9)      0
 ---------------------------------------------------------------------------------------------------
                         Z-Matrix orientation:                         
 ---------------------------------------------------------------------
 Center     Atomic      Atomic             Coordinates (Angstroms)
 Number     Number       Type             X           Y           Z
 ---------------------------------------------------------------------
      1          7           0        0.000000    0.000000    0.000000
      2         -1           0        0.000000    0.000000    1.000000
      3          1           0        0.931583    0.000000   -0.370373
      4          1           0       -0.465791   -0.806775   -0.370373
      5          1           0       -0.465791    0.806775   -0.370373
 ---------------------------------------------------------------------
                    Distance matrix (angstroms):
                    1          2          3          4          5
     1  N    0.000000
     2  X    1.000000   0.000000
     3  H    1.002508   1.657036   0.000000
     4  H    1.002508   1.657036   1.613549   0.000000
     5  H    1.002508   1.657036   1.613549   1.613549   0.000000
 Stoichiometry    H3N
 Framework group  C3V[C3(N),3SGV(H)]
 Deg. of freedom     2
 Full point group                 C3V     NOp   6
 Largest Abelian subgroup         CS      NOp   2
 Largest concise Abelian subgroup CS      NOp   2
                         Standard orientation:                         
 ---------------------------------------------------------------------
 Center     Atomic      Atomic             Coordinates (Angstroms)
 Number     Number       Type             X           Y           Z
 ---------------------------------------------------------------------
      1          7           0        0.000000    0.000000    0.111112
      2          1           0        0.000000    0.931583   -0.259261
      3          1           0        0.806775   -0.465791   -0.259261
      4          1           0       -0.806775   -0.465791   -0.259261
 ---------------------------------------------------------------------
 Rotational constants (GHZ):    305.7239266    305.7239266    192.6050645
 Standard basis: 6-31G(d) (6D, 7F)
 There are    15 symmetry adapted cartesian basis functions of A'  symmetry.
 There are     6 symmetry adapted cartesian basis functions of A"  symmetry.
 There are    15 symmetry adapted basis functions of A'  symmetry.
 There are     6 symmetry adapted basis functions of A"  symmetry.
    21 basis functions,    40 primitive gaussians,    21 cartesian basis functions
     5 alpha electrons        5 beta electrons
       nuclear repulsion energy        12.0687919806 Hartrees.
 NAtoms=    4 NActive=    4 NUniq=    2 SFac= 4.00D+00 NAtFMM=   60 NAOKFM=F Big=F
 Integral buffers will be    131072 words long.
 Raffenetti 1 integral format.
 Two-electron integral symmetry is turned on.
 One-electron integrals computed using PRISM.
 NBasis=    21 RedAO= T EigKep=  2.83D-02  NBF=    15     6
 NBsUse=    21 1.00D-06 EigRej= -1.00D+00 NBFU=    15     6
 Initial guess from the checkpoint file:  "ammonia-c3v.chk"
 B after Tr=     0.000000    0.000000    0.000000
         Rot=    1.000000    0.000000    0.000000    0.000000 Ang=   0.00 deg.
 Initial guess orbital symmetries:
       Occupied  (A1) (A1) (E) (E) (A1)
       Virtual   (?A) (?A) (?A) (?A) (?A) (?A) (?A) (?A) (?A) (?A)
                 (?A) (?A) (?A) (?A) (?A) (?A)
 Keep R1 ints in memory in symmetry-blocked form, NReq=875485.
 Requested convergence on RMS density matrix=1.00D-08 within 128 cycles.
 Requested convergence on MAX density matrix=1.00D-06.
 Requested convergence on             energy=1.00D-06.
 No special actions if energy rises.
 SCF Done:  E(RHF) =  -56.1843563387     A.U. after    7 cycles
            NFock=  7  Conv=0.41D-08     -V/T= 2.0015
 Calling FoFJK, ICntrl=      2127 FMM=F ISym2X=1 I1Cent= 0 IOpClX= 0 NMat=1 NMatS=1 NMatT=0.
 ***** Axes restored to original set *****
 -------------------------------------------------------------------
 Center     Atomic                   Forces (Hartrees/Bohr)
 Number     Number              X              Y              Z
 -------------------------------------------------------------------
      1        7           0.000000000    0.000000000   -0.000007467
      2        1           0.000022271    0.000000000    0.000002489
      3        1          -0.000011135   -0.000019287    0.000002489
      4        1          -0.000011135    0.000019287    0.000002489
 -------------------------------------------------------------------
 Cartesian Forces:  Max     0.000022271 RMS     0.000011410
 -----------------------------------------------------------------------------------------------
                       Internal Coordinate Forces (Hartree/Bohr or radian)
  Cent   Atom   N1       Length/X         N2         Alpha/Y        N3         Beta/Z          J
 -----------------------------------------------------------------------------------------------
      1  N 
         X        1   0.000000(     1)
      2  H        1   0.000020(     2)      2  -0.000020(     5)
      3  H        1   0.000020(     3)      2  -0.000020(     6)      3   0.000000(     8)     0
      4  H        1   0.000020(     4)      2  -0.000020(     7)      3   0.000000(     9)     0
 -----------------------------------------------------------------------------------------------
 Internal  Forces:  Max     0.000019969 RMS     0.000016226

 GradGradGradGradGradGradGradGradGradGradGradGradGradGradGradGradGradGrad
 Berny optimization.
 Search for a local minimum.
 Step number   4 out of a maximum of   20
 All quantities printed in internal units (Hartrees-Bohrs-Radians)
 Update second derivatives using D2CorN and points    2    4
 DE= -1.20D-07 DEPred=-1.46D-07 R= 8.19D-01
 Trust test= 8.19D-01 RLast= 7.08D-04 DXMaxT set to 3.00D-01
 The second derivative matrix:
                          B1        A1
           B1           1.46056
           A1          -0.11862   0.45305
 ITU=  0  1  1
     Eigenvalues ---    0.43927   1.47434
 RFO step:  Lambda= 0.00000000D+00 EMin= 4.39274648D-01
 Quartic linear search produced a step of -0.15036.
 Variable       Old X    -DE/DX   Delta X   Delta X   Delta X     New X
                                 (Linear)    (Quad)   (Total)
    B1        1.89447   0.00006   0.00003   0.00000   0.00003   1.89449
    A1        1.94921  -0.00006  -0.00010   0.00000  -0.00010   1.94911
         Item               Value     Threshold  Converged?
 Maximum Force            0.000060     0.000450     YES
 RMS     Force            0.000060     0.000300     YES
 Maximum Displacement     0.000104     0.001800     YES
 RMS     Displacement     0.000076     0.001200     YES
 Predicted change in Energy=-4.507584D-09
 Optimization completed.
    -- Stationary point found.
                       ----------------------------
                       !   Optimized Parameters   !
                       ! (Angstroms and Degrees)  !
 ----------------------                            ----------------------
 !      Name          Value   Derivative information (Atomic Units)     !
 ------------------------------------------------------------------------
 !       B1          1.0025   -DE/DX =    0.0001                        !
 !       A1        111.6815   -DE/DX =   -0.0001                        !
 ------------------------------------------------------------------------
 GradGradGradGradGradGradGradGradGradGradGradGradGradGradGradGradGradGrad

 ---------------------------------------------------------------------------------------------------
                            Z-MATRIX (ANGSTROMS AND DEGREES)
   CD    Cent   Atom    N1       Length/X        N2       Alpha/Y        N3        Beta/Z          J
 ---------------------------------------------------------------------------------------------------
      1      1  N 
      2         X        1   1.000000(     1)
      3      2  H        1   1.002508(     2)      2  111.681(     5)
      4      3  H        1   1.002508(     3)      2  111.681(     6)      3  120.000(     8)      0
      5      4  H        1   1.002508(     4)      2  111.681(     7)      3 -120.000(     9)      0
 ---------------------------------------------------------------------------------------------------
                         Z-Matrix orientation:                         
 ---------------------------------------------------------------------
 Center     Atomic      Atomic             Coordinates (Angstroms)
 Number     Number       Type             X           Y           Z
 ---------------------------------------------------------------------
      1          7           0        0.000000    0.000000    0.000000
      2         -1           0        0.000000    0.000000    1.000000
      3          1           0        0.931583    0.000000   -0.370373
      4          1           0       -0.465791   -0.806775   -0.370373
      5          1           0       -0.465791    0.806775   -0.370373
 ---------------------------------------------------------------------
                    Distance matrix (angstroms):
                    1          2          3          4          5
     1  N    0.000000
     2  X    1.000000   0.000000
     3  H    1.002508   1.657036   0.000000
     4  H    1.002508   1.657036   1.613549   0.000000
     5  H    1.002508   1.657036   1.613549   1.613549   0.000000
 Stoichiometry    H3N
 Framework group  C3V[C3(N),3SGV(H)]
 Deg. of freedom     2
 Full point group                 C3V     NOp   6
 Largest Abelian subgroup         CS      NOp   2
 Largest concise Abelian subgroup CS      NOp   2
                         Standard orientation:                         
 ---------------------------------------------------------------------
 Center     Atomic      Atomic             Coordinates (Angstroms)
 Number     Number       Type             X           Y           Z
 ---------------------------------------------------------------------
      1          7           0        0.000000    0.000000    0.111112
      2          1           0        0.000000    0.931583   -0.259261
      3          1           0        0.806775   -0.465791   -0.259261
      4          1           0       -0.806775   -0.465791   -0.259261
 ---------------------------------------------------------------------
 Rotational constants (GHZ):    305.7239266    305.7239266    192.6050645

 **********************************************************************

            Population analysis using the SCF density.

 **********************************************************************

 Orbital symmetries:
       Occupied  (A1) (A1) (E) (E) (A1)
       Virtual   (A1) (E) (E) (E) (E) (A1) (A1) (E) (E) (A1) (E)
                 (E) (A1) (E) (E) (A1)
 The electronic state is 1-A1.
 Alpha  occ. eigenvalues --  -15.53438  -1.14027  -0.62764  -0.62764  -0.41985
 Alpha virt. eigenvalues --    0.22295   0.32489   0.32489   0.89649   0.89649
 Alpha virt. eigenvalues --    0.96995   1.21911   1.23222   1.23222   1.36442
 Alpha virt. eigenvalues --    1.96357   1.96357   2.28253   2.77026   2.77026
 Alpha virt. eigenvalues --    4.09637
          Condensed to atoms (all electrons):
               1          2          3          4
     1  N    7.000909   0.331680   0.331680   0.331680
     2  H    0.331680   0.387871  -0.025768  -0.025768
     3  H    0.331680  -0.025768   0.387871  -0.025768
     4  H    0.331680  -0.025768  -0.025768   0.387871
 Mulliken charges:
               1
     1  N   -0.995951
     2  H    0.331984
     3  H    0.331984
     4  H    0.331984
 Sum of Mulliken charges =   0.00000
 Mulliken charges with hydrogens summed into heavy atoms:
               1
     1  N    0.000000
 Electronic spatial extent (au):  <R**2>=             25.9391
 Charge=              0.0000 electrons
 Dipole moment (field-independent basis, Debye):
    X=              0.0000    Y=              0.0000    Z=             -1.9203  Tot=              1.9203
 Quadrupole moment (field-independent basis, Debye-Ang):
   XX=             -6.0616   YY=             -6.0616   ZZ=             -8.8767
   XY=              0.0000   XZ=              0.0000   YZ=              0.0000
 Traceless Quadrupole moment (field-independent basis, Debye-Ang):
   XX=              0.9384   YY=              0.9384   ZZ=             -1.8768
   XY=              0.0000   XZ=              0.0000   YZ=              0.0000
 Octapole moment (field-independent basis, Debye-Ang**2):
  XXX=              0.0000  YYY=              0.8645  ZZZ=             -1.8243  XYY=              0.0000
  XXY=             -0.8645  XXZ=             -0.9532  XZZ=              0.0000  YZZ=              0.0000
  YYZ=             -0.9532  XYZ=              0.0000
 Hexadecapole moment (field-independent basis, Debye-Ang**3):
 XXXX=             -9.0935 YYYY=             -9.0935 ZZZZ=             -9.6866 XXXY=              0.0000
 XXXZ=              0.0000 YYYX=              0.0000 YYYZ=             -0.3112 ZZZX=              0.0000
 ZZZY=              0.0000 XXYY=             -3.0312 XXZZ=             -3.1922 YYZZ=             -3.1922
 XXYZ=              0.3112 YYXZ=              0.0000 ZZXY=              0.0000
 N-N= 1.206879198062D+01 E-N=-1.559087108212D+02  KE= 5.610196499976D+01
 Symmetry A'   KE= 5.348802298931D+01
 Symmetry A"   KE= 2.613942010456D+00
 1\1\GINC-C11-03\FOpt\RHF\6-31G(d)\H3N1\EPLUHAR\02-Sep-2016\1\\# opt=(z
 -matrix) freq rhf/6-31g(d)\\Ammonia c3v\\0,1\N\X,1,1.\H,1,B1,2,A1\H,1,
 B1,2,A1,3,120.,0\H,1,B1,2,A1,3,-120.,0\\B1=1.00250837\A1=111.68147363\
 \Version=ES64L-G09RevD.01\State=1-A1\HF=-56.1843563\RMSD=4.121e-09\RMS
 F=1.141e-05\Dipole=0.,0.,-0.7554913\Quadrupole=0.6976605,0.6976605,-1.
 3953211,0.,0.,0.\PG=C03V [C3(N1),3SGV(H1)]\\@


 NOT WHAT WE DID SHALL BE THE TEST
 WHEN ACT AND WILL ARE DONE,
 BUT WHAT OUR LORD INFERS WE WOULD-
 HAD WE DIVINER BEEN.
           EMILY DICKINSON  POEMS NO. CLXXV
 Job cpu time:       0 days  0 hours  0 minutes 21.5 seconds.
 File lengths (MBytes):  RWF=      5 Int=      0 D2E=      0 Chk=      1 Scr=      1
 Normal termination of Gaussian 09 at Fri Sep  2 15:10:00 2016.
 Link1:  Proceeding to internal job step number  2.
 -----------------------------------------------------------------
 #N Geom=AllCheck Guess=TCheck SCRF=Check GenChk RHF/6-31G(d) Freq
 -----------------------------------------------------------------
 1/10=4,29=7,30=1,38=1,40=1/1,3;
 2/12=2,40=1/2;
 3/5=1,6=6,7=1,11=1,14=-4,16=1,25=1,30=1,70=2,71=2,116=1,140=1/1,2,3;
 4/5=101/1;
 5/5=2,98=1/2;
 8/6=4,10=90,11=11/1;
 10/13=10,15=4/2;
 11/6=3,8=1,9=11,15=111,16=1/1,2,10;
 10/6=1/2;
 6/7=2,8=2,9=2,10=2,18=1,28=1/1;
 7/8=1,10=1,25=1/1,2,3,16;
 1/10=4,30=1/3;
 99//99;
 Structure from the checkpoint file:  "ammonia-c3v.chk"
 -----------
 Ammonia c3v
 -----------
 Charge =  0 Multiplicity = 1
 Z-Matrix found in file.
 N
 X,1,1.
 H,1,B1,2,A1
 H,1,B1,2,A1,3,120.,0
 H,1,B1,2,A1,3,-120.,0
      Variables:
 B1=1.00250837
 A1=111.68147363
 Recover connectivity data from disk.

 GradGradGradGradGradGradGradGradGradGradGradGradGradGradGradGradGradGrad
 Berny optimization.
 Initialization pass.
                       ----------------------------
                       !    Initial Parameters    !
                       ! (Angstroms and Degrees)  !
 ----------------------                            ----------------------
 !      Name          Value   Derivative information (Atomic Units)     !
 ------------------------------------------------------------------------
 !       B1          1.0025   calculate D2E/DX2 analytically            !
 !       A1        111.6815   calculate D2E/DX2 analytically            !
 ------------------------------------------------------------------------
 Trust Radius=3.00D-01 FncErr=1.00D-07 GrdErr=1.00D-07
 Number of steps in this run=      2 maximum allowed number of steps=      2.
 GradGradGradGradGradGradGradGradGradGradGradGradGradGradGradGradGradGrad

                          Input orientation:                          
 ---------------------------------------------------------------------
 Center     Atomic      Atomic             Coordinates (Angstroms)
 Number     Number       Type             X           Y           Z
 ---------------------------------------------------------------------
      1          7           0        0.000000    0.000000    0.000000
      2          1           0        0.931583    0.000000   -0.370373
      3          1           0       -0.465791   -0.806775   -0.370373
      4          1           0       -0.465791    0.806775   -0.370373
 ---------------------------------------------------------------------
                    Distance matrix (angstroms):
                    1          2          3          4
     1  N    0.000000
     2  H    1.002508   0.000000
     3  H    1.002508   1.613549   0.000000
     4  H    1.002508   1.613549   1.613549   0.000000
 Stoichiometry    H3N
 Framework group  C3V[C3(N),3SGV(H)]
 Deg. of freedom     2
 Full point group                 C3V     NOp   6
 Largest Abelian subgroup         CS      NOp   2
 Largest concise Abelian subgroup CS      NOp   2
                         Standard orientation:                         
 ---------------------------------------------------------------------
 Center     Atomic      Atomic             Coordinates (Angstroms)
 Number     Number       Type             X           Y           Z
 ---------------------------------------------------------------------
      1          7           0        0.000000    0.000000    0.111112
      2          1           0        0.000000    0.931583   -0.259261
      3          1           0        0.806775   -0.465791   -0.259261
      4          1           0       -0.806775   -0.465791   -0.259261
 ---------------------------------------------------------------------
 Rotational constants (GHZ):    305.7239266    305.7239266    192.6050645
 Standard basis: 6-31G(d) (6D, 7F)
 There are    15 symmetry adapted cartesian basis functions of A'  symmetry.
 There are     6 symmetry adapted cartesian basis functions of A"  symmetry.
 There are    15 symmetry adapted basis functions of A'  symmetry.
 There are     6 symmetry adapted basis functions of A"  symmetry.
    21 basis functions,    40 primitive gaussians,    21 cartesian basis functions
     5 alpha electrons        5 beta electrons
       nuclear repulsion energy        12.0687919806 Hartrees.
 NAtoms=    4 NActive=    4 NUniq=    2 SFac= 4.00D+00 NAtFMM=   60 NAOKFM=F Big=F
 Integral buffers will be    131072 words long.
 Raffenetti 1 integral format.
 Two-electron integral symmetry is turned on.
 One-electron integrals computed using PRISM.
 NBasis=    21 RedAO= T EigKep=  2.83D-02  NBF=    15     6
 NBsUse=    21 1.00D-06 EigRej= -1.00D+00 NBFU=    15     6
 Initial guess from the checkpoint file:  "ammonia-c3v.chk"
 B after Tr=     0.000000    0.000000    0.000000
         Rot=    1.000000    0.000000    0.000000    0.000000 Ang=   0.00 deg.
 Initial guess orbital symmetries:
       Occupied  (A1) (A1) (E) (E) (A1)
       Virtual   (A1) (E) (E) (E) (E) (A1) (A1) (E) (E) (A1) (E)
                 (E) (A1) (E) (E) (A1)
 Keep R1 ints in memory in symmetry-blocked form, NReq=875485.
 Requested convergence on RMS density matrix=1.00D-08 within 128 cycles.
 Requested convergence on MAX density matrix=1.00D-06.
 Requested convergence on             energy=1.00D-06.
 No special actions if energy rises.
 SCF Done:  E(RHF) =  -56.1843563387     A.U. after    1 cycles
            NFock=  1  Conv=0.53D-09     -V/T= 2.0015
 Range of M.O.s used for correlation:     1    21
 NBasis=    21 NAE=     5 NBE=     5 NFC=     0 NFV=     0
 NROrb=     21 NOA=     5 NOB=     5 NVA=    16 NVB=    16
          Differentiating once with respect to electric field.
                with respect to dipole field.
          Electric field/nuclear overlap derivatives assumed to be zero.
 Keep R1 ints in memory in symmetry-blocked form, NReq=859711.
          There are     3 degrees of freedom in the 1st order CPHF.  IDoFFX=0 NUNeed=     3.
      3 vectors produced by pass  0 Test12= 2.67D-15 3.33D-08 XBig12= 1.71D+00 7.82D-01.
 AX will form     3 AO Fock derivatives at one time.
      3 vectors produced by pass  1 Test12= 2.67D-15 3.33D-08 XBig12= 5.95D-02 1.41D-01.
      3 vectors produced by pass  2 Test12= 2.67D-15 3.33D-08 XBig12= 6.52D-03 3.92D-02.
      3 vectors produced by pass  3 Test12= 2.67D-15 3.33D-08 XBig12= 3.45D-04 7.29D-03.
      3 vectors produced by pass  4 Test12= 2.67D-15 3.33D-08 XBig12= 4.94D-06 1.31D-03.
      3 vectors produced by pass  5 Test12= 2.67D-15 3.33D-08 XBig12= 2.63D-08 5.26D-05.
      3 vectors produced by pass  6 Test12= 2.67D-15 3.33D-08 XBig12= 8.03D-11 4.32D-06.
      3 vectors produced by pass  7 Test12= 2.67D-15 3.33D-08 XBig12= 3.86D-13 3.33D-07.
 InvSVY:  IOpt=1 It=  1 EMax= 2.53D-17
 Solved reduced A of dimension    24 with     3 vectors.
 End of Minotr F.D. properties file   721 does not exist.
 End of Minotr F.D. properties file   722 does not exist.
 End of Minotr F.D. properties file   788 does not exist.
 Symmetrizing basis deriv contribution to polar:
 IMax=3 JMax=2 DiffMx= 0.00D+00
 G2DrvN: will do     5 centers at a time, making    1 passes.
 PxScal for G2LodP:  IOpCl= 0 ISclPx=1 IMOff=     1 NMtTot=     4 NTT=     231 ScalPx= 1.00D+00
 Calling FoFCou, ICntrl=  3107 FMM=F I1Cent=   0 AccDes= 0.00D+00.
 End of G2Drv F.D. properties file   721 does not exist.
 End of G2Drv F.D. properties file   722 does not exist.
 End of G2Drv F.D. properties file   788 does not exist.
          IDoAtm=1111
          Differentiating once with respect to electric field.
                with respect to dipole field.
          Differentiating once with respect to nuclear coordinates.
 Keep R1 ints in memory in symmetry-blocked form, NReq=859803.
          There are     9 degrees of freedom in the 1st order CPHF.  IDoFFX=4 NUNeed=     9.
 Will reuse    3 saved solutions.
      6 vectors produced by pass  0 Test12= 8.89D-16 1.11D-08 XBig12= 3.42D-02 9.64D-02.
 AX will form     6 AO Fock derivatives at one time.
      6 vectors produced by pass  1 Test12= 8.89D-16 1.11D-08 XBig12= 3.49D-03 3.38D-02.
      6 vectors produced by pass  2 Test12= 8.89D-16 1.11D-08 XBig12= 1.33D-04 6.89D-03.
      6 vectors produced by pass  3 Test12= 8.89D-16 1.11D-08 XBig12= 5.58D-07 2.67D-04.
      6 vectors produced by pass  4 Test12= 8.89D-16 1.11D-08 XBig12= 2.65D-09 1.61D-05.
      6 vectors produced by pass  5 Test12= 8.89D-16 1.11D-08 XBig12= 6.26D-12 9.77D-07.
      3 vectors produced by pass  6 Test12= 8.89D-16 1.11D-08 XBig12= 2.23D-14 9.07D-08.
 InvSVY:  IOpt=1 It=  1 EMax= 9.99D-16
 Solved reduced A of dimension    39 with     6 vectors.
 Isotropic polarizability for W=    0.000000        7.73 Bohr**3.
 End of Minotr F.D. properties file   721 does not exist.
 End of Minotr F.D. properties file   722 does not exist.
 End of Minotr F.D. properties file   788 does not exist.

 **********************************************************************

            Population analysis using the SCF density.

 **********************************************************************

 Orbital symmetries:
       Occupied  (A1) (A1) (E) (E) (A1)
       Virtual   (A1) (E) (E) (E) (E) (A1) (A1) (E) (E) (A1) (E)
                 (E) (A1) (E) (E) (A1)
 The electronic state is 1-A1.
 Alpha  occ. eigenvalues --  -15.53438  -1.14027  -0.62764  -0.62764  -0.41985
 Alpha virt. eigenvalues --    0.22295   0.32489   0.32489   0.89649   0.89649
 Alpha virt. eigenvalues --    0.96995   1.21911   1.23222   1.23222   1.36442
 Alpha virt. eigenvalues --    1.96357   1.96357   2.28253   2.77026   2.77026
 Alpha virt. eigenvalues --    4.09637
          Condensed to atoms (all electrons):
               1          2          3          4
     1  N    7.000909   0.331680   0.331680   0.331680
     2  H    0.331680   0.387871  -0.025768  -0.025768
     3  H    0.331680  -0.025768   0.387871  -0.025768
     4  H    0.331680  -0.025768  -0.025768   0.387871
 Mulliken charges:
               1
     1  N   -0.995951
     2  H    0.331984
     3  H    0.331984
     4  H    0.331984
 Sum of Mulliken charges =   0.00000
 Mulliken charges with hydrogens summed into heavy atoms:
               1
     1  N    0.000000
 APT charges:
               1
     1  N   -0.491135
     2  H    0.163712
     3  H    0.163712
     4  H    0.163712
 Sum of APT charges =   0.00000
 APT charges with hydrogens summed into heavy atoms:
               1
     1  N    0.000000
 Electronic spatial extent (au):  <R**2>=             25.9391
 Charge=              0.0000 electrons
 Dipole moment (field-independent basis, Debye):
    X=              0.0000    Y=              0.0000    Z=             -1.9203  Tot=              1.9203
 Quadrupole moment (field-independent basis, Debye-Ang):
   XX=             -6.0616   YY=             -6.0616   ZZ=             -8.8767
   XY=              0.0000   XZ=              0.0000   YZ=              0.0000
 Traceless Quadrupole moment (field-independent basis, Debye-Ang):
   XX=              0.9384   YY=              0.9384   ZZ=             -1.8768
   XY=              0.0000   XZ=              0.0000   YZ=              0.0000
 Octapole moment (field-independent basis, Debye-Ang**2):
  XXX=              0.0000  YYY=              0.8645  ZZZ=             -1.8243  XYY=              0.0000
  XXY=             -0.8645  XXZ=             -0.9532  XZZ=              0.0000  YZZ=              0.0000
  YYZ=             -0.9532  XYZ=              0.0000
 Hexadecapole moment (field-independent basis, Debye-Ang**3):
 XXXX=             -9.0935 YYYY=             -9.0935 ZZZZ=             -9.6866 XXXY=              0.0000
 XXXZ=              0.0000 YYYX=              0.0000 YYYZ=             -0.3112 ZZZX=              0.0000
 ZZZY=              0.0000 XXYY=             -3.0312 XXZZ=             -3.1922 YYZZ=             -3.1922
 XXYZ=              0.3112 YYXZ=              0.0000 ZZXY=              0.0000
 N-N= 1.206879198062D+01 E-N=-1.559087108153D+02  KE= 5.610196499364D+01
 Symmetry A'   KE= 5.348802297723D+01
 Symmetry A"   KE= 2.613942016402D+00
  Exact polarizability:   8.969   0.000   8.969   0.000   0.000   5.256
 Approx polarizability:   7.078   0.000   7.078   0.000   0.000   4.258
 Calling FoFJK, ICntrl=    100127 FMM=F ISym2X=1 I1Cent= 0 IOpClX= 0 NMat=1 NMatS=1 NMatT=0.
 Full mass-weighted force constant matrix:
 Low frequencies ---  -18.2210  -15.4890  -15.4886   -0.0006    0.0019    0.0027
 Low frequencies --- 1209.1382 1849.5032 1849.5032
 Diagonal vibrational polarizability:
        0.1686495       0.1686495       4.0169926
 Diagonal vibrational hyperpolarizability:
        0.0000000      -1.7398745     -23.4402395
 Harmonic frequencies (cm**-1), IR intensities (KM/Mole), Raman scattering
 activities (A**4/AMU), depolarization ratios for plane and unpolarized
 incident light, reduced masses (AMU), force constants (mDyne/A),
 and normal coordinates:
                      1                      2                      3
                     A1                      E                      E
 Frequencies --   1209.1382              1849.5032              1849.5032
 Red. masses --      1.1805                 1.0661                 1.0661
 Frc consts  --      1.0168                 2.1487                 2.1487
 IR Inten    --    218.1984                21.3277                21.3277
 Raman Activ --      8.8026                10.5736                10.5736
 Depolar (P) --      0.1373                 0.7500                 0.7500
 Depolar (U) --      0.2415                 0.8571                 0.8571
  Atom  AN      X      Y      Z        X      Y      Z        X      Y      Z
     1   7     0.00   0.00   0.12     0.00   0.07   0.00    -0.07   0.00   0.00
     2   1     0.00  -0.21  -0.53     0.00   0.14   0.25     0.76   0.00   0.00
     3   1    -0.18   0.10  -0.53    -0.39  -0.54  -0.12     0.08   0.39  -0.21
     4   1     0.18   0.10  -0.53     0.39  -0.54  -0.12     0.08  -0.39   0.21
                      4                      5                      6
                     A1                      E                      E
 Frequencies --   3689.5991              3822.5997              3822.5997
 Red. masses --      1.0269                 1.0908                 1.0908
 Frc consts  --      8.2362                 9.3914                 9.3914
 IR Inten    --      0.3191                 0.4664                 0.4664
 Raman Activ --    116.1350                59.2412                59.2412
 Depolar (P) --      0.0750                 0.7500                 0.7500
 Depolar (U) --      0.1395                 0.8571                 0.8571
  Atom  AN      X      Y      Z        X      Y      Z        X      Y      Z
     1   7     0.00   0.00   0.04     0.00   0.08   0.00     0.08   0.00   0.00
     2   1     0.00   0.55  -0.18     0.00  -0.76   0.29     0.02   0.01   0.00
     3   1     0.48  -0.27  -0.18     0.33  -0.17  -0.14    -0.57   0.34   0.26
     4   1    -0.48  -0.27  -0.18    -0.34  -0.18  -0.15    -0.56  -0.33  -0.25

 -------------------
 - Thermochemistry -
 -------------------
 Temperature   298.150 Kelvin.  Pressure   1.00000 Atm.
 Atom     1 has atomic number  7 and mass  14.00307
 Atom     2 has atomic number  1 and mass   1.00783
 Atom     3 has atomic number  1 and mass   1.00783
 Atom     4 has atomic number  1 and mass   1.00783
 Molecular mass:    17.02655 amu.
 Principal axes and moments of inertia in atomic units:
                           1         2         3
     Eigenvalues --     5.90317   5.90317   9.37016
           X            0.70812   0.70609   0.00000
           Y           -0.70609   0.70812   0.00000
           Z            0.00000   0.00000   1.00000
 This molecule is an oblate symmetric top.
 Rotational symmetry number  3.
 Rotational temperatures (Kelvin)     14.67242    14.67242     9.24357
 Rotational constants (GHZ):         305.72393   305.72393   192.60506
 Zero-point vibrational energy      97154.4 (Joules/Mol)
                                   23.22045 (Kcal/Mol)
 Vibrational temperatures:   1739.68  2661.02  2661.02  5308.50  5499.86
          (Kelvin)           5499.86
 
 Zero-point correction=                           0.037004 (Hartree/Particle)
 Thermal correction to Energy=                    0.039855
 Thermal correction to Enthalpy=                  0.040799
 Thermal correction to Gibbs Free Energy=         0.019011
 Sum of electronic and zero-point Energies=            -56.147352
 Sum of electronic and thermal Energies=               -56.144501
 Sum of electronic and thermal Enthalpies=             -56.143557
 Sum of electronic and thermal Free Energies=          -56.165345
 
                     E (Thermal)             CV                S
                      KCal/Mol        Cal/Mol-Kelvin    Cal/Mol-Kelvin
 Total                   25.009              6.203             45.857
 Electronic               0.000              0.000              0.000
 Translational            0.889              2.981             34.441
 Rotational               0.889              2.981             11.371
 Vibrational             23.232              0.241              0.045
                       Q            Log10(Q)             Ln(Q)
 Total Bot       0.180105D-08         -8.744473        -20.134893
 Total V=0       0.188893D+09          8.276217         19.056693
 Vib (Bot)       0.956527D-17        -17.019303        -39.188392
 Vib (V=0)       0.100320D+01          0.001387          0.003194
 Electronic      0.100000D+01          0.000000          0.000000
 Translational   0.276150D+07          6.441145         14.831285
 Rotational      0.681843D+02          1.833684          4.222214
 ***** Axes restored to original set *****
 -------------------------------------------------------------------
 Center     Atomic                   Forces (Hartrees/Bohr)
 Number     Number              X              Y              Z
 -------------------------------------------------------------------
      1        7           0.000000000    0.000000000   -0.000007468
      2        1           0.000022270    0.000000000    0.000002489
      3        1          -0.000011135   -0.000019286    0.000002489
      4        1          -0.000011135    0.000019286    0.000002489
 -------------------------------------------------------------------
 Cartesian Forces:  Max     0.000022270 RMS     0.000011410
 -----------------------------------------------------------------------------------------------
                       Internal Coordinate Forces (Hartree/Bohr or radian)
  Cent   Atom   N1       Length/X         N2         Alpha/Y        N3         Beta/Z          J
 -----------------------------------------------------------------------------------------------
      1  N 
         X        1   0.000000(     1)
      2  H        1   0.000020(     2)      2  -0.000020(     5)
      3  H        1   0.000020(     3)      2  -0.000020(     6)      3   0.000000(     8)     0
      4  H        1   0.000020(     4)      2  -0.000020(     7)      3   0.000000(     9)     0
 -----------------------------------------------------------------------------------------------
 Internal  Forces:  Max     0.000019969 RMS     0.000016226

 GradGradGradGradGradGradGradGradGradGradGradGradGradGradGradGradGradGrad
 Berny optimization.
 Search for a local minimum.
 Step number   1 out of a maximum of    2
 All quantities printed in internal units (Hartrees-Bohrs-Radians)
 Second derivative matrix not updated -- analytic derivatives used.
 The second derivative matrix:
                          B1        A1
           B1           1.51983
           A1          -0.18909   0.52968
 ITU=  0
     Eigenvalues ---    0.49480   1.55471
 Angle between quadratic step and forces=  30.59 degrees.
 Linear search not attempted -- first point.
 Variable       Old X    -DE/DX   Delta X   Delta X   Delta X     New X
                                 (Linear)    (Quad)   (Total)
    B1        1.89447   0.00006   0.00000   0.00003   0.00003   1.89449
    A1        1.94921  -0.00006   0.00000  -0.00010  -0.00010   1.94911
         Item               Value     Threshold  Converged?
 Maximum Force            0.000060     0.000450     YES
 RMS     Force            0.000060     0.000300     YES
 Maximum Displacement     0.000104     0.001800     YES
 RMS     Displacement     0.000076     0.001200     YES
 Predicted change in Energy=-3.883239D-09
 Optimization completed.
    -- Stationary point found.
                       ----------------------------
                       !   Optimized Parameters   !
                       ! (Angstroms and Degrees)  !
 ----------------------                            ----------------------
 !      Name          Value   Derivative information (Atomic Units)     !
 ------------------------------------------------------------------------
 !       B1          1.0025   -DE/DX =    0.0001                        !
 !       A1        111.6815   -DE/DX =   -0.0001                        !
 ------------------------------------------------------------------------
 GradGradGradGradGradGradGradGradGradGradGradGradGradGradGradGradGradGrad

 1\1\GINC-C11-03\Freq\RHF\6-31G(d)\H3N1\EPLUHAR\02-Sep-2016\1\\#N Geom=
 AllCheck Guess=TCheck SCRF=Check GenChk RHF/6-31G(d) Freq\\Ammonia c3v
 \\0,1\N\X,1,1.\H,1,B1,2,A1\H,1,B1,2,A1,3,120.,0\H,1,B1,2,A1,3,-120.,0\
 \B1=1.00250837\A1=111.68147363\\Version=ES64L-G09RevD.01\State=1-A1\HF
 =-56.1843563\RMSD=5.346e-10\RMSF=1.141e-05\ZeroPoint=0.0370041\Thermal
 =0.0398551\Dipole=0.,0.,-0.7554913\DipoleDeriv=-0.3805296,0.,0.,0.,-0.
 3805296,0.,0.,0.,-0.712345,0.0696451,0.,0.0821298,0.,0.1840412,0.,0.18
 52409,0.,0.2374483,0.1554422,-0.049535,-0.0410649,-0.049535,0.0982441,
 -0.0711265,-0.0926205,-0.1604233,0.2374483,0.1554422,0.049535,-0.04106
 49,0.049535,0.0982441,0.0711265,-0.0926205,0.1604233,0.2374483\Polar=8
 .968872,0.,8.968872,0.,0.,5.255813\PolarDeriv=-3.7315144,0.,3.7315144,
 4.2743746,0.,0.,0.,3.7315144,0.,0.,4.2743746,0.,4.7483423,0.,4.7483424
 ,0.,0.,4.8008095,7.6554379,0.,-0.0322369,-1.8777327,0.,0.1941378,0.,1.
 356161,0.,0.,-0.9718504,0.,-2.5718158,0.,-0.5937456,2.5390326,0.,-1.60
 02697,-1.9619616,-2.2516653,-1.8496389,-1.198321,-0.3922585,-0.0970689
 ,-1.0492775,-2.5438378,-5.5526082,-0.3922585,-1.6512622,-0.1681283,-1.
 0882632,-0.8565295,-2.0772983,-1.2695163,-2.1988667,-1.6002697,-1.9619
 616,2.2516653,-1.8496389,-1.198321,0.3922585,-0.0970689,1.0492775,-2.5
 438378,5.5526082,0.3922585,-1.6512622,0.1681283,-1.0882632,0.8565295,-
 2.0772983,-1.2695163,2.1988667,-1.6002697\HyperPolar=22.3095481,0.,-22
 .3095481,0.,-15.454919,0.,-15.454919,0.,0.,-3.9820565\PG=C03V [C3(N1),
 3SGV(H1)]\NImag=0\\0.74183687,0.,0.74183687,0.,0.,0.26631190,-0.417377
 02,0.,0.13284550,0.45447673,0.,-0.07718090,0.,0.,0.07200060,0.19662046
 ,0.,-0.08877063,-0.15490634,0.,0.08169587,-0.16222993,-0.14730924,-0.0
 6642275,-0.01854985,-0.04008145,-0.02085706,0.16761963,-0.14730924,-0.
 33232799,-0.11504758,0.00346589,0.00259015,-0.00069500,0.16561702,0.35
 885769,-0.09831023,-0.17027831,-0.08877063,0.01103042,0.01771524,0.003
 53738,0.07745317,0.13415283,0.08169587,-0.16222993,0.14730924,-0.06642
 275,-0.01854985,0.04008145,-0.02085706,0.01316015,-0.02177367,0.009826
 64,0.16761963,0.14730924,-0.33232799,0.11504758,-0.00346589,0.00259015
 ,0.00069500,0.02177367,-0.02911986,0.01841024,-0.16561702,0.35885769,-
 0.09831023,0.17027831,-0.08877063,0.01103042,-0.01771524,0.00353738,0.
 00982664,-0.01841024,0.00353738,0.07745317,-0.13415283,0.08169587\\0.,
 0.,0.00000747,-0.00002227,0.,-0.00000249,0.00001113,0.00001929,-0.0000
 0249,0.00001113,-0.00001929,-0.00000249\\\@


 THERE IS AN OLD, OLD RECIPE IN MAINE FOR STEWING COOT. PLACE THE
 BIRD IN A KETTLE OF WATER WITH A RED BUILDING BRICK FREE OF MORTAR AND
 BLEMISHES. PARBOIL THE COOT AND BRICK TOGETHER FOR THREE HOURS.
 POUR OFF THE WATER, REFILL THE KETTLE, AND AGAIN PARBOIL FOR THREE HOURS.
 ONCE AGAIN POUR OFF THE WATER, FOR THE LAST TIME ADD FRESH WATER,
 AND LET THE COOT AND BRICK SIMMER TOGETHER OVERNIGHT. IN THE MORNING,
 THROW AWAY THE COOT AND EAT THE BRICK.
 Job cpu time:       0 days  0 hours  0 minutes 12.6 seconds.
 File lengths (MBytes):  RWF=      5 Int=      0 D2E=      0 Chk=      1 Scr=      1
 Normal termination of Gaussian 09 at Fri Sep  2 15:10:12 2016.
