 Entering Gaussian System, Link 0=g09
 Initial command:
 /cluster/software/gaussian/gaussian-09-D.01/g09/l1.exe "/local/scratch/epktb/Gau-17850.inp" -scrdir="/local/scratch/epktb/"
 Entering Link 1 = /cluster/software/gaussian/gaussian-09-D.01/g09/l1.exe PID=     17851.
  
 Copyright (c) 1988,1990,1992,1993,1995,1998,2003,2009,2013,
            Gaussian, Inc.  All Rights Reserved.
  
 This is part of the Gaussian(R) 09 program.  It is based on
 the Gaussian(R) 03 system (copyright 2003, Gaussian, Inc.),
 the Gaussian(R) 98 system (copyright 1998, Gaussian, Inc.),
 the Gaussian(R) 94 system (copyright 1995, Gaussian, Inc.),
 the Gaussian 92(TM) system (copyright 1992, Gaussian, Inc.),
 the Gaussian 90(TM) system (copyright 1990, Gaussian, Inc.),
 the Gaussian 88(TM) system (copyright 1988, Gaussian, Inc.),
 the Gaussian 86(TM) system (copyright 1986, Carnegie Mellon
 University), and the Gaussian 82(TM) system (copyright 1983,
 Carnegie Mellon University). Gaussian is a federally registered
 trademark of Gaussian, Inc.
  
 This software contains proprietary and confidential information,
 including trade secrets, belonging to Gaussian, Inc.
  
 This software is provided under written license and may be
 used, copied, transmitted, or stored only in accord with that
 written license.
  
 The following legend is applicable only to US Government
 contracts under FAR:
  
                    RESTRICTED RIGHTS LEGEND
  
 Use, reproduction and disclosure by the US Government is
 subject to restrictions as set forth in subparagraphs (a)
 and (c) of the Commercial Computer Software - Restricted
 Rights clause in FAR 52.227-19.
  
 Gaussian, Inc.
 340 Quinnipiac St., Bldg. 40, Wallingford CT 06492
  
  
 ---------------------------------------------------------------
 Warning -- This program may not be used in any manner that
 competes with the business of Gaussian, Inc. or will provide
 assistance to any competitor of Gaussian, Inc.  The licensee
 of this program is prohibited from giving any competitor of
 Gaussian, Inc. access to this program.  By using this program,
 the user acknowledges that Gaussian, Inc. is engaged in the
 business of creating and licensing software in the field of
 computational chemistry and represents and warrants to the
 licensee that it is not a competitor of Gaussian, Inc. and that
 it will not use this program in any manner prohibited above.
 ---------------------------------------------------------------
  

 Cite this work as:
 Gaussian 09, Revision D.01,
 M. J. Frisch, G. W. Trucks, H. B. Schlegel, G. E. Scuseria, 
 M. A. Robb, J. R. Cheeseman, G. Scalmani, V. Barone, B. Mennucci, 
 G. A. Petersson, H. Nakatsuji, M. Caricato, X. Li, H. P. Hratchian, 
 A. F. Izmaylov, J. Bloino, G. Zheng, J. L. Sonnenberg, M. Hada, 
 M. Ehara, K. Toyota, R. Fukuda, J. Hasegawa, M. Ishida, T. Nakajima, 
 Y. Honda, O. Kitao, H. Nakai, T. Vreven, J. A. Montgomery, Jr., 
 J. E. Peralta, F. Ogliaro, M. Bearpark, J. J. Heyd, E. Brothers, 
 K. N. Kudin, V. N. Staroverov, T. Keith, R. Kobayashi, J. Normand, 
 K. Raghavachari, A. Rendell, J. C. Burant, S. S. Iyengar, J. Tomasi, 
 M. Cossi, N. Rega, J. M. Millam, M. Klene, J. E. Knox, J. B. Cross, 
 V. Bakken, C. Adamo, J. Jaramillo, R. Gomperts, R. E. Stratmann, 
 O. Yazyev, A. J. Austin, R. Cammi, C. Pomelli, J. W. Ochterski, 
 R. L. Martin, K. Morokuma, V. G. Zakrzewski, G. A. Voth, 
 P. Salvador, J. J. Dannenberg, S. Dapprich, A. D. Daniels, 
 O. Farkas, J. B. Foresman, J. V. Ortiz, J. Cioslowski, 
 and D. J. Fox, Gaussian, Inc., Wallingford CT, 2013.
 
 ******************************************
 Gaussian 09:  ES64L-G09RevD.01 24-Apr-2013
                10-Oct-2016 
 ******************************************
 %nprocshared=4
 Will use up to    4 processors via shared memory.
 %mem=6GB
 %chk=benzene-rhf
 ------------------------
 # opt freq rhf/6-311+g**
 ------------------------
 1/18=20,19=15,38=1/1,3;
 2/9=110,12=2,17=6,18=5,40=1/2;
 3/5=4,6=6,7=111,11=1,16=1,25=1,30=1,71=1,116=1/1,2,3;
 4//1;
 5/5=2,38=5/2;
 6/7=2,8=2,9=2,10=2,28=1/1;
 7//1,2,3,16;
 1/18=20,19=15/3(2);
 2/9=110/2;
 99//99;
 2/9=110/2;
 3/5=4,6=6,7=111,11=1,16=1,25=1,30=1,71=1,116=1/1,2,3;
 4/5=5,16=3,69=1/1;
 5/5=2,38=5/2;
 7//1,2,3,16;
 1/18=20,19=15/3(-5);
 2/9=110/2;
 6/7=2,8=2,9=2,10=2,19=2,28=1/1;
 99/9=1/99;
 -----
 title
 -----
 Symbolic Z-matrix:
 Charge =  0 Multiplicity = 1
 C                     0.        0.        1.05903 
 C                     0.       -1.20601   1.75767 
 C                     0.       -1.20718   3.15159 
 C                     0.        0.        3.84858 
 C                     0.        1.20718   3.15159 
 C                     0.        1.20601   1.75767 
 H                     0.        0.       -0.02158 
 H                     0.       -2.14164   1.21442 
 H                     0.       -2.14357   3.693 
 H                     0.        0.        4.93015 
 H                     0.        2.14357   3.693 
 H                     0.        2.14164   1.21442 
 C                    -1.39406   0.       -2.45415 
 C                    -0.69705   1.20724  -2.45463 
 C                     0.69705   1.20724  -2.45463 
 C                     1.39406   0.       -2.45415 
 C                     0.69705  -1.20724  -2.45463 
 C                    -0.69705  -1.20724  -2.45463 
 H                    -2.4754    0.       -2.45032 
 H                    -1.23823   2.14357  -2.45368 
 H                     1.23823   2.14357  -2.45368 
 H                     2.4754    0.       -2.45032 
 H                     1.23823  -2.14357  -2.45368 
 H                    -1.23823  -2.14357  -2.45368 
 
 Add virtual bond connecting atoms C13        and H7         Dist= 5.30D+00.
 Add virtual bond connecting atoms C14        and H7         Dist= 5.30D+00.
 Add virtual bond connecting atoms C15        and H7         Dist= 5.30D+00.
 Add virtual bond connecting atoms C16        and H7         Dist= 5.30D+00.
 Add virtual bond connecting atoms C17        and H7         Dist= 5.30D+00.

 GradGradGradGradGradGradGradGradGradGradGradGradGradGradGradGradGradGrad
 Berny optimization.
 Initialization pass.
                           ----------------------------
                           !    Initial Parameters    !
                           ! (Angstroms and Degrees)  !
 --------------------------                            --------------------------
 ! Name  Definition              Value          Derivative Info.                !
 --------------------------------------------------------------------------------
 ! R1    R(1,2)                  1.3938         estimate D2E/DX2                !
 ! R2    R(1,6)                  1.3938         estimate D2E/DX2                !
 ! R3    R(1,7)                  1.0806         estimate D2E/DX2                !
 ! R4    R(2,3)                  1.3939         estimate D2E/DX2                !
 ! R5    R(2,8)                  1.0819         estimate D2E/DX2                !
 ! R6    R(3,4)                  1.3939         estimate D2E/DX2                !
 ! R7    R(3,9)                  1.0816         estimate D2E/DX2                !
 ! R8    R(4,5)                  1.3939         estimate D2E/DX2                !
 ! R9    R(4,10)                 1.0816         estimate D2E/DX2                !
 ! R10   R(5,6)                  1.3939         estimate D2E/DX2                !
 ! R11   R(5,11)                 1.0816         estimate D2E/DX2                !
 ! R12   R(6,12)                 1.0819         estimate D2E/DX2                !
 ! R13   R(7,13)                 2.8037         estimate D2E/DX2                !
 ! R14   R(7,14)                 2.8041         estimate D2E/DX2                !
 ! R15   R(7,15)                 2.8041         estimate D2E/DX2                !
 ! R16   R(7,16)                 2.8037         estimate D2E/DX2                !
 ! R17   R(7,17)                 2.8041         estimate D2E/DX2                !
 ! R18   R(13,14)                1.394          estimate D2E/DX2                !
 ! R19   R(13,18)                1.394          estimate D2E/DX2                !
 ! R20   R(13,19)                1.0813         estimate D2E/DX2                !
 ! R21   R(14,15)                1.3941         estimate D2E/DX2                !
 ! R22   R(14,20)                1.0815         estimate D2E/DX2                !
 ! R23   R(15,16)                1.394          estimate D2E/DX2                !
 ! R24   R(15,21)                1.0815         estimate D2E/DX2                !
 ! R25   R(16,17)                1.394          estimate D2E/DX2                !
 ! R26   R(16,22)                1.0813         estimate D2E/DX2                !
 ! R27   R(17,18)                1.3941         estimate D2E/DX2                !
 ! R28   R(17,23)                1.0815         estimate D2E/DX2                !
 ! R29   R(18,24)                1.0815         estimate D2E/DX2                !
 ! A1    A(2,1,6)              119.8327         estimate D2E/DX2                !
 ! A2    A(2,1,7)              120.0837         estimate D2E/DX2                !
 ! A3    A(6,1,7)              120.0837         estimate D2E/DX2                !
 ! A4    A(1,2,3)              120.1317         estimate D2E/DX2                !
 ! A5    A(1,2,8)              119.7758         estimate D2E/DX2                !
 ! A6    A(3,2,8)              120.0925         estimate D2E/DX2                !
 ! A7    A(2,3,4)              119.9527         estimate D2E/DX2                !
 ! A8    A(2,3,9)              120.0838         estimate D2E/DX2                !
 ! A9    A(4,3,9)              119.9635         estimate D2E/DX2                !
 ! A10   A(3,4,5)              119.9986         estimate D2E/DX2                !
 ! A11   A(3,4,10)             120.0007         estimate D2E/DX2                !
 ! A12   A(5,4,10)             120.0007         estimate D2E/DX2                !
 ! A13   A(4,5,6)              119.9527         estimate D2E/DX2                !
 ! A14   A(4,5,11)             119.9635         estimate D2E/DX2                !
 ! A15   A(6,5,11)             120.0838         estimate D2E/DX2                !
 ! A16   A(1,6,5)              120.1317         estimate D2E/DX2                !
 ! A17   A(1,6,12)             119.7758         estimate D2E/DX2                !
 ! A18   A(5,6,12)             120.0925         estimate D2E/DX2                !
 ! A19   A(1,7,13)             150.1838         estimate D2E/DX2                !
 ! A20   A(1,7,14)             150.1893         estimate D2E/DX2                !
 ! A21   A(1,7,15)             150.1893         estimate D2E/DX2                !
 ! A22   A(1,7,16)             150.1838         estimate D2E/DX2                !
 ! A23   A(1,7,17)             150.1893         estimate D2E/DX2                !
 ! A24   A(13,7,15)             51.0078         estimate D2E/DX2                !
 ! A25   A(13,7,16)             59.6325         estimate D2E/DX2                !
 ! A26   A(13,7,17)             51.0078         estimate D2E/DX2                !
 ! A27   A(14,7,16)             51.0078         estimate D2E/DX2                !
 ! A28   A(14,7,17)             59.6214         estimate D2E/DX2                !
 ! A29   A(15,7,17)             51.0017         estimate D2E/DX2                !
 ! A30   A(7,13,18)             75.622          estimate D2E/DX2                !
 ! A31   A(7,13,19)            119.6133         estimate D2E/DX2                !
 ! A32   A(14,13,18)           119.9988         estimate D2E/DX2                !
 ! A33   A(14,13,19)           120.0005         estimate D2E/DX2                !
 ! A34   A(18,13,19)           120.0005         estimate D2E/DX2                !
 ! A35   A(7,14,20)            119.7602         estimate D2E/DX2                !
 ! A36   A(13,14,15)           120.0006         estimate D2E/DX2                !
 ! A37   A(13,14,20)           119.972          estimate D2E/DX2                !
 ! A38   A(15,14,20)           120.0273         estimate D2E/DX2                !
 ! A39   A(7,15,21)            119.7602         estimate D2E/DX2                !
 ! A40   A(14,15,16)           120.0006         estimate D2E/DX2                !
 ! A41   A(14,15,21)           120.0273         estimate D2E/DX2                !
 ! A42   A(16,15,21)           119.972          estimate D2E/DX2                !
 ! A43   A(7,16,22)            119.6133         estimate D2E/DX2                !
 ! A44   A(15,16,17)           119.9988         estimate D2E/DX2                !
 ! A45   A(15,16,22)           120.0005         estimate D2E/DX2                !
 ! A46   A(17,16,22)           120.0005         estimate D2E/DX2                !
 ! A47   A(7,17,18)             75.6065         estimate D2E/DX2                !
 ! A48   A(7,17,23)            119.7602         estimate D2E/DX2                !
 ! A49   A(16,17,18)           120.0006         estimate D2E/DX2                !
 ! A50   A(16,17,23)           119.972          estimate D2E/DX2                !
 ! A51   A(18,17,23)           120.0273         estimate D2E/DX2                !
 ! A52   A(13,18,17)           120.0006         estimate D2E/DX2                !
 ! A53   A(13,18,24)           119.972          estimate D2E/DX2                !
 ! A54   A(17,18,24)           120.0273         estimate D2E/DX2                !
 ! D1    D(6,1,2,3)              0.0            estimate D2E/DX2                !
 ! D2    D(6,1,2,8)            180.0            estimate D2E/DX2                !
 ! D3    D(7,1,2,3)            180.0            estimate D2E/DX2                !
 ! D4    D(7,1,2,8)              0.0            estimate D2E/DX2                !
 ! D5    D(2,1,6,5)              0.0            estimate D2E/DX2                !
 ! D6    D(2,1,6,12)           180.0            estimate D2E/DX2                !
 ! D7    D(7,1,6,5)            180.0            estimate D2E/DX2                !
 ! D8    D(7,1,6,12)             0.0            estimate D2E/DX2                !
 ! D9    D(2,1,7,13)            90.0            estimate D2E/DX2                !
 ! D10   D(2,1,7,14)           149.9983         estimate D2E/DX2                !
 ! D11   D(2,1,7,15)          -149.9983         estimate D2E/DX2                !
 ! D12   D(2,1,7,16)           -90.0            estimate D2E/DX2                !
 ! D13   D(2,1,7,17)           -30.0017         estimate D2E/DX2                !
 ! D14   D(6,1,7,13)           -90.0            estimate D2E/DX2                !
 ! D15   D(6,1,7,14)           -30.0017         estimate D2E/DX2                !
 ! D16   D(6,1,7,15)            30.0017         estimate D2E/DX2                !
 ! D17   D(6,1,7,16)            90.0            estimate D2E/DX2                !
 ! D18   D(6,1,7,17)           149.9983         estimate D2E/DX2                !
 ! D19   D(1,2,3,4)              0.0            estimate D2E/DX2                !
 ! D20   D(1,2,3,9)            180.0            estimate D2E/DX2                !
 ! D21   D(8,2,3,4)            180.0            estimate D2E/DX2                !
 ! D22   D(8,2,3,9)              0.0            estimate D2E/DX2                !
 ! D23   D(2,3,4,5)              0.0            estimate D2E/DX2                !
 ! D24   D(2,3,4,10)           180.0            estimate D2E/DX2                !
 ! D25   D(9,3,4,5)            180.0            estimate D2E/DX2                !
 ! D26   D(9,3,4,10)             0.0            estimate D2E/DX2                !
 ! D27   D(3,4,5,6)              0.0            estimate D2E/DX2                !
 ! D28   D(3,4,5,11)           180.0            estimate D2E/DX2                !
 ! D29   D(10,4,5,6)           180.0            estimate D2E/DX2                !
 ! D30   D(10,4,5,11)            0.0            estimate D2E/DX2                !
 ! D31   D(4,5,6,1)              0.0            estimate D2E/DX2                !
 ! D32   D(4,5,6,12)           180.0            estimate D2E/DX2                !
 ! D33   D(11,5,6,1)           180.0            estimate D2E/DX2                !
 ! D34   D(11,5,6,12)            0.0            estimate D2E/DX2                !
 ! D35   D(1,7,13,18)         -116.6169         estimate D2E/DX2                !
 ! D36   D(1,7,13,19)            0.0            estimate D2E/DX2                !
 ! D37   D(15,7,13,18)          97.0195         estimate D2E/DX2                !
 ! D38   D(15,7,13,19)        -146.3636         estimate D2E/DX2                !
 ! D39   D(16,7,13,18)          63.3831         estimate D2E/DX2                !
 ! D40   D(16,7,13,19)         180.0            estimate D2E/DX2                !
 ! D41   D(17,7,13,18)          29.7467         estimate D2E/DX2                !
 ! D42   D(17,7,13,19)         146.3636         estimate D2E/DX2                !
 ! D43   D(1,7,14,20)           -0.0296         estimate D2E/DX2                !
 ! D44   D(16,7,14,20)        -146.3867         estimate D2E/DX2                !
 ! D45   D(17,7,14,20)         179.9704         estimate D2E/DX2                !
 ! D46   D(1,7,15,21)            0.0296         estimate D2E/DX2                !
 ! D47   D(13,7,15,21)         146.3867         estimate D2E/DX2                !
 ! D48   D(17,7,15,21)        -146.3288         estimate D2E/DX2                !
 ! D49   D(1,7,16,22)            0.0            estimate D2E/DX2                !
 ! D50   D(13,7,16,22)         180.0            estimate D2E/DX2                !
 ! D51   D(14,7,16,22)         146.3636         estimate D2E/DX2                !
 ! D52   D(1,7,17,18)          116.6102         estimate D2E/DX2                !
 ! D53   D(1,7,17,23)           -0.0296         estimate D2E/DX2                !
 ! D54   D(13,7,17,18)         -29.7469         estimate D2E/DX2                !
 ! D55   D(13,7,17,23)        -146.3867         estimate D2E/DX2                !
 ! D56   D(14,7,17,18)         -63.3898         estimate D2E/DX2                !
 ! D57   D(14,7,17,23)         179.9704         estimate D2E/DX2                !
 ! D58   D(15,7,17,18)         -97.0314         estimate D2E/DX2                !
 ! D59   D(15,7,17,23)         146.3288         estimate D2E/DX2                !
 ! D60   D(18,13,14,15)         -0.0452         estimate D2E/DX2                !
 ! D61   D(18,13,14,20)       -179.9644         estimate D2E/DX2                !
 ! D62   D(19,13,14,15)        179.7657         estimate D2E/DX2                !
 ! D63   D(19,13,14,20)         -0.1535         estimate D2E/DX2                !
 ! D64   D(7,13,18,17)         -63.5957         estimate D2E/DX2                !
 ! D65   D(7,13,18,24)         116.3235         estimate D2E/DX2                !
 ! D66   D(14,13,18,17)          0.0452         estimate D2E/DX2                !
 ! D67   D(14,13,18,24)        179.9644         estimate D2E/DX2                !
 ! D68   D(19,13,18,17)       -179.7657         estimate D2E/DX2                !
 ! D69   D(19,13,18,24)          0.1535         estimate D2E/DX2                !
 ! D70   D(13,14,15,16)          0.0            estimate D2E/DX2                !
 ! D71   D(13,14,15,21)       -179.9192         estimate D2E/DX2                !
 ! D72   D(20,14,15,16)        179.9192         estimate D2E/DX2                !
 ! D73   D(20,14,15,21)          0.0            estimate D2E/DX2                !
 ! D74   D(14,15,16,17)          0.0452         estimate D2E/DX2                !
 ! D75   D(14,15,16,22)       -179.7657         estimate D2E/DX2                !
 ! D76   D(21,15,16,17)        179.9644         estimate D2E/DX2                !
 ! D77   D(21,15,16,22)          0.1535         estimate D2E/DX2                !
 ! D78   D(15,16,17,18)         -0.0452         estimate D2E/DX2                !
 ! D79   D(15,16,17,23)       -179.9644         estimate D2E/DX2                !
 ! D80   D(22,16,17,18)        179.7657         estimate D2E/DX2                !
 ! D81   D(22,16,17,23)         -0.1535         estimate D2E/DX2                !
 ! D82   D(7,17,18,13)          63.5876         estimate D2E/DX2                !
 ! D83   D(7,17,18,24)        -116.3316         estimate D2E/DX2                !
 ! D84   D(16,17,18,13)          0.0            estimate D2E/DX2                !
 ! D85   D(16,17,18,24)       -179.9192         estimate D2E/DX2                !
 ! D86   D(23,17,18,13)        179.9192         estimate D2E/DX2                !
 ! D87   D(23,17,18,24)          0.0            estimate D2E/DX2                !
 --------------------------------------------------------------------------------
 Trust Radius=3.00D-01 FncErr=1.00D-07 GrdErr=1.00D-07
 Number of steps in this run=    144 maximum allowed number of steps=    144.
 GradGradGradGradGradGradGradGradGradGradGradGradGradGradGradGradGradGrad

                          Input orientation:                          
 ---------------------------------------------------------------------
 Center     Atomic      Atomic             Coordinates (Angstroms)
 Number     Number       Type             X           Y           Z
 ---------------------------------------------------------------------
      1          6           0        0.000000    0.000000    1.059035
      2          6           0        0.000000   -1.206008    1.757674
      3          6           0        0.000000   -1.207177    3.151591
      4          6           0        0.000000    0.000000    3.848575
      5          6           0        0.000000    1.207177    3.151591
      6          6           0        0.000000    1.206008    1.757674
      7          1           0        0.000000    0.000000   -0.021580
      8          1           0        0.000000   -2.141639    1.214422
      9          1           0        0.000000   -2.143566    3.692995
     10          1           0        0.000000    0.000000    4.930150
     11          1           0        0.000000    2.143566    3.692995
     12          1           0        0.000000    2.141639    1.214422
     13          6           0       -1.394063    0.000000   -2.454152
     14          6           0       -0.697047    1.207238   -2.454628
     15          6           0        0.697047    1.207238   -2.454628
     16          6           0        1.394063    0.000000   -2.454152
     17          6           0        0.697047   -1.207238   -2.454628
     18          6           0       -0.697047   -1.207238   -2.454628
     19          1           0       -2.475399    0.000000   -2.450322
     20          1           0       -1.238232    2.143565   -2.453676
     21          1           0        1.238232    2.143565   -2.453676
     22          1           0        2.475399    0.000000   -2.450322
     23          1           0        1.238232   -2.143565   -2.453676
     24          1           0       -1.238232   -2.143565   -2.453676
 ---------------------------------------------------------------------
                    Distance matrix (angstroms):
                    1          2          3          4          5
     1  C    0.000000
     2  C    1.393755   0.000000
     3  C    2.415795   1.393917   0.000000
     4  C    2.789540   2.413778   1.393938   0.000000
     5  C    2.415795   2.786838   2.414354   1.393938   0.000000
     6  C    1.393755   2.412016   2.786838   2.413778   1.393917
     7  H    1.080615   2.149465   3.395039   3.870155   3.395039
     8  H    2.147269   1.081909   2.150777   3.394905   3.868746
     9  H    3.395971   2.150461   1.081639   2.149205   3.394200
    10  H    3.871115   3.393974   2.149546   1.081575   2.149546
    11  H    3.395971   3.868477   3.394200   2.149205   1.081639
    12  H    2.147269   3.391440   3.868746   3.394905   2.150777
    13  C    3.779669   4.597537   5.901275   6.455058   5.901275
    14  C    3.780096   4.904398   6.143693   6.455514   5.649386
    15  C    3.780096   4.904398   6.143693   6.455514   5.649386
    16  C    3.779669   4.597537   5.901275   6.455058   5.901275
    17  C    3.780096   4.269586   5.649386   6.455514   6.143693
    18  C    3.780096   4.269586   5.649386   6.455514   6.143693
    19  H    4.294553   5.028845   6.242300   6.767843   6.242300
    20  H    4.297351   5.521624   6.646782   6.771001   5.816275
    21  H    4.297351   5.521624   6.646782   6.771001   5.816275
    22  H    4.294553   5.028845   6.242300   6.767843   6.242300
    23  H    4.297351   4.488619   5.816275   6.771001   6.646782
    24  H    4.297351   4.488619   5.816275   6.771001   6.646782
                    6          7          8          9         10
     6  C    0.000000
     7  H    2.149465   0.000000
     8  H    3.391440   2.472715   0.000000
     9  H    3.868477   4.288699   2.478574   0.000000
    10  H    3.393974   4.951730   4.288735   2.474960   0.000000
    11  H    2.150461   4.288699   4.950384   4.287132   2.474960
    12  H    1.081909   2.472715   4.283278   4.950384   4.288735
    13  C    4.597537   2.803715   4.470846   6.657755   7.514741
    14  C    4.269586   2.804108   5.016252   7.036123   7.515201
    15  C    4.269586   2.804108   5.016252   7.036123   7.515201
    16  C    4.597537   2.803715   4.470846   6.657755   7.514741
    17  C    4.904398   2.804108   3.849793   6.257464   7.515201
    18  C    4.904398   2.804108   3.849793   6.257464   7.515201
    19  H    5.028845   3.467908   4.913712   6.961524   7.784534
    20  H    4.488619   3.470329   5.775044   7.595675   7.787745
    21  H    4.488619   3.470329   5.775044   7.595675   7.787745
    22  H    5.028845   3.467908   4.913712   6.961524   7.784534
    23  H    5.521624   3.470329   3.871455   6.270150   7.787745
    24  H    5.521624   3.470329   3.871455   6.270150   7.787745
                   11         12         13         14         15
    11  H    0.000000
    12  H    2.478574   0.000000
    13  C    6.657755   4.470846   0.000000
    14  C    6.257464   3.849793   1.394007   0.000000
    15  C    6.257464   3.849793   2.414573   1.394094   0.000000
    16  C    6.657755   4.470846   2.788126   2.414573   1.394007
    17  C    7.036123   5.016252   2.414573   2.788045   2.414476
    18  C    7.036123   5.016252   1.394007   2.414476   2.788045
    19  H    6.961524   4.913712   1.081343   2.149413   3.394386
    20  H    6.270150   3.871455   2.149222   1.081476   2.149887
    21  H    6.270150   3.871455   3.394679   2.149887   1.081476
    22  H    6.961524   4.913712   3.869464   3.394386   2.149413
    23  H    7.595675   5.775044   3.394679   3.869520   3.394225
    24  H    7.595675   5.775044   2.149222   3.394225   3.869520
                   16         17         18         19         20
    16  C    0.000000
    17  C    1.394007   0.000000
    18  C    2.414573   1.394094   0.000000
    19  H    3.869464   3.394386   2.149413   0.000000
    20  H    3.394679   3.869520   3.394225   2.474968   0.000000
    21  H    2.149222   3.394225   3.869520   4.287883   2.476464
    22  H    1.081343   2.149413   3.394386   4.950798   4.287883
    23  H    2.149222   1.081476   2.149887   4.287883   4.950996
    24  H    3.394679   2.149887   1.081476   2.474968   4.287130
                   21         22         23         24
    21  H    0.000000
    22  H    2.474968   0.000000
    23  H    4.287130   2.474968   0.000000
    24  H    4.950996   4.287883   2.476464   0.000000
 Stoichiometry    C12H12
 Framework group  C2V[C2(HCCH),SGV(C4H4),SGV'(C2H2),X(C4H4)]
 Deg. of freedom    21
 Full point group                 C2V     NOp   4
 Largest Abelian subgroup         C2V     NOp   4
 Largest concise Abelian subgroup C2V     NOp   4
                         Standard orientation:                         
 ---------------------------------------------------------------------
 Center     Atomic      Atomic             Coordinates (Angstroms)
 Number     Number       Type             X           Y           Z
 ---------------------------------------------------------------------
      1          6           0        0.000000    0.000000    1.058987
      2          6           0        0.000000    1.206008    1.757626
      3          6           0        0.000000    1.207177    3.151543
      4          6           0        0.000000    0.000000    3.848527
      5          6           0        0.000000   -1.207177    3.151543
      6          6           0        0.000000   -1.206008    1.757626
      7          1           0        0.000000    0.000000   -0.021628
      8          1           0        0.000000    2.141639    1.214374
      9          1           0        0.000000    2.143566    3.692947
     10          1           0        0.000000    0.000000    4.930102
     11          1           0        0.000000   -2.143566    3.692947
     12          1           0        0.000000   -2.141639    1.214374
     13          6           0        1.394063    0.000000   -2.454200
     14          6           0        0.697047   -1.207238   -2.454676
     15          6           0       -0.697047   -1.207238   -2.454676
     16          6           0       -1.394063    0.000000   -2.454200
     17          6           0       -0.697047    1.207238   -2.454676
     18          6           0        0.697047    1.207238   -2.454676
     19          1           0        2.475399    0.000000   -2.450370
     20          1           0        1.238232   -2.143565   -2.453724
     21          1           0       -1.238232   -2.143565   -2.453724
     22          1           0       -2.475399    0.000000   -2.450370
     23          1           0       -1.238232    2.143565   -2.453724
     24          1           0        1.238232    2.143565   -2.453724
 ---------------------------------------------------------------------
 Rotational constants (GHZ):      1.9044769      0.4523176      0.4191644
 Standard basis: 6-311+G(d,p) (5D, 7F)
 There are   127 symmetry adapted cartesian basis functions of A1  symmetry.
 There are    52 symmetry adapted cartesian basis functions of A2  symmetry.
 There are    77 symmetry adapted cartesian basis functions of B1  symmetry.
 There are    92 symmetry adapted cartesian basis functions of B2  symmetry.
 There are   121 symmetry adapted basis functions of A1  symmetry.
 There are    51 symmetry adapted basis functions of A2  symmetry.
 There are    75 symmetry adapted basis functions of B1  symmetry.
 There are    89 symmetry adapted basis functions of B2  symmetry.
   336 basis functions,   528 primitive gaussians,   348 cartesian basis functions
    42 alpha electrons       42 beta electrons
       nuclear repulsion energy       592.4166392068 Hartrees.
 NAtoms=   24 NActive=   24 NUniq=   12 SFac= 4.00D+00 NAtFMM=   60 NAOKFM=F Big=F
 Integral buffers will be    131072 words long.
 Raffenetti 1 integral format.
 Two-electron integral symmetry is turned on.
 One-electron integrals computed using PRISM.
 NBasis=   336 RedAO= T EigKep=  2.04D-06  NBF=   121    51    75    89
 NBsUse=   336 1.00D-06 EigRej= -1.00D+00 NBFU=   121    51    75    89
 ExpMin= 4.38D-02 ExpMax= 4.56D+03 ExpMxC= 6.82D+02 IAcc=2 IRadAn=         4 AccDes= 0.00D+00
 Harris functional with IExCor=  205 and IRadAn=       4 diagonalized for initial guess.
 HarFok:  IExCor=  205 AccDes= 0.00D+00 IRadAn=         4 IDoV= 1 UseB2=F ITyADJ=14
 ICtDFT=  3500011 ScaDFX=  1.000000  1.000000  1.000000  1.000000
 FoFCou: FMM=F IPFlag=           0 FMFlag=      100000 FMFlg1=           0
         NFxFlg=           0 DoJE=T BraDBF=F KetDBF=T FulRan=T
         wScrn=  0.000000 ICntrl=     500 IOpCl=  0 I1Cent=   200000004 NGrid=           0
         NMat0=    1 NMatS0=      1 NMatT0=    0 NMatD0=    1 NMtDS0=    0 NMtDT0=    0
 Petite list used in FoFCou.
 Initial guess orbital symmetries:
       Occupied  (A1) (A1) (B1) (B2) (A1) (B2) (A1) (A2) (A1) (B2)
                 (B1) (A1) (A1) (A1) (B2) (B1) (A1) (B2) (A2) (A1)
                 (A1) (B2) (A1) (A1) (B2) (B2) (A1) (B1) (A1) (B2)
                 (B1) (B2) (A1) (B1) (A1) (A2) (B2) (A1) (B1) (B2)
                 (A2) (B1)
       Virtual   (A2) (A1) (B1) (A2) (A1) (A1) (B1) (B1) (B2) (B1)
                 (A1) (B2) (A1) (A1) (A2) (B2) (A1) (A1) (B1) (B1)
                 (B1) (B2) (A1) (A2) (B2) (B2) (A1) (B1) (B2) (B2)
                 (A1) (A2) (A1) (A1) (A2) (A1) (B1) (B1) (B2) (B2)
                 (A1) (A1) (A2) (A1) (B1) (A1) (B2) (A2) (B1) (A1)
                 (B2) (B1) (B2) (B1) (A1) (A2) (A1) (B2) (A1) (B1)
                 (B2) (A1) (B2) (A1) (B1) (A2) (B2) (A1) (B2) (A1)
                 (B1) (A2) (A1) (B2) (A1) (B2) (A1) (A1) (A2) (B2)
                 (B1) (B2) (B2) (B1) (A1) (A1) (B1) (A2) (B2) (A1)
                 (A2) (B1) (B1) (A1) (B2) (A1) (A2) (B1) (A1) (A2)
                 (B2) (A1) (A1) (A2) (B1) (B1) (A1) (B2) (A1) (B1)
                 (B2) (B1) (B2) (A1) (A1) (B2) (A1) (B1) (B2) (A1)
                 (A2) (A2) (A1) (B2) (B1) (B2) (A1) (B1) (A1) (B2)
                 (B1) (A1) (B2) (A2) (B2) (A2) (B2) (B1) (A1) (A2)
                 (A1) (B1) (B2) (A2) (A2) (A1) (B1) (A1) (A1) (B1)
                 (A1) (A1) (B2) (A1) (B2) (B1) (B2) (B2) (A1) (A1)
                 (A2) (B1) (A1) (A2) (B1) (B1) (A2) (B2) (A1) (A1)
                 (B1) (B2) (B2) (A1) (B1) (B1) (A1) (A2) (B2) (B1)
                 (A1) (B2) (A2) (A1) (B2) (B2) (A2) (B1) (B1) (B2)
                 (B2) (B1) (A1) (B2) (A2) (A1) (B1) (A2) (A1) (B2)
                 (A1) (B2) (A2) (A2) (A1) (B1) (A2) (A2) (B1) (B1)
                 (A1) (B2) (A1) (A2) (B1) (A1) (B2) (B2) (A1) (A1)
                 (B1) (B2) (B1) (A1) (B2) (A1) (B1) (A1) (A1) (B1)
                 (A2) (B2) (A1) (B1) (B2) (B2) (A1) (B1) (A2) (A1)
                 (B1) (A1) (A1) (A2) (A2) (B1) (A1) (B2) (A2) (B2)
                 (A2) (A1) (B2) (A1) (B2) (B1) (B1) (B2) (B2) (A2)
                 (A1) (A1) (B2) (A1) (B1) (B2) (A1) (A1) (B1) (A1)
                 (A2) (A1) (B2) (A1) (B1) (A1) (B1) (B2) (B2) (A1)
                 (A2) (B2) (A1) (A1) (B2) (B1) (A1) (B2) (A2) (A1)
                 (A1) (B2) (B1) (A1)
 The electronic state of the initial guess is 1-A1.
 Requested convergence on RMS density matrix=1.00D-08 within 128 cycles.
 Requested convergence on MAX density matrix=1.00D-06.
 Requested convergence on             energy=1.00D-06.
 No special actions if energy rises.
 Initial convergence to 1.0D-05 achieved.  Increase integral accuracy.
 SCF Done:  E(RHF) =  -461.510760781     A.U. after   13 cycles
            NFock= 13  Conv=0.69D-08     -V/T= 2.0011

 **********************************************************************

            Population analysis using the SCF density.

 **********************************************************************

 Orbital symmetries:
       Occupied  (A1) (B2) (B1) (A2) (A1) (B1) (A1) (B2) (A1) (A1)
                 (B2) (A1) (A1) (A1) (B2) (B1) (B2) (A1) (A2) (A1)
                 (B2) (A1) (A1) (A1) (B1) (A1) (B2) (B2) (B2) (B1)
                 (A1) (B2) (A1) (A2) (A1) (B1) (B2) (A1) (B1) (B2)
                 (A2) (B1)
       Virtual   (A1) (B2) (A1) (B1) (B2) (A1) (A2) (A1) (A2) (A1)
                 (B1) (A1) (B2) (A2) (B1) (B1) (A1) (B2) (B1) (A1)
                 (B2) (A2) (A1) (A1) (B1) (A2) (B2) (B1) (A1) (B1)
                 (B2) (A2) (B2) (A1) (B2) (B1) (A1) (A2) (B1) (A1)
                 (B2) (A1) (B1) (A2) (A1) (B2) (A2) (A1) (B1) (A1)
                 (A1) (B1) (B2) (B2) (B2) (A1) (B1) (A1) (A1) (B2)
                 (A2) (B1) (A1) (B2) (B1) (A1) (A2) (A1) (B2) (B1)
                 (B2) (A1) (A1) (B2) (A1) (A1) (B2) (B2) (B1) (A1)
                 (B2) (B1) (A1) (A1) (B1) (B2) (A2) (A2) (B2) (A1)
                 (A2) (B1) (B2) (B1) (A1) (A2) (A1) (B1) (A2) (A1)
                 (B2) (B1) (B1) (A1) (A1) (A2) (B1) (B1) (A1) (B2)
                 (B2) (B2) (A1) (A1) (A1) (A1) (A2) (B1) (B2) (A1)
                 (A1) (B2) (B2) (B1) (B2) (B1) (B2) (A1) (A1) (A2)
                 (A1) (B2) (B1) (A2) (A1) (B2) (A1) (B2) (A2) (B1)
                 (A2) (B1) (B2) (A2) (A1) (A1) (A2) (B1) (B1) (A1)
                 (A1) (A1) (B2) (A1) (B2) (B1) (B2) (B2) (A1) (B1)
                 (A1) (A2) (B1) (A1) (A2) (B1) (A2) (A1) (B2) (B1)
                 (A1) (B2) (B2) (A1) (B1) (A1) (B1) (A2) (B2) (B1)
                 (A1) (A2) (B2) (A1) (B2) (B2) (B1) (A2) (B2) (A2)
                 (B1) (B2) (B1) (B2) (A1) (B1) (B2) (A1) (A2) (A1)
                 (A1) (A2) (A1) (B2) (A2) (B1) (B1) (B1) (A2) (A2)
                 (A2) (A1) (A1) (B2) (A1) (B2) (B1) (A1) (B2) (A1)
                 (B2) (B1) (A1) (B2) (A1) (B1) (A1) (B2) (A1) (B1)
                 (A1) (B2) (A2) (B1) (A1) (A1) (B1) (B2) (A1) (A1)
                 (B1) (A2) (B1) (B2) (A2) (B2) (A2) (A1) (A2) (A1)
                 (A2) (B1) (B2) (A1) (B1) (B1) (B2) (B2) (A2) (A1)
                 (B2) (A1) (B2) (B1) (A1) (B2) (A1) (A1) (B1) (A1)
                 (A2) (A1) (B2) (A1) (B1) (A1) (B1) (B2) (B2) (A1)
                 (A2) (B2) (A1) (A1) (B1) (B2) (B2) (A1) (A2) (A1)
                 (B2) (A1) (B1) (A1)
 The electronic state is 1-A1.
 Alpha  occ. eigenvalues --  -11.24304 -11.24254 -11.24240 -11.24131 -11.24115
 Alpha  occ. eigenvalues --  -11.24062 -11.23089 -11.23035 -11.22912 -11.22799
 Alpha  occ. eigenvalues --  -11.22785 -11.22419  -1.15842  -1.14421  -1.02201
 Alpha  occ. eigenvalues --   -1.02173  -1.00874  -1.00805  -0.83049  -0.83037
 Alpha  occ. eigenvalues --   -0.81765  -0.81724  -0.71651  -0.70368  -0.64955
 Alpha  occ. eigenvalues --   -0.63747  -0.62566  -0.61252  -0.59487  -0.59454
 Alpha  occ. eigenvalues --   -0.58370  -0.58221  -0.51070  -0.50091  -0.50076
 Alpha  occ. eigenvalues --   -0.49417  -0.48804  -0.48074  -0.34506  -0.34362
 Alpha  occ. eigenvalues --   -0.32978  -0.32592
 Alpha virt. eigenvalues --    0.06288   0.07153   0.07557   0.07771   0.08877
 Alpha virt. eigenvalues --    0.08984   0.09333   0.09927   0.10154   0.10396
 Alpha virt. eigenvalues --    0.11439   0.11651   0.12043   0.12466   0.12576
 Alpha virt. eigenvalues --    0.12960   0.14344   0.15233   0.15644   0.15711
 Alpha virt. eigenvalues --    0.16042   0.16482   0.18534   0.19681   0.19715
 Alpha virt. eigenvalues --    0.19726   0.20196   0.20522   0.21467   0.22193
 Alpha virt. eigenvalues --    0.22220   0.22242   0.23505   0.24730   0.24757
 Alpha virt. eigenvalues --    0.24811   0.25092   0.25246   0.26862   0.26895
 Alpha virt. eigenvalues --    0.27768   0.28408   0.28749   0.28987   0.29253
 Alpha virt. eigenvalues --    0.29526   0.30205   0.30846   0.31344   0.32036
 Alpha virt. eigenvalues --    0.32266   0.32744   0.32780   0.32970   0.34889
 Alpha virt. eigenvalues --    0.35970   0.36471   0.36532   0.36794   0.37118
 Alpha virt. eigenvalues --    0.37931   0.38279   0.38906   0.39784   0.40350
 Alpha virt. eigenvalues --    0.40918   0.47945   0.48079   0.48727   0.48798
 Alpha virt. eigenvalues --    0.49408   0.50519   0.52062   0.52736   0.57738
 Alpha virt. eigenvalues --    0.60009   0.60329   0.69452   0.69630   0.69931
 Alpha virt. eigenvalues --    0.71785   0.72290   0.73027   0.73582   0.74113
 Alpha virt. eigenvalues --    0.74731   0.74781   0.75724   0.76175   0.76541
 Alpha virt. eigenvalues --    0.76775   0.77441   0.77953   0.80216   0.82264
 Alpha virt. eigenvalues --    0.82551   0.83804   0.84396   0.84448   0.85124
 Alpha virt. eigenvalues --    0.86165   0.88639   0.90484   0.90940   0.92259
 Alpha virt. eigenvalues --    0.92355   0.92446   0.92753   0.93243   0.93258
 Alpha virt. eigenvalues --    0.94301   0.95037   0.95543   0.97731   0.98833
 Alpha virt. eigenvalues --    1.00245   1.00370   1.01028   1.01224   1.01284
 Alpha virt. eigenvalues --    1.02688   1.03309   1.04586   1.08706   1.09371
 Alpha virt. eigenvalues --    1.10809   1.10926   1.11215   1.11802   1.12639
 Alpha virt. eigenvalues --    1.17349   1.19621   1.19838   1.20816   1.22220
 Alpha virt. eigenvalues --    1.22449   1.23831   1.24992   1.26326   1.32084
 Alpha virt. eigenvalues --    1.33280   1.34722   1.36965   1.38678   1.38825
 Alpha virt. eigenvalues --    1.40049   1.40118   1.40942   1.49889   1.52127
 Alpha virt. eigenvalues --    1.58253   1.64275   1.70769   1.76255   1.76684
 Alpha virt. eigenvalues --    1.77731   1.77866   1.78989   1.80283   1.81774
 Alpha virt. eigenvalues --    1.82311   1.83933   1.83989   1.84583   1.85612
 Alpha virt. eigenvalues --    1.85714   1.91015   1.91354   1.92551   1.92600
 Alpha virt. eigenvalues --    1.92664   1.93131   1.95939   1.96569   2.01158
 Alpha virt. eigenvalues --    2.02978   2.05418   2.06331   2.06660   2.08167
 Alpha virt. eigenvalues --    2.09550   2.09870   2.10055   2.12389   2.12972
 Alpha virt. eigenvalues --    2.14441   2.23377   2.23519   2.23560   2.24663
 Alpha virt. eigenvalues --    2.24702   2.24745   2.25009   2.25517   2.26870
 Alpha virt. eigenvalues --    2.29002   2.29349   2.30171   2.33867   2.34336
 Alpha virt. eigenvalues --    2.37057   2.37580   2.38084   2.38108   2.38809
 Alpha virt. eigenvalues --    2.41203   2.63729   2.65547   2.65808   2.67149
 Alpha virt. eigenvalues --    2.72429   2.72819   2.73769   2.74221   2.75144
 Alpha virt. eigenvalues --    2.77035   2.77893   2.80504   2.80847   2.85386
 Alpha virt. eigenvalues --    2.94992   2.95382   2.96439   2.97288   2.97714
 Alpha virt. eigenvalues --    2.98872   2.99728   3.02619   3.03452   3.04638
 Alpha virt. eigenvalues --    3.05041   3.05137   3.05589   3.06564   3.06975
 Alpha virt. eigenvalues --    3.07372   3.08156   3.09329   3.09716   3.18266
 Alpha virt. eigenvalues --    3.19959   3.20323   3.23586   3.24773   3.26301
 Alpha virt. eigenvalues --    3.28406   3.29172   3.29949   3.30752   3.31050
 Alpha virt. eigenvalues --    3.31267   3.31821   3.33053   3.35133   3.47804
 Alpha virt. eigenvalues --    3.49962   3.54517   3.60560   3.77630   3.77852
 Alpha virt. eigenvalues --    3.78808   3.80487   3.91915   3.92031   3.92329
 Alpha virt. eigenvalues --    3.94813   3.95987   4.00065   4.07706   4.09448
 Alpha virt. eigenvalues --    4.39200   4.39360   4.40692   4.41923   4.49187
 Alpha virt. eigenvalues --    4.50699   4.56708   4.57094   4.58413   4.61161
 Alpha virt. eigenvalues --    5.27338   5.29382  24.75312  24.79051  25.12419
 Alpha virt. eigenvalues --   25.13332  25.13748  25.14669  25.25363  25.25409
 Alpha virt. eigenvalues --   25.26821  25.26946  25.36411  25.37966
          Condensed to atoms (all electrons):
               1          2          3          4          5          6
     1  C    7.024790  -0.460227  -0.109047  -0.382793  -0.109047  -0.460227
     2  C   -0.460227   9.930873  -0.535807   0.072625  -0.398868  -2.711891
     3  C   -0.109047  -0.535807   6.141370   0.471889   0.260473  -0.398868
     4  C   -0.382793   0.072625   0.471889   5.044847   0.471889   0.072625
     5  C   -0.109047  -0.398868   0.260473   0.471889   6.141370  -0.535807
     6  C   -0.460227  -2.711891  -0.398868   0.072625  -0.535807   9.930873
     7  H    0.392631  -0.049409   0.011612   0.005181   0.011612  -0.049409
     8  H    0.050024   0.369436  -0.035089  -0.010568  -0.002509  -0.005070
     9  H   -0.010211  -0.017130   0.394093   0.016422  -0.006112  -0.009356
    10  H    0.018951  -0.032710   0.011852   0.392896   0.011852  -0.032710
    11  H   -0.010211  -0.009356  -0.006112   0.016422   0.394093  -0.017130
    12  H    0.050024  -0.005070  -0.002509  -0.010568  -0.035089   0.369436
    13  C   -0.167255   0.020113   0.033024   0.002956   0.033024   0.020113
    14  C   -0.059982  -0.241161  -0.010718   0.001817   0.006731   0.303470
    15  C   -0.059982  -0.241161  -0.010718   0.001817   0.006731   0.303470
    16  C   -0.167255   0.020113   0.033024   0.002956   0.033024   0.020113
    17  C   -0.059982   0.303470   0.006731   0.001817  -0.010718  -0.241161
    18  C   -0.059982   0.303470   0.006731   0.001817  -0.010718  -0.241161
    19  H   -0.005161   0.000924   0.000280  -0.000009   0.000280   0.000924
    20  H   -0.001228   0.001224  -0.000090   0.000048  -0.000434  -0.001714
    21  H   -0.001228   0.001224  -0.000090   0.000048  -0.000434  -0.001714
    22  H   -0.005161   0.000924   0.000280  -0.000009   0.000280   0.000924
    23  H   -0.001228  -0.001714  -0.000434   0.000048  -0.000090   0.001224
    24  H   -0.001228  -0.001714  -0.000434   0.000048  -0.000090   0.001224
               7          8          9         10         11         12
     1  C    0.392631   0.050024  -0.010211   0.018951  -0.010211   0.050024
     2  C   -0.049409   0.369436  -0.017130  -0.032710  -0.009356  -0.005070
     3  C    0.011612  -0.035089   0.394093   0.011852  -0.006112  -0.002509
     4  C    0.005181  -0.010568   0.016422   0.392896   0.016422  -0.010568
     5  C    0.011612  -0.002509  -0.006112   0.011852   0.394093  -0.035089
     6  C   -0.049409  -0.005070  -0.009356  -0.032710  -0.017130   0.369436
     7  H    0.500881  -0.006257  -0.000100   0.000041  -0.000100  -0.006257
     8  H   -0.006257   0.511918  -0.004609  -0.000125   0.000036  -0.000071
     9  H   -0.000100  -0.004609   0.509114  -0.005068  -0.000119   0.000036
    10  H    0.000041  -0.000125  -0.005068   0.508361  -0.005068  -0.000125
    11  H   -0.000100   0.000036  -0.000119  -0.005068   0.509114  -0.004609
    12  H   -0.006257  -0.000071   0.000036  -0.000125  -0.004609   0.511918
    13  C    0.008194  -0.002314   0.000048  -0.000019   0.000048  -0.002314
    14  C    0.001416   0.000904   0.000000   0.000008   0.000053   0.002057
    15  C    0.001416   0.000904   0.000000   0.000008   0.000053   0.002057
    16  C    0.008194  -0.002314   0.000048  -0.000019   0.000048  -0.002314
    17  C    0.001416   0.002057   0.000053   0.000008   0.000000   0.000904
    18  C    0.001416   0.002057   0.000053   0.000008   0.000000   0.000904
    19  H    0.000455   0.000002   0.000000   0.000000   0.000000   0.000002
    20  H    0.000194  -0.000002   0.000000   0.000000   0.000000  -0.000070
    21  H    0.000194  -0.000002   0.000000   0.000000   0.000000  -0.000070
    22  H    0.000455   0.000002   0.000000   0.000000   0.000000   0.000002
    23  H    0.000194  -0.000070   0.000000   0.000000   0.000000  -0.000002
    24  H    0.000194  -0.000070   0.000000   0.000000   0.000000  -0.000002
              13         14         15         16         17         18
     1  C   -0.167255  -0.059982  -0.059982  -0.167255  -0.059982  -0.059982
     2  C    0.020113  -0.241161  -0.241161   0.020113   0.303470   0.303470
     3  C    0.033024  -0.010718  -0.010718   0.033024   0.006731   0.006731
     4  C    0.002956   0.001817   0.001817   0.002956   0.001817   0.001817
     5  C    0.033024   0.006731   0.006731   0.033024  -0.010718  -0.010718
     6  C    0.020113   0.303470   0.303470   0.020113  -0.241161  -0.241161
     7  H    0.008194   0.001416   0.001416   0.008194   0.001416   0.001416
     8  H   -0.002314   0.000904   0.000904  -0.002314   0.002057   0.002057
     9  H    0.000048   0.000000   0.000000   0.000048   0.000053   0.000053
    10  H   -0.000019   0.000008   0.000008  -0.000019   0.000008   0.000008
    11  H    0.000048   0.000053   0.000053   0.000048   0.000000   0.000000
    12  H   -0.002314   0.002057   0.002057  -0.002314   0.000904   0.000904
    13  C    5.082155   0.404127  -0.054750   0.048309  -0.054750   0.404127
    14  C    0.404127   4.965426   0.531532  -0.054750  -0.085533   0.003331
    15  C   -0.054750   0.531532   4.965426   0.404127   0.003331  -0.085533
    16  C    0.048309  -0.054750   0.404127   5.082155   0.404127  -0.054750
    17  C   -0.054750  -0.085533   0.003331   0.404127   4.965426   0.531532
    18  C    0.404127   0.003331  -0.085533  -0.054750   0.531532   4.965426
    19  H    0.422043  -0.014271  -0.009805   0.006886  -0.009805  -0.014271
    20  H   -0.010962   0.418028  -0.012767  -0.006672   0.002586  -0.007907
    21  H   -0.006672  -0.012767   0.418028  -0.010962  -0.007907   0.002586
    22  H    0.006886  -0.009805  -0.014271   0.422043  -0.014271  -0.009805
    23  H   -0.006672   0.002586  -0.007907  -0.010962   0.418028  -0.012767
    24  H   -0.010962  -0.007907   0.002586  -0.006672  -0.012767   0.418028
              19         20         21         22         23         24
     1  C   -0.005161  -0.001228  -0.001228  -0.005161  -0.001228  -0.001228
     2  C    0.000924   0.001224   0.001224   0.000924  -0.001714  -0.001714
     3  C    0.000280  -0.000090  -0.000090   0.000280  -0.000434  -0.000434
     4  C   -0.000009   0.000048   0.000048  -0.000009   0.000048   0.000048
     5  C    0.000280  -0.000434  -0.000434   0.000280  -0.000090  -0.000090
     6  C    0.000924  -0.001714  -0.001714   0.000924   0.001224   0.001224
     7  H    0.000455   0.000194   0.000194   0.000455   0.000194   0.000194
     8  H    0.000002  -0.000002  -0.000002   0.000002  -0.000070  -0.000070
     9  H    0.000000   0.000000   0.000000   0.000000   0.000000   0.000000
    10  H    0.000000   0.000000   0.000000   0.000000   0.000000   0.000000
    11  H    0.000000   0.000000   0.000000   0.000000   0.000000   0.000000
    12  H    0.000002  -0.000070  -0.000070   0.000002  -0.000002  -0.000002
    13  C    0.422043  -0.010962  -0.006672   0.006886  -0.006672  -0.010962
    14  C   -0.014271   0.418028  -0.012767  -0.009805   0.002586  -0.007907
    15  C   -0.009805  -0.012767   0.418028  -0.014271  -0.007907   0.002586
    16  C    0.006886  -0.006672  -0.010962   0.422043  -0.010962  -0.006672
    17  C   -0.009805   0.002586  -0.007907  -0.014271   0.418028  -0.012767
    18  C   -0.014271  -0.007907   0.002586  -0.009805  -0.012767   0.418028
    19  H    0.493465  -0.005232  -0.000122   0.000013  -0.000122  -0.005232
    20  H   -0.005232   0.493508  -0.005648  -0.000122   0.000018  -0.000122
    21  H   -0.000122  -0.005648   0.493508  -0.005232  -0.000122   0.000018
    22  H    0.000013  -0.000122  -0.005232   0.493465  -0.005232  -0.000122
    23  H   -0.000122   0.000018  -0.000122  -0.005232   0.493508  -0.005648
    24  H   -0.005232  -0.000122   0.000018  -0.000122  -0.005648   0.493508
 Mulliken charges:
               1
     1  C    0.595017
     2  C   -0.318175
     3  C   -0.261443
     4  C   -0.174219
     5  C   -0.261443
     6  C   -0.318175
     7  H    0.165833
     8  H    0.131729
     9  H    0.132840
    10  H    0.131858
    11  H    0.132840
    12  H    0.131729
    13  C   -0.168497
    14  C   -0.144592
    15  C   -0.144592
    16  C   -0.168497
    17  C   -0.144592
    18  C   -0.144592
    19  H    0.138758
    20  H    0.137363
    21  H    0.137363
    22  H    0.138758
    23  H    0.137363
    24  H    0.137363
 Sum of Mulliken charges =   0.00000
 Mulliken charges with hydrogens summed into heavy atoms:
               1
     1  C    0.760851
     2  C   -0.186446
     3  C   -0.128603
     4  C   -0.042360
     5  C   -0.128603
     6  C   -0.186446
    13  C   -0.029739
    14  C   -0.007229
    15  C   -0.007229
    16  C   -0.029739
    17  C   -0.007229
    18  C   -0.007229
 Electronic spatial extent (au):  <R**2>=           2726.1498
 Charge=              0.0000 electrons
 Dipole moment (field-independent basis, Debye):
    X=              0.0000    Y=              0.0000    Z=             -0.5150  Tot=              0.5150
 Quadrupole moment (field-independent basis, Debye-Ang):
   XX=            -72.9150   YY=            -64.2146   ZZ=            -74.2315
   XY=              0.0000   XZ=              0.0000   YZ=              0.0000
 Traceless Quadrupole moment (field-independent basis, Debye-Ang):
   XX=             -2.4613   YY=              6.2391   ZZ=             -3.7778
   XY=              0.0000   XZ=              0.0000   YZ=              0.0000
 Octapole moment (field-independent basis, Debye-Ang**2):
  XXX=              0.0000  YYY=              0.0000  ZZZ=             60.4787  XYY=              0.0000
  XXY=              0.0000  XXZ=            -24.1219  XZZ=              0.0000  YZZ=              0.0000
  YYZ=             -1.4950  XYZ=              0.0000
 Hexadecapole moment (field-independent basis, Debye-Ang**3):
 XXXX=           -320.2973 YYYY=           -543.9050 ZZZZ=          -2986.6768 XXXY=              0.0000
 XXXZ=              0.0000 YYYX=              0.0000 YYYZ=              0.0000 ZZZX=              0.0000
 ZZZY=              0.0000 XXYY=           -156.0515 XXZZ=           -572.7581 YYZZ=           -543.7138
 XXYZ=              0.0000 YYXZ=              0.0000 ZZXY=              0.0000
 N-N= 5.924166392068D+02 E-N=-2.258675713446D+03  KE= 4.610224293572D+02
 Symmetry A1   KE= 2.227863551124D+02
 Symmetry A2   KE= 3.972639003025D+01
 Symmetry B1   KE= 7.791906537162D+01
 Symmetry B2   KE= 1.205906188429D+02
 Calling FoFJK, ICntrl=      2127 FMM=F ISym2X=1 I1Cent= 0 IOpClX= 0 NMat=1 NMatS=1 NMatT=0.
 ***** Axes restored to original set *****
 -------------------------------------------------------------------
 Center     Atomic                   Forces (Hartrees/Bohr)
 Number     Number              X              Y              Z
 -------------------------------------------------------------------
      1        6           0.000000000    0.000000000    0.003117568
      2        6           0.000000000    0.002964660    0.002041029
      3        6           0.000000000    0.003355860   -0.001857073
      4        6           0.000000000    0.000000000   -0.003225473
      5        6           0.000000000   -0.003355860   -0.001857073
      6        6           0.000000000   -0.002964660    0.002041029
      7        1           0.000000000    0.000000000    0.009048111
      8        1           0.000000000    0.003947010    0.002518486
      9        1           0.000000000    0.003784449   -0.002196979
     10        1           0.000000000    0.000000000   -0.004359900
     11        1           0.000000000   -0.003784449   -0.002196979
     12        1           0.000000000   -0.003947010    0.002518486
     13        6           0.003515627    0.000000000   -0.000916012
     14        6           0.001758528   -0.003181469   -0.000950377
     15        6          -0.001758528   -0.003181469   -0.000950377
     16        6          -0.003515627    0.000000000   -0.000916012
     17        6          -0.001758528    0.003181469   -0.000950377
     18        6           0.001758528    0.003181469   -0.000950377
     19        1           0.004487839    0.000000000    0.000021992
     20        1           0.002229570   -0.003860976   -0.000000421
     21        1          -0.002229570   -0.003860976   -0.000000421
     22        1          -0.004487839    0.000000000    0.000021992
     23        1          -0.002229570    0.003860976   -0.000000421
     24        1           0.002229570    0.003860976   -0.000000421
 -------------------------------------------------------------------
 Cartesian Forces:  Max     0.009048111 RMS     0.002530738

 GradGradGradGradGradGradGradGradGradGradGradGradGradGradGradGradGradGrad
 Berny optimization.
 FormGI is forming the generalized inverse of G from B-inverse, IUseBI=4.
 Internal  Forces:  Max     0.008168424 RMS     0.002376706
 Search for a local minimum.
 Step number   1 out of a maximum of  144
 All quantities printed in internal units (Hartrees-Bohrs-Radians)
 Mixed Optimization -- RFO/linear search
 Second derivative matrix not updated -- first step.
 ITU=  0
     Eigenvalues ---    0.00359   0.01215   0.01277   0.01857   0.02153
     Eigenvalues ---    0.02167   0.02169   0.02169   0.02169   0.02169
     Eigenvalues ---    0.02170   0.02170   0.02170   0.02171   0.02207
     Eigenvalues ---    0.02410   0.02555   0.02863   0.03297   0.03787
     Eigenvalues ---    0.03992   0.04325   0.04572   0.04900   0.05180
     Eigenvalues ---    0.05536   0.05754   0.06155   0.06200   0.13891
     Eigenvalues ---    0.16000   0.16000   0.16000   0.16000   0.16000
     Eigenvalues ---    0.16000   0.16000   0.16908   0.19800   0.22000
     Eigenvalues ---    0.22000   0.22000   0.32946   0.35765   0.35765
     Eigenvalues ---    0.35779   0.35797   0.35797   0.35805   0.35817
     Eigenvalues ---    0.35817   0.35817   0.35817   0.35833   0.35833
     Eigenvalues ---    0.35920   0.37299   0.38759   0.41597   0.42260
     Eigenvalues ---    0.42279   0.42488   0.46641   0.46644   0.46656
     Eigenvalues ---    0.46667
 RFO step:  Lambda=-2.41574817D-03 EMin= 3.58975618D-03
 Linear search not attempted -- first point.
 Iteration  1 RMS(Cart)=  0.01015083 RMS(Int)=  0.00003189
 Iteration  2 RMS(Cart)=  0.00004175 RMS(Int)=  0.00001821
 Iteration  3 RMS(Cart)=  0.00000000 RMS(Int)=  0.00001821
 ClnCor:  largest displacement from symmetrization is 2.61D-02 for atom    24.
 Variable       Old X    -DE/DX   Delta X   Delta X   Delta X     New X
                                 (Linear)    (Quad)   (Total)
    R1        2.63381  -0.00754   0.00000  -0.01600  -0.01438   2.61943
    R2        2.63381  -0.00754   0.00000  -0.01600  -0.01438   2.61943
    R3        2.04207  -0.00346   0.00000  -0.00956  -0.00956   2.03251
    R4        2.63412  -0.00785   0.00000  -0.01674  -0.01674   2.61739
    R5        2.04451  -0.00468   0.00000  -0.01299  -0.01299   2.03152
    R6        2.63416  -0.00817   0.00000  -0.01749  -0.02028   2.61388
    R7        2.04400  -0.00438   0.00000  -0.01214  -0.01214   2.03186
    R8        2.63416  -0.00817   0.00000  -0.01749  -0.02028   2.61388
    R9        2.04388  -0.00436   0.00000  -0.01210  -0.01210   2.03178
   R10        2.63412  -0.00785   0.00000  -0.01674  -0.01674   2.61739
   R11        2.04400  -0.00438   0.00000  -0.01214  -0.01214   2.03186
   R12        2.04451  -0.00468   0.00000  -0.01299  -0.01299   2.03152
   R13        5.29825   0.00052   0.00000   0.03104   0.03213   5.33038
   R14        5.29900   0.00010   0.00000   0.02458   0.02350   5.32250
   R15        5.29900  -0.00001   0.00000   0.02204   0.02350   5.32250
   R16        5.29825   0.00012   0.00000   0.02410   0.03213   5.33038
   R17        5.29900   0.00049   0.00000   0.03117   0.02350   5.32250
   R18        2.63429  -0.00689   0.00000  -0.01597  -0.01577   2.61852
   R19        2.63429  -0.00692   0.00000  -0.01535  -0.01577   2.61852
   R20        2.04344  -0.00449   0.00000  -0.01244  -0.01244   2.03100
   R21        2.63446  -0.00675   0.00000  -0.01466  -0.01091   2.62354
   R22        2.04369  -0.00446   0.00000  -0.01236  -0.01236   2.03133
   R23        2.63429  -0.00681   0.00000  -0.01487  -0.01577   2.61852
   R24        2.04369  -0.00446   0.00000  -0.01236  -0.01236   2.03133
   R25        2.63429  -0.00688   0.00000  -0.01596  -0.01577   2.61852
   R26        2.04344  -0.00449   0.00000  -0.01244  -0.01244   2.03100
   R27        2.63446  -0.00683   0.00000  -0.01513  -0.01091   2.62354
   R28        2.04369  -0.00446   0.00000  -0.01236  -0.01236   2.03133
   R29        2.04369  -0.00446   0.00000  -0.01236  -0.01236   2.03133
    A1        2.09147  -0.00081   0.00000  -0.00336  -0.00459   2.08689
    A2        2.09586   0.00041   0.00000   0.00168   0.00229   2.09815
    A3        2.09586   0.00041   0.00000   0.00168   0.00229   2.09815
    A4        2.09669   0.00032   0.00000   0.00158   0.00122   2.09791
    A5        2.09048   0.00004   0.00000   0.00044   0.00081   2.09129
    A6        2.09601  -0.00036   0.00000  -0.00203  -0.00203   2.09398
    A7        2.09357   0.00026   0.00000   0.00101   0.00163   2.09519
    A8        2.09586  -0.00014   0.00000  -0.00055  -0.00055   2.09530
    A9        2.09376  -0.00012   0.00000  -0.00046  -0.00107   2.09269
   A10        2.09437  -0.00034   0.00000  -0.00182  -0.00110   2.09327
   A11        2.09441   0.00017   0.00000   0.00091   0.00055   2.09496
   A12        2.09441   0.00017   0.00000   0.00091   0.00055   2.09496
   A13        2.09357   0.00026   0.00000   0.00101   0.00163   2.09519
   A14        2.09376  -0.00012   0.00000  -0.00046  -0.00107   2.09269
   A15        2.09586  -0.00014   0.00000  -0.00055  -0.00055   2.09530
   A16        2.09669   0.00032   0.00000   0.00158   0.00122   2.09791
   A17        2.09048   0.00004   0.00000   0.00044   0.00081   2.09129
   A18        2.09601  -0.00036   0.00000  -0.00203  -0.00203   2.09398
   A19        2.62120   0.00153   0.00000   0.00718   0.00615   2.62735
   A20        2.62130   0.00150   0.00000   0.00489   0.00577   2.62706
   A21        2.62130   0.00148   0.00000   0.00422   0.00577   2.62706
   A22        2.62120   0.00149   0.00000   0.00475   0.00615   2.62735
   A23        2.62130   0.00156   0.00000   0.00732   0.00577   2.62706
   A24        0.89025  -0.00251   0.00000  -0.01038  -0.00968   0.88057
   A25        1.04078  -0.00302   0.00000  -0.01193  -0.01230   1.02849
   A26        0.89025  -0.00257   0.00000  -0.01026  -0.00968   0.88057
   A27        0.89025  -0.00248   0.00000  -0.00936  -0.00968   0.88057
   A28        1.04059  -0.00305   0.00000  -0.01221  -0.01153   1.02906
   A29        0.89015  -0.00254   0.00000  -0.01054  -0.01009   0.88005
   A30        1.31985   0.00086   0.00000   0.00492  -0.00032   1.31953
   A31        2.08765  -0.00103   0.00000  -0.00165  -0.00126   2.08639
   A32        2.09437  -0.00003   0.00000  -0.00205  -0.00075   2.09362
   A33        2.09440   0.00001   0.00000   0.00092   0.00037   2.09478
   A34        2.09440   0.00002   0.00000   0.00115   0.00037   2.09478
   A35        2.09021  -0.00118   0.00000  -0.00234  -0.00269   2.08752
   A36        2.09441   0.00002   0.00000  -0.00020   0.00037   2.09477
   A37        2.09391   0.00006   0.00000   0.00012   0.00016   2.09406
   A38        2.09487  -0.00007   0.00000   0.00008  -0.00054   2.09433
   A39        2.09021  -0.00121   0.00000  -0.00270  -0.00269   2.08752
   A40        2.09441   0.00000   0.00000   0.00136   0.00037   2.09477
   A41        2.09487   0.00002   0.00000  -0.00066  -0.00054   2.09433
   A42        2.09391  -0.00001   0.00000  -0.00069   0.00016   2.09406
   A43        2.08765  -0.00118   0.00000  -0.00258  -0.00126   2.08639
   A44        2.09437  -0.00005   0.00000  -0.00059  -0.00075   2.09362
   A45        2.09440  -0.00006   0.00000   0.00026   0.00037   2.09478
   A46        2.09440   0.00011   0.00000   0.00034   0.00037   2.09478
   A47        1.31958   0.00086   0.00000   0.00485   0.00219   1.32177
   A48        2.09021  -0.00104   0.00000  -0.00145  -0.00269   2.08752
   A49        2.09441   0.00002   0.00000  -0.00167   0.00037   2.09477
   A50        2.09391  -0.00003   0.00000   0.00071   0.00016   2.09406
   A51        2.09487   0.00001   0.00000   0.00097  -0.00054   2.09433
   A52        2.09441   0.00005   0.00000   0.00314   0.00037   2.09477
   A53        2.09391  -0.00003   0.00000  -0.00158   0.00016   2.09406
   A54        2.09487  -0.00002   0.00000  -0.00156  -0.00054   2.09433
    D1        0.00000   0.00000   0.00000   0.00000   0.00000   0.00000
    D2        3.14159   0.00000   0.00000   0.00000   0.00000   3.14159
    D3        3.14159   0.00000   0.00000   0.00000   0.00000   3.14159
    D4        0.00000   0.00000   0.00000   0.00000   0.00000   0.00000
    D5        0.00000   0.00000   0.00000   0.00000   0.00000   0.00000
    D6        3.14159   0.00000   0.00000   0.00000   0.00000   3.14159
    D7        3.14159   0.00000   0.00000   0.00000   0.00000   3.14159
    D8        0.00000   0.00000   0.00000   0.00000   0.00000   0.00000
    D9        1.57080   0.00001   0.00000   0.00330   0.00000   1.57080
   D10        2.61796  -0.00002   0.00000   0.00240  -0.00090   2.61707
   D11       -2.61796   0.00001   0.00000   0.00006   0.00090  -2.61707
   D12       -1.57080   0.00001   0.00000  -0.00245   0.00000  -1.57080
   D13       -0.52363  -0.00001   0.00000  -0.00331  -0.00090  -0.52453
   D14       -1.57080   0.00001   0.00000   0.00330   0.00000  -1.57080
   D15       -0.52363  -0.00002   0.00000   0.00240  -0.00090  -0.52453
   D16        0.52363   0.00001   0.00000   0.00006   0.00090   0.52453
   D17        1.57080   0.00001   0.00000  -0.00245   0.00000   1.57080
   D18        2.61796  -0.00001   0.00000  -0.00331  -0.00090   2.61707
   D19        0.00000   0.00000   0.00000   0.00000   0.00000   0.00000
   D20        3.14159   0.00000   0.00000   0.00000   0.00000   3.14159
   D21        3.14159   0.00000   0.00000   0.00000   0.00000   3.14159
   D22        0.00000   0.00000   0.00000   0.00000   0.00000   0.00000
   D23        0.00000   0.00000   0.00000   0.00000   0.00000   0.00000
   D24        3.14159   0.00000   0.00000   0.00000   0.00000   3.14159
   D25        3.14159   0.00000   0.00000   0.00000   0.00000   3.14159
   D26        0.00000   0.00000   0.00000   0.00000   0.00000   0.00000
   D27        0.00000   0.00000   0.00000   0.00000   0.00000   0.00000
   D28        3.14159   0.00000   0.00000   0.00000   0.00000   3.14159
   D29        3.14159   0.00000   0.00000   0.00000   0.00000   3.14159
   D30        0.00000   0.00000   0.00000   0.00000   0.00000   0.00000
   D31        0.00000   0.00000   0.00000   0.00000   0.00000   0.00000
   D32        3.14159   0.00000   0.00000   0.00000   0.00000   3.14159
   D33        3.14159   0.00000   0.00000   0.00000   0.00000   3.14159
   D34        0.00000   0.00000   0.00000   0.00000   0.00000   0.00000
   D35       -2.03535  -0.00049   0.00000  -0.00818  -0.00027  -2.03562
   D36        0.00000  -0.00002   0.00000  -0.00436   0.00000   0.00000
   D37        1.69331  -0.00085   0.00000  -0.00625  -0.00209   1.69122
   D38       -2.55453  -0.00039   0.00000  -0.00243  -0.00182  -2.55634
   D39        1.10624  -0.00048   0.00000  -0.00487  -0.00027   1.10597
   D40        3.14159  -0.00002   0.00000  -0.00105   0.00000   3.14159
   D41        0.51918  -0.00005   0.00000  -0.00267   0.00155   0.52072
   D42        2.55453   0.00041   0.00000   0.00115   0.00182   2.55634
   D43       -0.00052   0.00010   0.00000  -0.00213   0.00165   0.00114
   D44       -2.55493  -0.00031   0.00000  -0.00074  -0.00061  -2.55554
   D45        3.14108   0.00009   0.00000   0.00116   0.00165  -3.14046
   D46        0.00052  -0.00001   0.00000  -0.00011  -0.00165  -0.00114
   D47        2.55493   0.00042   0.00000   0.00140   0.00061   2.55554
   D48       -2.55392  -0.00044   0.00000  -0.00164  -0.00221  -2.55613
   D49        0.00000  -0.00009   0.00000   0.00229   0.00000   0.00000
   D50        3.14159  -0.00009   0.00000  -0.00103   0.00000   3.14159
   D51        2.55453   0.00033   0.00000   0.00106   0.00182   2.55634
   D52        2.03523   0.00048   0.00000   0.00806   0.00215   2.03738
   D53       -0.00052   0.00002   0.00000   0.00446   0.00165   0.00114
   D54       -0.51918   0.00007   0.00000   0.00271  -0.00012  -0.51930
   D55       -2.55493  -0.00038   0.00000  -0.00089  -0.00061  -2.55554
   D56       -1.10636   0.00048   0.00000   0.00477   0.00215  -1.10421
   D57        3.14108   0.00003   0.00000   0.00117   0.00165  -3.14046
   D58       -1.69352   0.00082   0.00000   0.00598   0.00270  -1.69081
   D59        2.55392   0.00037   0.00000   0.00239   0.00221   2.55613
   D60       -0.00079  -0.00010   0.00000  -0.00165   0.00750   0.00671
   D61       -3.14097  -0.00061   0.00000  -0.00795   0.00019  -3.14078
   D62        3.13750   0.00052   0.00000   0.00465   0.00564  -3.14004
   D63       -0.00268   0.00001   0.00000  -0.00165  -0.00166  -0.00434
   D64       -1.10995  -0.00110   0.00000  -0.00095  -0.00727  -1.11722
   D65        2.03023  -0.00070   0.00000  -0.00159   0.00004   2.03026
   D66        0.00079   0.00027   0.00000   0.00471  -0.00750  -0.00671
   D67        3.14097   0.00067   0.00000   0.00407  -0.00019   3.14078
   D68       -3.13750  -0.00035   0.00000  -0.00159  -0.00564   3.14004
   D69        0.00268   0.00005   0.00000  -0.00223   0.00166   0.00434
   D70        0.00000  -0.00008   0.00000  -0.00197   0.00000   0.00000
   D71       -3.14018  -0.00051   0.00000  -0.00686  -0.00730   3.13570
   D72        3.14018   0.00042   0.00000   0.00434   0.00730  -3.13570
   D73        0.00000   0.00000   0.00000  -0.00055   0.00000   0.00000
   D74        0.00079   0.00011   0.00000   0.00253  -0.00750  -0.00671
   D75       -3.13750  -0.00041   0.00000  -0.00424  -0.00564   3.14004
   D76        3.14097   0.00053   0.00000   0.00742  -0.00019   3.14078
   D77        0.00268   0.00001   0.00000   0.00065   0.00166   0.00434
   D78       -0.00079   0.00006   0.00000   0.00053   0.00750   0.00671
   D79       -3.14097  -0.00055   0.00000  -0.00539   0.00019  -3.14078
   D80        3.13750   0.00058   0.00000   0.00730   0.00564  -3.14004
   D81       -0.00268  -0.00003   0.00000   0.00139  -0.00166  -0.00434
   D82        1.10981   0.00111   0.00000   0.00093   0.00927   1.11909
   D83       -2.03037   0.00071   0.00000   0.00157   0.00197  -2.02840
   D84        0.00000  -0.00025   0.00000  -0.00415   0.00000   0.00000
   D85       -3.14018  -0.00065   0.00000  -0.00350  -0.00730   3.13570
   D86        3.14018   0.00036   0.00000   0.00177   0.00730  -3.13570
   D87        0.00000  -0.00004   0.00000   0.00242   0.00000   0.00000
         Item               Value     Threshold  Converged?
 Maximum Force            0.008168     0.000450     NO 
 RMS     Force            0.002377     0.000300     NO 
 Maximum Displacement     0.034238     0.001800     NO 
 RMS     Displacement     0.009740     0.001200     NO 
 Predicted change in Energy=-1.188304D-03
 GradGradGradGradGradGradGradGradGradGradGradGradGradGradGradGradGradGrad

                          Input orientation:                          
 ---------------------------------------------------------------------
 Center     Atomic      Atomic             Coordinates (Angstroms)
 Number     Number       Type             X           Y           Z
 ---------------------------------------------------------------------
      1          6           0        0.000000    0.000000    1.071882
      2          6           0        0.000000   -1.197827    1.769456
      3          6           0        0.000000   -1.197501    3.154517
      4          6           0        0.000000    0.000000    3.846797
      5          6           0        0.000000    1.197501    3.154517
      6          6           0        0.000000    1.197827    1.769456
      7          1           0        0.000000    0.000000   -0.003673
      8          1           0        0.000000   -2.129180    1.232540
      9          1           0        0.000000   -2.128047    3.693189
     10          1           0        0.000000    0.000000    4.921970
     11          1           0        0.000000    2.128047    3.693189
     12          1           0        0.000000    2.129180    1.232540
     13          6           0       -1.387443    0.000000   -2.459572
     14          6           0       -0.694160    1.199747   -2.455544
     15          6           0        0.694160    1.199747   -2.455544
     16          6           0        1.387443    0.000000   -2.459572
     17          6           0        0.694160   -1.199747   -2.455544
     18          6           0       -0.694160   -1.199747   -2.455544
     19          1           0       -2.462202    0.000000   -2.461018
     20          1           0       -1.231570    2.130696   -2.457906
     21          1           0        1.231570    2.130696   -2.457906
     22          1           0        2.462202    0.000000   -2.461018
     23          1           0        1.231570   -2.130696   -2.457906
     24          1           0       -1.231570   -2.130696   -2.457906
 ---------------------------------------------------------------------
                    Distance matrix (angstroms):
                    1          2          3          4          5
     1  C    0.000000
     2  C    1.386145   0.000000
     3  C    2.402369   1.385061   0.000000
     4  C    2.774914   2.397943   1.383206   0.000000
     5  C    2.402369   2.766946   2.395002   1.383206   0.000000
     6  C    1.386145   2.395653   2.766946   2.397943   1.385061
     7  H    1.075556   2.139808   3.377599   3.850470   3.377599
     8  H    2.135233   1.075034   2.135889   3.371609   3.841979
     9  H    3.376364   2.136834   1.075213   2.133584   3.368893
    10  H    3.850088   3.372408   2.134924   1.075174   2.134924
    11  H    3.376364   3.842159   3.368893   2.133584   1.075213
    12  H    2.135233   3.370052   3.841979   3.371609   2.135889
    13  C    3.794228   4.609172   5.905675   6.457188   5.905675
    14  C    3.789986   4.907224   6.140151   6.452965   5.652845
    15  C    3.789986   4.907224   6.140151   6.452965   5.652845
    16  C    3.794228   4.609172   5.905675   6.457188   5.905675
    17  C    3.789986   4.281646   5.652845   6.452965   6.140151
    18  C    3.789986   4.281646   5.652845   6.452965   6.140151
    19  H    4.306254   5.039259   6.247454   6.771333   6.247454
    20  H    4.303026   5.519639   6.640253   6.768006   5.821246
    21  H    4.303026   5.519639   6.640253   6.768006   5.821246
    22  H    4.306254   5.039259   6.247454   6.771333   6.247454
    23  H    4.303026   4.500844   5.821246   6.768006   6.640253
    24  H    4.303026   4.500844   5.821246   6.768006   6.640253
                    6          7          8          9         10
     6  C    0.000000
     7  H    2.139808   0.000000
     8  H    3.370052   2.462038   0.000000
     9  H    3.842159   4.265604   2.460650   0.000000
    10  H    3.372408   4.925643   4.259731   2.457334   0.000000
    11  H    2.136834   4.265604   4.917192   4.256095   2.457334
    12  H    1.075034   2.462038   4.258360   4.917192   4.259731
    13  C    4.609172   2.820715   4.482197   6.656579   7.510803
    14  C    4.281646   2.816545   5.016531   7.025881   7.506595
    15  C    4.281646   2.816545   5.016531   7.025881   7.506595
    16  C    4.609172   2.820715   4.482197   6.656579   7.510803
    17  C    4.907224   2.816545   3.866221   6.257038   7.506595
    18  C    4.907224   2.816545   3.866221   6.257038   7.506595
    19  H    5.039259   3.478646   4.923232   6.961701   7.782734
    20  H    4.500844   3.475613   5.769116   7.582192   7.779409
    21  H    4.500844   3.475613   5.769116   7.582192   7.779409
    22  H    5.039259   3.478646   4.923232   6.961701   7.782734
    23  H    5.519639   3.475613   3.890521   6.273176   7.779409
    24  H    5.519639   3.475613   3.890521   6.273176   7.779409
                   11         12         13         14         15
    11  H    0.000000
    12  H    2.460650   0.000000
    13  C    6.656579   4.482197   0.000000
    14  C    6.257038   3.866221   1.385659   0.000000
    15  C    6.257038   3.866221   2.402599   1.388320   0.000000
    16  C    6.656579   4.482197   2.774886   2.402599   1.385659
    17  C    7.025881   5.016531   2.402599   2.772185   2.399495
    18  C    7.025881   5.016531   1.385659   2.399495   2.772185
    19  H    6.961701   4.923232   1.074760   2.136679   3.376691
    20  H    6.273176   3.890521   2.136391   1.074933   2.138950
    21  H    6.273176   3.890521   3.376255   2.138950   1.074933
    22  H    6.961701   4.923232   3.849645   3.376691   2.136679
    23  H    7.582192   5.769116   3.376255   3.847115   3.373525
    24  H    7.582192   5.769116   2.136391   3.373525   3.847115
                   16         17         18         19         20
    16  C    0.000000
    17  C    1.385659   0.000000
    18  C    2.402599   1.388320   0.000000
    19  H    3.849645   3.376691   2.136679   0.000000
    20  H    3.376255   3.847115   3.373525   2.460555   0.000000
    21  H    2.136391   3.373525   3.847115   4.264250   2.463140
    22  H    1.074760   2.136679   3.376691   4.924403   4.264250
    23  H    2.136391   1.074933   2.138950   4.264250   4.922045
    24  H    3.376255   2.138950   1.074933   2.460555   4.261392
                   21         22         23         24
    21  H    0.000000
    22  H    2.460555   0.000000
    23  H    4.261392   2.460555   0.000000
    24  H    4.922045   4.264250   2.463140   0.000000
 Stoichiometry    C12H12
 Framework group  C2V[C2(HCCH),SGV(C4H4),SGV'(C2H2),X(C4H4)]
 Deg. of freedom    21
 Full point group                 C2V     NOp   4
 Largest Abelian subgroup         C2V     NOp   4
 Largest concise Abelian subgroup C2V     NOp   4
                         Standard orientation:                         
 ---------------------------------------------------------------------
 Center     Atomic      Atomic             Coordinates (Angstroms)
 Number     Number       Type             X           Y           Z
 ---------------------------------------------------------------------
      1          6           0        0.000000    0.000000    1.069883
      2          6           0        0.000000    1.197827    1.767457
      3          6           0        0.000000    1.197501    3.152518
      4          6           0        0.000000    0.000000    3.844797
      5          6           0        0.000000   -1.197501    3.152518
      6          6           0        0.000000   -1.197827    1.767457
      7          1           0        0.000000    0.000000   -0.005672
      8          1           0        0.000000    2.129180    1.230541
      9          1           0        0.000000    2.128047    3.691190
     10          1           0        0.000000    0.000000    4.919971
     11          1           0        0.000000   -2.128047    3.691190
     12          1           0        0.000000   -2.129180    1.230541
     13          6           0        1.387443    0.000000   -2.461571
     14          6           0        0.694160   -1.199747   -2.457543
     15          6           0       -0.694160   -1.199747   -2.457543
     16          6           0       -1.387443    0.000000   -2.461571
     17          6           0       -0.694160    1.199747   -2.457543
     18          6           0        0.694160    1.199747   -2.457543
     19          1           0        2.462202    0.000000   -2.463017
     20          1           0        1.231570   -2.130696   -2.459905
     21          1           0       -1.231570   -2.130696   -2.459905
     22          1           0       -2.462202    0.000000   -2.463017
     23          1           0       -1.231570    2.130696   -2.459905
     24          1           0        1.231570    2.130696   -2.459905
 ---------------------------------------------------------------------
 Rotational constants (GHZ):      1.9276558      0.4515793      0.4190599
 Standard basis: 6-311+G(d,p) (5D, 7F)
 There are   127 symmetry adapted cartesian basis functions of A1  symmetry.
 There are    52 symmetry adapted cartesian basis functions of A2  symmetry.
 There are    77 symmetry adapted cartesian basis functions of B1  symmetry.
 There are    92 symmetry adapted cartesian basis functions of B2  symmetry.
 There are   121 symmetry adapted basis functions of A1  symmetry.
 There are    51 symmetry adapted basis functions of A2  symmetry.
 There are    75 symmetry adapted basis functions of B1  symmetry.
 There are    89 symmetry adapted basis functions of B2  symmetry.
   336 basis functions,   528 primitive gaussians,   348 cartesian basis functions
    42 alpha electrons       42 beta electrons
       nuclear repulsion energy       594.5768357996 Hartrees.
 NAtoms=   24 NActive=   24 NUniq=   12 SFac= 4.00D+00 NAtFMM=   60 NAOKFM=F Big=F
 Integral buffers will be    131072 words long.
 Raffenetti 1 integral format.
 Two-electron integral symmetry is turned on.
 One-electron integrals computed using PRISM.
 NBasis=   336 RedAO= T EigKep=  1.95D-06  NBF=   121    51    75    89
 NBsUse=   336 1.00D-06 EigRej= -1.00D+00 NBFU=   121    51    75    89
 Initial guess from the checkpoint file:  "benzene-rhf.chk"
 B after Tr=     0.000000    0.000000    0.000000
         Rot=    1.000000    0.000000    0.000000    0.000000 Ang=   0.00 deg.
 Initial guess orbital symmetries:
       Occupied  (A1) (B2) (B1) (A2) (A1) (B1) (A1) (B2) (A1) (A1)
[...]
 -0.00001140,0.00000567,-0.00001029,-0.00002767,0.00004045,0.00002442,0
 .00003124,-0.03300558,0.06207515,-0.00003509,-0.05248143,-0.16335354,0
 .00005363,0.04657625,0.80359799,0.00015495,0.00017743,0.00013478,-0.00
 000936,-0.00008689,-0.00008097,0.00000531,0.00002216,-0.00003918,-0.00
 001155,0.00003402,-0.00002548,0.00005369,0.00003816,0.00004083,-0.0000
 6457,-0.00007459,-0.00000043,-0.00008952,-0.00013225,-0.00015108,-0.00
 001078,0.00001898,-0.00000350,-0.00000316,0.00001058,-0.00002038,-0.00
 000167,0.00000744,-0.00001518,-0.00000284,-0.00000942,-0.00000570,-0.0
 0003329,0.00006556,0.00004931,0.00007029,0.00003354,0.00784451,-0.0000
 8501,0.00005363,-0.07618803,-0.00003571,-0.00042561,0.16387627,0.00009
 816,0.,0.00026447,0.00002189,0.00002310,-0.00008727,-0.00001247,-0.000
 00073,-0.00001305,-0.00000205,0.,-0.00005915,-0.00001247,0.00000073,-0
 .00001305,0.00002189,-0.00002309,-0.00008727,-0.00016357,0.,0.00006290
 ,-0.00001049,-0.00002518,0.00004443,0.00000297,0.00001421,-0.00002294,
 0.00000376,0.,-0.00002061,0.00000297,-0.00001421,-0.00002295,-0.000010
 49,0.00002517,0.00004443,-0.00296454,0.,-0.00000987,-0.02495869,0.0330
 0556,-0.00007029,-0.21223066,0.13713744,0.00006551,0.83113403,-0.00000
 002,-0.00015824,0.,0.00000401,0.00007577,0.00005763,0.00000905,-0.0000
 4111,0.00000737,-0.00000002,0.00000036,0.,-0.00000903,-0.00004113,-0.0
 0000732,-0.00000399,0.00007580,-0.00005763,0.,0.00019130,-0.00000001,-
 0.00001548,-0.00003720,0.00003938,0.00000067,0.00000191,0.00000118,0.,
 -0.00000597,0.,-0.00000067,0.00000193,-0.00000119,0.00001547,-0.000037
 22,-0.00003938,0.,-0.11971852,0.,0.11764821,0.06207516,0.00003352,0.03
 208936,-0.30974906,0.00016522,0.,0.72284736,0.00018999,0.,0.00011715,0
 .00006497,-0.00003738,-0.00003855,-0.00001902,-0.00001225,-0.00000149,
 -0.00000184,0.,-0.00003089,-0.00001902,0.00001224,-0.00000149,0.000064
 97,0.00003738,-0.00003855,-0.00017113,0.,-0.00013666,-0.00002490,-0.00
 001616,0.00001670,-0.00000538,0.00000891,-0.00001288,-0.00000171,0.,-0
 .00001339,-0.00000538,-0.00000891,-0.00001288,-0.00002490,0.00001617,0
 .00001670,0.00000987,0.,-0.00689082,0.00002174,-0.00003509,0.00784451,
 -0.00001274,0.00012623,-0.07620179,0.00026936,0.,0.16386408,-0.0000752
 6,-0.00014817,0.00018619,-0.00002722,-0.00000145,-0.00006184,-0.000002
 20,0.00000965,0.00005520,-0.00000384,-0.00004542,-0.00002747,0.0000246
 1,0.00000493,-0.00004724,-0.00001387,0.00003604,-0.00007230,0.00010018
 ,0.00015040,0.00002716,0.00003715,-0.00003884,0.00001588,0.00000218,0.
 00000613,-0.00001665,-0.00000111,-0.00000118,-0.00000769,-0.00000192,-
 0.00000443,-0.00001512,-0.00001771,0.00000325,0.00001239,-0.02495869,0
 .11764821,-0.00002174,-0.09037040,-0.05046912,-0.00002799,0.10543264,-
 0.04231051,-0.00015516,-0.21223067,-0.03208932,-0.00001274,0.74979770,
 -0.00013324,0.00004842,-0.00026406,0.00002003,0.00006615,0.00008975,0.
 00001506,0.00000468,-0.00001001,0.00000926,-0.00000152,0.00004806,-0.0
 0000939,0.00002728,-0.00000669,-0.00000772,-0.00012626,0.00012287,0.00
 015827,-0.00008541,-0.00004506,-0.00004045,0.00002442,-0.00003124,-0.0
 0000567,-0.00001029,0.00002766,-0.00000106,0.00000224,0.00001140,0.000
 00295,0.00000757,0.00002506,0.00002338,0.00000916,0.00000520,0.0330055
 6,0.06207516,0.00003509,-0.05046912,-0.03221303,-0.00005842,0.04231051
 ,-0.06839841,-0.00001274,-0.13713744,-0.30974914,-0.00012623,-0.046576
 25,0.80359799,0.00015495,-0.00017743,0.00013478,-0.00006457,0.00007459
 ,-0.00000043,0.00005369,-0.00003816,0.00004083,-0.00001155,-0.00003402
 ,-0.00002548,0.00000531,-0.00002216,-0.00003918,-0.00000936,0.00008689
 ,-0.00008097,-0.00008952,0.00013225,-0.00015108,-0.00003329,-0.0000655
 6,0.00004931,-0.00000284,0.00000942,-0.00000570,-0.00000167,-0.0000074
 4,-0.00001518,-0.00000316,-0.00001058,-0.00002038,-0.00001078,-0.00001
 898,-0.00000350,0.00007029,-0.00003352,0.00784451,0.00002799,0.0000584
 2,-0.00690837,-0.00015516,0.00001274,0.00782512,0.00006551,-0.00016518
 ,-0.07620179,-0.00003571,0.00042561,0.16387627,-0.00007526,0.00014817,
 -0.00018619,-0.00002722,0.00000145,0.00006184,-0.00000219,-0.00000965,
 -0.00005520,-0.00000384,0.00004542,0.00002747,0.00002461,-0.00000493,0
 .00004724,-0.00001387,-0.00003604,0.00007230,0.00010018,-0.00015040,-0
 .00002716,0.00003716,0.00003884,-0.00001588,0.00000218,-0.00000613,0.0
 0001665,-0.00000111,0.00000118,0.00000769,-0.00000192,0.00000443,0.000
 01512,-0.00001771,-0.00000325,-0.00001239,-0.21223066,0.03208936,0.000
 01274,0.10543264,0.04231051,0.00015516,-0.09037040,0.05046912,0.000027
 99,-0.02495869,-0.11764828,0.00002174,-0.35853673,0.05248143,-0.000085
 01,0.74979770,0.00013324,0.00004842,-0.00026406,-0.00002003,0.00006615
 ,0.00008976,-0.00001506,0.00000468,-0.00001001,-0.00000926,-0.00000152
 ,0.00004807,0.00000939,0.00002728,-0.00000669,0.00000772,-0.00012627,0
 .00012288,-0.00015826,-0.00008542,-0.00004506,0.00004045,0.00002442,-0
 .00003124,0.00000567,-0.00001029,0.00002767,0.00000106,0.00000224,0.00
 001140,-0.00000295,0.00000758,0.00002506,-0.00002338,0.00000916,0.0000
 0520,0.13713744,-0.30974906,-0.00012623,-0.04231051,-0.06839841,-0.000
 01274,0.05046912,-0.03221303,-0.00005842,-0.03300558,0.06207515,0.0000
 3509,-0.05248143,-0.16335354,-0.00005363,0.04657625,0.80359799,-0.0001
 5495,-0.00017743,0.00013478,0.00006457,0.00007459,-0.00000043,-0.00005
 369,-0.00003816,0.00004083,0.00001155,-0.00003402,-0.00002548,-0.00000
 531,-0.00002216,-0.00003918,0.00000936,0.00008689,-0.00008097,0.000089
 52,0.00013225,-0.00015107,0.00003329,-0.00006556,0.00004931,0.00000284
 ,0.00000942,-0.00000570,0.00000167,-0.00000744,-0.00001518,0.00000316,
 -0.00001058,-0.00002038,0.00001078,-0.00001898,-0.00000350,-0.00006551
 ,-0.00016522,-0.07620179,0.00015516,0.00001274,0.00782512,-0.00002799,
 0.00005842,-0.00690837,-0.00007029,-0.00003354,0.00784451,0.00008501,-
 0.00005363,-0.07618803,0.00003571,0.00042561,0.16387627,0.00005878,0.,
 0.00002599,0.00002376,0.00001893,-0.00001134,0.00000587,0.00000223,-0.
 00000517,0.00000079,0.00000001,-0.00000387,0.00000587,-0.00000224,-0.0
 0000516,0.00002376,-0.00001893,-0.00001134,-0.00008634,0.,0.00003844,-
 0.00002184,-0.00000234,0.00000622,-0.00000550,0.00000046,-0.00000094,-
 0.00000316,0.,-0.00000081,-0.00000550,-0.00000046,-0.00000095,-0.00002
 184,0.00000234,0.00000622,-0.37020312,0.,0.00026617,-0.01159158,0.0043
 0761,-0.00001372,0.00056565,-0.00365869,0.00001491,0.00083801,0.,-0.00
 001340,0.00056565,0.00365869,0.00001491,-0.01159158,-0.00430762,-0.000
 01373,0.39117698,0.,0.00000334,0.,-0.00000701,0.00000945,-0.00000258,-
 0.00000644,-0.00000212,0.00000694,0.,-0.00000532,0.,0.00000644,-0.0000
 0212,-0.00000694,0.00000701,0.00000945,0.00000258,0.,-0.00000236,0.,0.
 00001458,-0.00000535,-0.00000192,0.00000214,-0.00000110,0.00000206,0.,
 -0.00000061,0.,-0.00000214,-0.00000110,-0.00000206,-0.00001458,-0.0000
 0535,0.00000192,0.,-0.07228323,0.,-0.03220499,0.00735251,0.00001244,-0
 .00311487,-0.00541223,0.00000362,0.,-0.00162297,0.,0.00311487,-0.00541
 223,-0.00000362,0.03220499,0.00735251,-0.00001244,0.,0.06759368,0.0001
 1648,0.,-0.00003221,0.00002005,0.00002567,0.00001272,0.00000495,0.0000
 1274,-0.00000796,-0.00000308,0.,0.00001226,0.00000495,-0.00001273,-0.0
 0000796,0.00002005,-0.00002567,0.00001272,-0.00012441,0.,0.00004720,-0
 .00002320,0.00000970,-0.00000516,-0.00000547,-0.00000594,0.00000701,-0
 .00000263,0.,0.00000891,-0.00000547,0.00000594,0.00000701,-0.00002320,
 -0.00000971,-0.00000516,0.00031497,0.,-0.04597789,-0.00001614,-0.00003
 765,0.00482837,0.00001701,0.00000333,0.00858640,-0.00000570,0.,-0.0010
 0265,0.00001701,-0.00000333,0.00858640,-0.00001614,0.00003766,0.004828
 37,-0.00027734,0.,0.03109570,0.00000472,-0.00002276,0.00002254,0.00000
 787,0.00000402,-0.00000698,-0.00000315,-0.00000823,0.00001546,0.000001
 24,-0.00000928,0.00000124,-0.00000400,-0.00002335,-0.00000537,0.000007
 68,0.00007367,-0.00002338,-0.00002164,0.00002899,0.00001140,-0.0000022
 2,-0.00001166,0.00000222,-0.00000018,-0.00000197,0.00000126,0.00000037
 ,-0.00000337,0.00000202,0.00000100,0.00000020,-0.00000633,-0.00000405,
 -0.00001952,-0.00001952,0.01468030,-0.01698244,0.00002364,-0.14671827,
 0.12888344,-0.00011303,-0.00943328,0.03343517,-0.00003565,-0.00686318,
 -0.00115378,-0.00000850,-0.00101509,-0.00107511,0.00000646,-0.00096224
 ,-0.00401454,-0.00001231,0.00091226,0.00080112,-0.00000082,0.14842738,
 -0.00002565,0.00003887,-0.00002479,-0.00000803,-0.00004077,0.00000688,
 -0.00000095,0.00001049,-0.00002185,0.00000176,0.00001860,0.00000362,-0
 .00001412,0.00002000,0.00002390,-0.00001705,-0.00005235,0.00001956,0.0
 0003700,-0.00005320,-0.00002847,0.00000169,0.00001947,-0.00000904,0.00
 000220,0.00000086,-0.00000251,0.00000232,0.00000386,-0.00000027,0.0000
 0443,0.00000111,0.00000553,0.00003310,0.00002852,0.00001249,0.01952880
 ,-0.01896930,0.00004171,0.12884881,-0.29539944,0.00015683,-0.00306517,
 0.00518805,0.00001293,-0.00061219,0.00201881,0.00001421,-0.00107288,0.
 00022305,0.00000484,-0.00455653,-0.00387746,0.00000777,-0.00051170,0.0
 0107990,-0.00000642,-0.14003741,0.31002288,0.00006206,-0.00006575,-0.0
 0003392,-0.00000074,0.00004718,0.00001242,-0.00000009,-0.00000962,0.00
 003357,-0.00000449,-0.00002646,0.00001265,0.00001582,-0.00004066,-0.00
 003220,0.00001255,0.00009437,-0.00000780,-0.00005662,0.00008542,0.0000
 4161,-0.00000292,-0.00001534,0.00000024,-0.00000144,-0.00000873,0.0000
 1039,-0.00000171,-0.00000617,0.00001171,-0.00000420,0.00000623,-0.0000
 0083,-0.00004574,-0.00005528,-0.00003929,0.00002563,-0.00001816,0.0048
 5788,-0.00009908,0.00024177,-0.04597783,-0.00004325,-0.00001049,0.0048
 3732,0.00001603,-0.00002897,0.00857118,0.00001529,0.00001804,-0.000982
 18,-0.00001552,-0.00000373,0.00857718,-0.00000896,-0.00000032,-0.00486
 891,0.00014311,-0.00020690,0.03111711,0.00000472,0.00002276,-0.0000225
 4,0.00000787,-0.00000402,0.00000698,-0.00000315,0.00000823,-0.00001546
 ,0.00000124,0.00000928,-0.00000124,-0.00000400,0.00002335,0.00000537,0
 .00000768,-0.00007367,0.00002338,-0.00002164,-0.00002899,-0.00001140,-
 0.00000222,0.00001166,-0.00000222,-0.00000018,0.00000197,-0.00000126,0
 .00000037,0.00000337,-0.00000202,0.00000100,-0.00000020,0.00000633,-0.
 00000405,0.00001952,0.00001952,-0.00686318,0.00115381,0.00000850,-0.00
 943328,-0.03343517,0.00003565,-0.14671827,-0.12888344,0.00011303,0.014
 68029,0.01698244,-0.00002363,-0.00096224,0.00401454,0.00001231,-0.0010
 1509,0.00107511,-0.00000646,-0.00074775,-0.00161641,-0.00000476,0.0011
 6585,0.00066277,-0.00000149,0.14842738,0.00002565,0.00003887,-0.000024
 79,0.00000803,-0.00004077,0.00000688,0.00000095,0.00001049,-0.00002185
 ,-0.00000176,0.00001860,0.00000362,0.00001412,0.00002000,0.00002390,0.
 00001705,-0.00005235,0.00001956,-0.00003700,-0.00005320,-0.00002847,-0
 .00000169,0.00001947,-0.00000903,-0.00000220,0.00000086,-0.00000251,-0
 .00000232,0.00000386,-0.00000027,-0.00000443,0.00000111,0.00000553,-0.
 00003310,0.00002852,0.00001249,0.00061220,0.00201885,0.00001421,0.0030
 6517,0.00518805,0.00001293,-0.12884881,-0.29539944,0.00015683,-0.01952
 880,-0.01896932,0.00004171,0.00455653,-0.00387746,0.00000777,0.0010728
 8,0.00022305,0.00000484,0.00017633,0.00007973,-0.00000073,-0.00066277,
 0.00082887,-0.00000296,0.14003741,0.31002288,-0.00006206,-0.00006575,-
 0.00003392,0.00000074,0.00004718,0.00001243,0.00000009,-0.00000962,0.0
 0003357,0.00000449,-0.00002646,0.00001265,-0.00001582,-0.00004066,-0.0
 0003220,-0.00001256,0.00009437,-0.00000780,0.00005662,0.00008542,0.000
 04161,0.00000292,-0.00001534,0.00000024,0.00000144,-0.00000873,0.00001
 039,0.00000171,-0.00000617,0.00001171,0.00000421,0.00000623,-0.0000008
 3,0.00004574,-0.00005528,-0.00003929,-0.00001603,-0.00002896,0.0085711
 8,0.00004325,-0.00001049,0.00483732,0.00009908,0.00024177,-0.04597783,
 -0.00002563,-0.00001816,0.00485788,0.00001552,-0.00000373,0.00857718,-
 0.00001529,0.00001804,-0.00098218,0.00000064,0.00000017,-0.00005276,0.
 00000149,-0.00000296,-0.00487535,-0.00014311,-0.00020690,0.03111711,0.
 00005878,0.,-0.00002599,0.00002376,-0.00001893,0.00001134,0.00000587,-
 0.00000224,0.00000516,0.00000079,0.00000001,0.00000386,0.00000587,0.00
 000223,0.00000517,0.00002376,0.00001893,0.00001134,-0.00008634,0.,-0.0
 0003844,-0.00002184,0.00000234,-0.00000622,-0.00000550,-0.00000046,0.0
 0000095,-0.00000316,0.,0.00000081,-0.00000550,0.00000046,0.00000094,-0
 .00002184,-0.00000234,-0.00000622,0.00083801,0.,0.00001340,0.00056565,
 0.00365869,-0.00001491,-0.01159158,-0.00430762,0.00001373,-0.37020312,
 0.,-0.00026617,-0.01159158,0.00430761,0.00001372,0.00056565,-0.0036586
 9,-0.00001491,-0.00006363,0.,-0.00000153,-0.00074775,-0.00017633,-0.00
 000064,0.00091226,0.00051170,0.00000896,0.39117698,0.,0.00000334,0.,0.
 00000701,0.00000945,-0.00000258,0.00000644,-0.00000212,0.00000694,0.,-
 0.00000532,0.,-0.00000644,-0.00000212,-0.00000694,-0.00000701,0.000009
 45,0.00000258,0.,-0.00000236,0.,-0.00001458,-0.00000535,-0.00000192,-0
 .00000214,-0.00000110,0.00000206,0.,-0.00000061,0.,0.00000214,-0.00000
 110,-0.00000206,0.00001458,-0.00000535,0.00000192,0.,-0.00162297,0.,0.
 00311487,-0.00541223,0.00000362,0.03220499,0.00735251,0.00001244,0.,-0
 .07228323,0.,-0.03220499,0.00735251,-0.00001244,-0.00311487,-0.0054122
 3,-0.00000362,0.,0.00011588,0.,0.00161641,0.00007973,0.00000017,-0.000
 80112,0.00107990,-0.00000032,0.,0.06759368,-0.00011648,0.,-0.00003221,
 -0.00002005,0.00002567,0.00001272,-0.00000495,0.00001273,-0.00000796,0
 .00000308,0.,0.00001226,-0.00000495,-0.00001274,-0.00000796,-0.0000200
 5,-0.00002567,0.00001272,0.00012441,0.,0.00004720,0.00002320,0.0000097
 1,-0.00000516,0.00000547,-0.00000594,0.00000701,0.00000263,0.,0.000008
 91,0.00000547,0.00000594,0.00000701,0.00002320,-0.00000970,-0.00000516
 ,0.00000570,0.,-0.00100265,-0.00001701,0.00000333,0.00858640,0.0000161
 4,-0.00003766,0.00482837,-0.00031497,0.,-0.04597789,0.00001614,0.00003
 765,0.00482837,-0.00001701,-0.00000333,0.00858640,0.00000153,0.,-0.001
 15071,0.00000476,-0.00000073,-0.00005276,0.00000082,-0.00000641,-0.004
 86892,0.00027734,0.,0.03109570,0.00000472,-0.00002276,-0.00002254,0.00
 000768,0.00007367,0.00002338,-0.00000400,-0.00002335,0.00000537,0.0000
 0124,-0.00000928,-0.00000124,-0.00000315,-0.00000823,-0.00001546,0.000
 00787,0.00000402,0.00000698,-0.00002164,0.00002899,-0.00001140,-0.0000
 0405,-0.00001952,0.00001952,0.00000100,0.00000020,0.00000633,0.0000003
 7,-0.00000337,-0.00000202,-0.00000018,-0.00000197,-0.00000126,-0.00000
 222,-0.00001166,-0.00000222,-0.00686318,-0.00115378,0.00000850,-0.0010
 1509,-0.00107511,-0.00000646,-0.00096224,-0.00401454,0.00001231,0.0146
 8030,-0.01698244,-0.00002364,-0.14671827,0.12888344,0.00011303,-0.0094
 3328,0.03343517,0.00003565,-0.00074775,0.00161641,-0.00000476,0.000070
 83,0.00007917,0.00000006,0.00049554,-0.00089600,0.00000365,0.00091226,
 0.00080112,0.00000082,0.14842738,-0.00002566,0.00003887,0.00002479,-0.
 00001705,-0.00005235,-0.00001956,-0.00001412,0.00002000,-0.00002390,0.
 00000176,0.00001860,-0.00000362,-0.00000095,0.00001049,0.00002185,-0.0
 0000803,-0.00004077,-0.00000688,0.00003699,-0.00005320,0.00002847,0.00
 003310,0.00002852,-0.00001249,0.00000443,0.00000111,-0.00000553,0.0000
 0232,0.00000386,0.00000027,0.00000220,0.00000086,0.00000251,0.00000169
 ,0.00001947,0.00000904,-0.00061219,0.00201881,-0.00001421,-0.00107288,
 0.00022305,-0.00000484,-0.00455653,-0.00387746,-0.00000777,0.01952880,
 -0.01896930,-0.00004171,0.12884881,-0.29539944,-0.00015683,-0.00306517
 ,0.00518805,-0.00001293,-0.00017633,0.00007973,0.00000073,0.00007917,-
 0.00001950,0.00000290,0.00089600,-0.00117108,0.00000344,-0.00051170,0.
 00107990,0.00000642,-0.14003741,0.31002288,-0.00006206,0.00006575,-0.0
 0003392,-0.00001255,-0.00009437,-0.00000780,-0.00001582,0.00004066,-0.
 00003220,0.00000449,0.00002646,0.00001265,0.00000009,0.00000962,0.0000
 3357,0.00000074,-0.00004718,0.00001242,0.00005662,-0.00008542,0.000041
 61,0.00004574,0.00005528,-0.00003929,0.00000420,-0.00000623,-0.0000008
 3,0.00000171,0.00000617,0.00001171,0.00000144,0.00000873,0.00001039,0.
 00000292,0.00001534,0.00000024,-0.00001603,0.00002897,0.00857118,-0.00
 001529,-0.00001804,-0.00098218,0.00001552,0.00000373,0.00857718,-0.000
 02563,0.00001816,0.00485788,0.00009908,-0.00024177,-0.04597783,0.00004
 325,0.00001049,0.00483732,0.00000064,-0.00000017,-0.00005276,-0.000000
 06,-0.00000290,-0.00115471,0.00000365,-0.00000344,-0.00005747,0.000008
 96,0.00000032,-0.00486891,-0.00014311,0.00020690,0.03111711,0.00000472
 ,0.00002276,0.00002254,0.00000768,-0.00007367,-0.00002338,-0.00000400,
 0.00002335,-0.00000537,0.00000124,0.00000928,0.00000124,-0.00000315,0.
 00000823,0.00001546,0.00000787,-0.00000402,-0.00000698,-0.00002164,-0.
 00002899,0.00001140,-0.00000405,0.00001952,-0.00001952,0.00000100,-0.0
 0000020,-0.00000633,0.00000037,0.00000337,0.00000202,-0.00000018,0.000
 00197,0.00000126,-0.00000222,0.00001166,0.00000222,0.01468029,0.016982
 44,0.00002363,-0.00096224,0.00401454,-0.00001231,-0.00101509,0.0010751
 1,0.00000646,-0.00686318,0.00115381,-0.00000850,-0.00943328,-0.0334351
 7,-0.00003565,-0.14671827,-0.12888344,-0.00011303,0.00091226,-0.000801
 12,-0.00000082,0.00049554,0.00089600,-0.00000365,0.00007083,-0.0000791
 7,-0.00000006,-0.00074775,-0.00161641,0.00000476,0.00116585,0.00066277
 ,0.00000149,0.14842738,0.00002565,0.00003887,0.00002479,0.00001705,-0.
 00005235,-0.00001956,0.00001412,0.00002000,-0.00002390,-0.00000176,0.0
 0001860,-0.00000362,0.00000095,0.00001049,0.00002185,0.00000803,-0.000
 04077,-0.00000688,-0.00003700,-0.00005320,0.00002847,-0.00003310,0.000
 02852,-0.00001249,-0.00000443,0.00000111,-0.00000553,-0.00000232,0.000
 00386,0.00000027,-0.00000220,0.00000086,0.00000251,-0.00000169,0.00001
 947,0.00000903,-0.01952880,-0.01896932,-0.00004171,0.00455653,-0.00387
 746,-0.00000777,0.00107288,0.00022305,-0.00000484,0.00061220,0.0020188
 5,-0.00001421,0.00306517,0.00518805,-0.00001293,-0.12884881,-0.2953994
 4,-0.00015683,0.00051170,0.00107990,0.00000641,-0.00089600,-0.00117108
 ,0.00000344,-0.00007917,-0.00001950,0.00000290,0.00017633,0.00007973,0
 .00000073,-0.00066277,0.00082887,0.00000296,0.14003741,0.31002288,0.00
 006206,0.00006575,-0.00003392,0.00001256,-0.00009437,-0.00000780,0.000
 01582,0.00004066,-0.00003220,-0.00000449,0.00002646,0.00001265,-0.0000
 0009,0.00000962,0.00003357,-0.00000074,-0.00004718,0.00001243,-0.00005
 662,-0.00008542,0.00004161,-0.00004574,0.00005528,-0.00003929,-0.00000
 421,-0.00000623,-0.00000083,-0.00000171,0.00000617,0.00001171,-0.00000
 144,0.00000873,0.00001039,-0.00000292,0.00001534,0.00000024,0.00002563
 ,0.00001816,0.00485788,-0.00001552,0.00000373,0.00857718,0.00001529,-0
 .00001804,-0.00098218,0.00001603,0.00002896,0.00857118,-0.00004325,0.0
 0001049,0.00483732,-0.00009908,-0.00024177,-0.04597783,-0.00000896,0.0
 0000032,-0.00486892,-0.00000365,-0.00000344,-0.00005747,0.00000006,-0.
 00000290,-0.00115471,-0.00000064,-0.00000017,-0.00005276,-0.00000149,0
 .00000296,-0.00487535,0.00014311,0.00020690,0.03111711\\0.,0.,-0.00000
 057,0.,0.00000070,-0.00000095,0.,0.00000061,0.00000099,0.,0.,0.0000005
 5,0.,-0.00000061,0.00000099,0.,-0.00000070,-0.00000095,0.,0.,0.0000015
 2,0.,0.00000013,0.00000007,0.,0.00000009,-0.00000002,0.,0.,0.00000019,
 0.,-0.00000009,-0.00000002,0.,-0.00000013,0.00000007,-0.00000661,0.,-0
 .00000093,-0.00000450,0.00000644,-0.00000014,0.00000450,0.00000644,-0.
 00000014,0.00000661,0.,-0.00000093,0.00000450,-0.00000644,-0.00000014,
 -0.00000450,-0.00000644,-0.00000014,-0.00000004,0.,0.00000099,0.000000
 16,0.00000022,-0.00000036,-0.00000016,0.00000022,-0.00000036,0.0000000
 4,0.,0.00000099,-0.00000016,-0.00000022,-0.00000036,0.00000016,-0.0000
 0022,-0.00000036\\\@


 NOTHING PUZZLES ME MORE THAN TIME AND SPACE; AND YET NOTHING TROUBLES ME LESS
                                                          -- CHARLES LAMB (1810)
 Job cpu time:       0 days  0 hours 30 minutes  7.8 seconds.
 File lengths (MBytes):  RWF=    167 Int=      0 D2E=      0 Chk=     10 Scr=      1
 Normal termination of Gaussian 09 at Mon Oct 10 14:29:28 2016.
