 Entering Gaussian System, Link 0=g09
 Initial command:
 /cluster/software/gaussian/gaussian-09-D.01/g09/l1.exe "/local/scratch/epktb/Gau-20690.inp" -scrdir="/local/scratch/epktb/"
 Entering Link 1 = /cluster/software/gaussian/gaussian-09-D.01/g09/l1.exe PID=     20691.
  
 Copyright (c) 1988,1990,1992,1993,1995,1998,2003,2009,2013,
            Gaussian, Inc.  All Rights Reserved.
  
 This is part of the Gaussian(R) 09 program.  It is based on
 the Gaussian(R) 03 system (copyright 2003, Gaussian, Inc.),
 the Gaussian(R) 98 system (copyright 1998, Gaussian, Inc.),
 the Gaussian(R) 94 system (copyright 1995, Gaussian, Inc.),
 the Gaussian 92(TM) system (copyright 1992, Gaussian, Inc.),
 the Gaussian 90(TM) system (copyright 1990, Gaussian, Inc.),
 the Gaussian 88(TM) system (copyright 1988, Gaussian, Inc.),
 the Gaussian 86(TM) system (copyright 1986, Carnegie Mellon
 University), and the Gaussian 82(TM) system (copyright 1983,
 Carnegie Mellon University). Gaussian is a federally registered
 trademark of Gaussian, Inc.
  
 This software contains proprietary and confidential information,
 including trade secrets, belonging to Gaussian, Inc.
  
 This software is provided under written license and may be
 used, copied, transmitted, or stored only in accord with that
 written license.
  
 The following legend is applicable only to US Government
 contracts under FAR:
  
                    RESTRICTED RIGHTS LEGEND
  
 Use, reproduction and disclosure by the US Government is
 subject to restrictions as set forth in subparagraphs (a)
 and (c) of the Commercial Computer Software - Restricted
 Rights clause in FAR 52.227-19.
  
 Gaussian, Inc.
 340 Quinnipiac St., Bldg. 40, Wallingford CT 06492
  
  
 ---------------------------------------------------------------
 Warning -- This program may not be used in any manner that
 competes with the business of Gaussian, Inc. or will provide
 assistance to any competitor of Gaussian, Inc.  The licensee
 of this program is prohibited from giving any competitor of
 Gaussian, Inc. access to this program.  By using this program,
 the user acknowledges that Gaussian, Inc. is engaged in the
 business of creating and licensing software in the field of
 computational chemistry and represents and warrants to the
 licensee that it is not a competitor of Gaussian, Inc. and that
 it will not use this program in any manner prohibited above.
 ---------------------------------------------------------------
  

 Cite this work as:
 Gaussian 09, Revision D.01,
 M. J. Frisch, G. W. Trucks, H. B. Schlegel, G. E. Scuseria, 
 M. A. Robb, J. R. Cheeseman, G. Scalmani, V. Barone, B. Mennucci, 
 G. A. Petersson, H. Nakatsuji, M. Caricato, X. Li, H. P. Hratchian, 
 A. F. Izmaylov, J. Bloino, G. Zheng, J. L. Sonnenberg, M. Hada, 
 M. Ehara, K. Toyota, R. Fukuda, J. Hasegawa, M. Ishida, T. Nakajima, 
 Y. Honda, O. Kitao, H. Nakai, T. Vreven, J. A. Montgomery, Jr., 
 J. E. Peralta, F. Ogliaro, M. Bearpark, J. J. Heyd, E. Brothers, 
 K. N. Kudin, V. N. Staroverov, T. Keith, R. Kobayashi, J. Normand, 
 K. Raghavachari, A. Rendell, J. C. Burant, S. S. Iyengar, J. Tomasi, 
 M. Cossi, N. Rega, J. M. Millam, M. Klene, J. E. Knox, J. B. Cross, 
 V. Bakken, C. Adamo, J. Jaramillo, R. Gomperts, R. E. Stratmann, 
 O. Yazyev, A. J. Austin, R. Cammi, C. Pomelli, J. W. Ochterski, 
 R. L. Martin, K. Morokuma, V. G. Zakrzewski, G. A. Voth, 
 P. Salvador, J. J. Dannenberg, S. Dapprich, A. D. Daniels, 
 O. Farkas, J. B. Foresman, J. V. Ortiz, J. Cioslowski, 
 and D. J. Fox, Gaussian, Inc., Wallingford CT, 2013.
 
 ******************************************
 Gaussian 09:  ES64L-G09RevD.01 24-Apr-2013
                 7-Oct-2016 
 ******************************************
 %nprocshared=4
 Will use up to    4 processors via shared memory.
 %mem=6GB
 %chk=benz-test2.chk
 -----------------------------------------
 # opt rhf/6-311++g(d,p) geom=connectivity
 -----------------------------------------
 1/18=20,19=15,38=1,57=2/1,3;
 2/9=110,12=2,17=6,18=5,40=1/2;
 3/5=4,6=6,7=1111,11=1,16=1,25=1,30=1,71=1,116=1/1,2,3;
 4//1;
 5/5=2,38=5/2;
 6/7=2,8=2,9=2,10=2,28=1/1;
 7//1,2,3,16;
 1/18=20,19=15/3(2);
 2/9=110/2;
 99//99;
 2/9=110/2;
 3/5=4,6=6,7=1111,11=1,16=1,25=1,30=1,71=1,116=1/1,2,3;
 4/5=5,16=3,69=1/1;
 5/5=2,38=5/2;
 7//1,2,3,16;
 1/18=20,19=15/3(-5);
 2/9=110/2;
 6/7=2,8=2,9=2,10=2,19=2,28=1/1;
 99/9=1/99;
 -----
 title
 -----
 Symbolic Z-matrix:
 Charge =  0 Multiplicity = 1
 C
 C                    1    B1
 C                    2    B2       1    A1
 C                    3    B3       2    A2       1    D1       0
 C                    4    B4       3    A3       2    D2       0
 C                    1    B5       2    A4       3    D3       0
 H                    1    B6       6    A5       5    D4       0
 H                    2    B7       1    A6       6    D5       0
 H                    3    B8       2    A7       1    D6       0
 H                    4    B9       3    A8       2    D7       0
 H                    5    B10      4    A9       3    D8       0
 H                    6    B11      1    A10      2    D9       0
 C                    5    B12      4    A11      3    D10      0
 C                    13   B13      5    A12      4    D11      0
 C                    14   B14      13   A13      5    D12      0
 C                    15   B15      14   A14      13   D13      0
 C                    16   B16      15   A15      14   D14      0
 C                    13   B17      5    A16      4    D15      0
 H                    13   B18      5    A17      4    D16      0
 H                    14   B19      13   A18      5    D17      0
 H                    15   B20      14   A19      13   D18      0
 H                    16   B21      15   A20      14   D19      0
 H                    17   B22      16   A21      15   D20      0
 H                    18   B23      13   A22      5    D21      0
       Variables:
  B1                    1.39516                  
  B2                    1.39471                  
  B3                    1.39543                  
  B4                    1.39483                  
  B5                    1.39483                  
  B6                    1.09961                  
  B7                    1.09966                  
  B8                    1.09968                  
  B9                    1.09968                  
  B10                   1.09976                  
  B11                   1.0996                   
  B12                   2.61528                  
  B13                   1.33917                  
  B14                   2.18674                  
  B15                   0.91504                  
  B16                   1.58987                  
  B17                   1.16084                  
  B18                   1.12117                  
  B19                   1.09966                  
  B20                   1.70003                  
  B21                   1.92446                  
  B22                   1.09976                  
  B23                   1.18435                  
  A1                  120.00863                  
  A2                  119.99416                  
  A3                  119.99399                  
  A4                  119.99846                  
  A5                  120.00432                  
  A6                  119.98077                  
  A7                  120.01279                  
  A8                  119.98114                  
  A9                  120.01134                  
  A10                 120.008                    
  A11                  80.34434                  
  A12                 116.41576                  
  A13                 127.64366                  
  A14                 117.99427                  
  A15                 117.62536                  
  A16                  54.63117                  
  A17                  80.74086                  
  A18                 100.62751                  
  A19                 115.17699                  
  A20                 114.40229                  
  A21                 108.51492                  
  A22                  79.49753                  
  D1                   -0.05684                  
  D2                    0.03411                  
  D3                    0.03235                  
  D4                 -179.97984                  
  D5                  179.95325                  
  D6                  179.96185                  
  D7                 -179.99644                  
  D8                 -179.99951                  
  D9                  179.98918                  
  D10                  57.49762                  
  D11                  33.92994                  
  D12                  72.17404                  
  D13                 -30.90521                  
  D14                  20.23773                  
  D15                 141.46477                  
  D16                 -85.1429                   
  D17                -121.57476                  
  D18                -169.35135                  
  D19                -159.35919                  
  D20                 165.38                     
  D21                  59.63527                  
 
 Add virtual bond connecting atoms H24        and C6         Dist= 2.25D+00.

 GradGradGradGradGradGradGradGradGradGradGradGradGradGradGradGradGradGrad
 Berny optimization.
 Initialization pass.
                           ----------------------------
                           !    Initial Parameters    !
                           ! (Angstroms and Degrees)  !
 --------------------------                            --------------------------
 ! Name  Definition              Value          Derivative Info.                !
 --------------------------------------------------------------------------------
 ! R1    R(1,2)                  1.3952         estimate D2E/DX2                !
 ! R2    R(1,6)                  1.3948         estimate D2E/DX2                !
 ! R3    R(1,7)                  1.0996         estimate D2E/DX2                !
 ! R4    R(2,3)                  1.3947         estimate D2E/DX2                !
 ! R5    R(2,8)                  1.0997         estimate D2E/DX2                !
 ! R6    R(3,4)                  1.3954         estimate D2E/DX2                !
 ! R7    R(3,9)                  1.0997         estimate D2E/DX2                !
 ! R8    R(4,5)                  1.3948         estimate D2E/DX2                !
 ! R9    R(4,10)                 1.0997         estimate D2E/DX2                !
 ! R10   R(5,6)                  1.3951         estimate D2E/DX2                !
 ! R11   R(5,11)                 1.0998         estimate D2E/DX2                !
 ! R12   R(6,12)                 1.0996         estimate D2E/DX2                !
 ! R13   R(6,24)                 1.1884         estimate D2E/DX2                !
 ! R14   R(13,14)                1.3392         estimate D2E/DX2                !
 ! R15   R(13,18)                1.1608         estimate D2E/DX2                !
 ! R16   R(13,19)                1.1212         estimate D2E/DX2                !
 ! R17   R(14,15)                2.1867         estimate D2E/DX2                !
 ! R18   R(14,20)                1.0997         estimate D2E/DX2                !
 ! R19   R(15,16)                0.915          estimate D2E/DX2                !
 ! R20   R(15,21)                1.7            estimate D2E/DX2                !
 ! R21   R(16,17)                1.5899         estimate D2E/DX2                !
 ! R22   R(16,22)                1.9245         estimate D2E/DX2                !
 ! R23   R(17,18)                2.2091         estimate D2E/DX2                !
 ! R24   R(17,23)                1.0998         estimate D2E/DX2                !
 ! R25   R(18,24)                1.1843         estimate D2E/DX2                !
 ! A1    A(2,1,6)              119.9985         estimate D2E/DX2                !
 ! A2    A(2,1,7)              119.9972         estimate D2E/DX2                !
 ! A3    A(6,1,7)              120.0043         estimate D2E/DX2                !
 ! A4    A(1,2,3)              120.0086         estimate D2E/DX2                !
 ! A5    A(1,2,8)              119.9808         estimate D2E/DX2                !
 ! A6    A(3,2,8)              120.0106         estimate D2E/DX2                !
 ! A7    A(2,3,4)              119.9942         estimate D2E/DX2                !
 ! A8    A(2,3,9)              120.0128         estimate D2E/DX2                !
 ! A9    A(4,3,9)              119.993          estimate D2E/DX2                !
 ! A10   A(3,4,5)              119.994          estimate D2E/DX2                !
 ! A11   A(3,4,10)             119.9811         estimate D2E/DX2                !
 ! A12   A(5,4,10)             120.0249         estimate D2E/DX2                !
 ! A13   A(4,5,6)              120.0047         estimate D2E/DX2                !
 ! A14   A(4,5,11)             120.0113         estimate D2E/DX2                !
 ! A15   A(6,5,11)             119.984          estimate D2E/DX2                !
 ! A16   A(1,6,5)              120.0            estimate D2E/DX2                !
 ! A17   A(1,6,12)             120.008          estimate D2E/DX2                !
 ! A18   A(1,6,24)              83.0787         estimate D2E/DX2                !
 ! A19   A(5,6,12)             119.992          estimate D2E/DX2                !
 ! A20   A(5,6,24)              96.2004         estimate D2E/DX2                !
 ! A21   A(12,6,24)             90.7394         estimate D2E/DX2                !
 ! A22   A(14,13,18)           118.5251         estimate D2E/DX2                !
 ! A23   A(14,13,19)           120.0726         estimate D2E/DX2                !
 ! A24   A(18,13,19)           117.3721         estimate D2E/DX2                !
 ! A25   A(13,14,15)           127.6437         estimate D2E/DX2                !
 ! A26   A(13,14,20)           100.6275         estimate D2E/DX2                !
 ! A27   A(15,14,20)           130.0389         estimate D2E/DX2                !
 ! A28   A(14,15,16)           117.9943         estimate D2E/DX2                !
 ! A29   A(14,15,21)           115.177          estimate D2E/DX2                !
 ! A30   A(16,15,21)           113.4729         estimate D2E/DX2                !
 ! A31   A(15,16,17)           117.6254         estimate D2E/DX2                !
 ! A32   A(15,16,22)           114.4023         estimate D2E/DX2                !
 ! A33   A(17,16,22)           127.9709         estimate D2E/DX2                !
 ! A34   A(16,17,18)           120.1541         estimate D2E/DX2                !
 ! A35   A(16,17,23)           108.5149         estimate D2E/DX2                !
 ! A36   A(18,17,23)           130.6799         estimate D2E/DX2                !
 ! A37   A(13,18,17)           112.6092         estimate D2E/DX2                !
 ! A38   A(13,18,24)            79.4975         estimate D2E/DX2                !
 ! A39   A(17,18,24)           155.8543         estimate D2E/DX2                !
 ! A40   A(6,24,18)            129.5427         estimate D2E/DX2                !
 ! D1    D(6,1,2,3)              0.0323         estimate D2E/DX2                !
 ! D2    D(6,1,2,8)            179.9532         estimate D2E/DX2                !
 ! D3    D(7,1,2,3)           -179.9729         estimate D2E/DX2                !
 ! D4    D(7,1,2,8)             -0.052          estimate D2E/DX2                !
 ! D5    D(2,1,6,5)              0.0149         estimate D2E/DX2                !
 ! D6    D(2,1,6,12)           179.9892         estimate D2E/DX2                !
 ! D7    D(2,1,6,24)           -93.1692         estimate D2E/DX2                !
 ! D8    D(7,1,6,5)           -179.9798         estimate D2E/DX2                !
 ! D9    D(7,1,6,12)            -0.0056         estimate D2E/DX2                !
 ! D10   D(7,1,6,24)            86.836          estimate D2E/DX2                !
 ! D11   D(1,2,3,4)             -0.0568         estimate D2E/DX2                !
 ! D12   D(1,2,3,9)            179.9619         estimate D2E/DX2                !
 ! D13   D(8,2,3,4)           -179.9777         estimate D2E/DX2                !
 ! D14   D(8,2,3,9)              0.041          estimate D2E/DX2                !
 ! D15   D(2,3,4,5)              0.0341         estimate D2E/DX2                !
 ! D16   D(2,3,4,10)          -179.9964         estimate D2E/DX2                !
 ! D17   D(9,3,4,5)           -179.9846         estimate D2E/DX2                !
 ! D18   D(9,3,4,10)            -0.0151         estimate D2E/DX2                !
 ! D19   D(3,4,5,6)              0.0131         estimate D2E/DX2                !
 ! D20   D(3,4,5,11)          -179.9995         estimate D2E/DX2                !
 ! D21   D(10,4,5,6)          -179.9563         estimate D2E/DX2                !
 ! D22   D(10,4,5,11)            0.0311         estimate D2E/DX2                !
 ! D23   D(4,5,6,1)             -0.0376         estimate D2E/DX2                !
 ! D24   D(4,5,6,12)           179.9881         estimate D2E/DX2                !
 ! D25   D(4,5,6,24)            85.5323         estimate D2E/DX2                !
 ! D26   D(11,5,6,1)           179.975          estimate D2E/DX2                !
 ! D27   D(11,5,6,12)            0.0007         estimate D2E/DX2                !
 ! D28   D(11,5,6,24)          -94.4551         estimate D2E/DX2                !
 ! D29   D(1,6,24,18)          132.7789         estimate D2E/DX2                !
 ! D30   D(5,6,24,18)           13.2115         estimate D2E/DX2                !
 ! D31   D(12,6,24,18)        -107.071          estimate D2E/DX2                !
 ! D32   D(18,13,14,15)          9.9247         estimate D2E/DX2                !
 ! D33   D(18,13,14,20)        176.1759         estimate D2E/DX2                !
 ! D34   D(19,13,14,15)        166.7645         estimate D2E/DX2                !
 ! D35   D(19,13,14,20)        -26.9843         estimate D2E/DX2                !
 ! D36   D(14,13,18,17)          5.0921         estimate D2E/DX2                !
 ! D37   D(14,13,18,24)        163.2347         estimate D2E/DX2                !
 ! D38   D(19,13,18,17)       -152.3714         estimate D2E/DX2                !
 ! D39   D(19,13,18,24)          5.7712         estimate D2E/DX2                !
 ! D40   D(13,14,15,16)        -30.9052         estimate D2E/DX2                !
 ! D41   D(13,14,15,21)       -169.3513         estimate D2E/DX2                !
 ! D42   D(20,14,15,16)        166.8591         estimate D2E/DX2                !
 ! D43   D(20,14,15,21)         28.413          estimate D2E/DX2                !
 ! D44   D(14,15,16,17)         20.2377         estimate D2E/DX2                !
 ! D45   D(14,15,16,22)       -159.3592         estimate D2E/DX2                !
 ! D46   D(21,15,16,17)        159.3587         estimate D2E/DX2                !
 ! D47   D(21,15,16,22)        -20.2383         estimate D2E/DX2                !
 ! D48   D(15,16,17,18)         -6.3257         estimate D2E/DX2                !
 ! D49   D(15,16,17,23)        165.38           estimate D2E/DX2                !
 ! D50   D(22,16,17,18)        173.2086         estimate D2E/DX2                !
 ! D51   D(22,16,17,23)        -15.0856         estimate D2E/DX2                !
 ! D52   D(16,17,18,13)        -13.2287         estimate D2E/DX2                !
 ! D53   D(16,17,18,24)       -129.7348         estimate D2E/DX2                !
 ! D54   D(23,17,18,13)        177.163          estimate D2E/DX2                !
 ! D55   D(23,17,18,24)         60.6568         estimate D2E/DX2                !
 ! D56   D(13,18,24,6)        -115.9671         estimate D2E/DX2                !
 ! D57   D(17,18,24,6)           6.8729         estimate D2E/DX2                !
 --------------------------------------------------------------------------------
 Trust Radius=3.00D-01 FncErr=1.00D-07 GrdErr=1.00D-07
 Number of steps in this run=    132 maximum allowed number of steps=    144.
 GradGradGradGradGradGradGradGradGradGradGradGradGradGradGradGradGradGrad

                          Input orientation:                          
 ---------------------------------------------------------------------
 Center     Atomic      Atomic             Coordinates (Angstroms)
 Number     Number       Type             X           Y           Z
 ---------------------------------------------------------------------
      1          6           0        0.000000    0.000000    0.000000
      2          6           0        0.000000    0.000000    1.395160
      3          6           0        1.207751    0.000000    2.092698
      4          6           0        2.416260   -0.001199    1.395044
      5          6           0        2.416182   -0.001678    0.000219
      6          6           0        1.207976   -0.000682   -0.697382
      7          1           0       -0.952317    0.000450   -0.549759
      8          1           0       -0.952513    0.001315    1.944668
      9          1           0        1.207831    0.000634    3.192378
     10          1           0        3.368403   -0.001258    1.945244
     11          1           0        3.368463   -0.002631   -0.549903
     12          1           0        1.208159   -0.000862   -1.796986
     13          6           0        1.032562    2.173970    0.438200
     14          6           0        1.371875    2.888364    1.518891
     15          6           0        3.161297    4.112824    1.802606
     16          6           0        3.929042    3.856824    1.375607
     17          6           0        3.788057    2.886686    0.123950
     18          6           0        1.818972    2.036014   -0.404463
     19          1           0        0.206082    1.418950    0.500615
     20          1           0        0.419363    2.889679    2.068399
     21          1           0        3.419980    4.658121    3.391894
     22          1           0        5.541968    4.574994    2.141280
     23          1           0        4.740339    2.885733   -0.426172
     24          1           0        1.052003    1.177372   -0.682266
 ---------------------------------------------------------------------
                    Distance matrix (angstroms):
                    1          2          3          4          5
     1  C    0.000000
     2  C    1.395160   0.000000
     3  C    2.416205   1.394712   0.000000
     4  C    2.790065   2.416260   1.395427   0.000000
     5  C    2.416183   2.789946   2.416356   1.394825   0.000000
     6  C    1.394829   2.416183   2.790080   2.416236   1.395138
     7  H    1.099610   2.165553   3.412986   3.889675   3.413102
     8  H    2.165414   1.099655   2.165330   3.413316   3.889601
     9  H    3.413229   2.165375   1.099680   2.165806   3.413209
    10  H    3.889745   3.413024   2.165678   1.099680   2.165606
    11  H    3.413055   3.889707   3.413506   2.165528   1.099761
    12  H    2.165365   3.413128   3.889684   3.412999   2.165471
    13  C    2.446293   2.590000   2.737553   2.749823   2.615277
    14  C    3.540017   3.200000   2.949380   3.075005   3.427723
    15  C    5.491676   5.203377   4.562435   4.200758   4.553341
    16  C    5.674924   5.505710   4.774383   4.144060   4.366747
    17  C    4.764210   4.929332   4.343605   3.440551   3.200000
    18  C    2.760000   3.269962   3.279444   2.783023   2.161623
    19  H    1.518718   1.690000   2.356160   2.775196   2.674532
    20  H    3.578322   2.996558   2.995395   3.577455   4.077328
    21  H    6.700694   6.114025   5.317891   5.167604   5.850197
    22  H    7.498604   7.225004   6.302251   5.591821   5.941432
    23  H    5.565958   5.840849   5.210694   4.129473   3.731040
    24  H    1.720000   2.609331   3.018424   2.750535   1.927934
                    6          7          8          9         10
     6  C    0.000000
     7  H    2.165331   0.000000
     8  H    3.412938   2.494427   0.000000
     9  H    3.889760   4.320860   2.494768   0.000000
    10  H    3.413344   4.989355   4.320917   2.494678   0.000000
    11  H    2.165516   4.320781   4.989362   4.321228   2.495147
    12  H    1.099604   2.494641   4.320704   4.989364   4.320988
    13  C    2.459558   3.104834   3.306115   3.512777   3.529724
    14  C    3.644903   4.245142   3.730834   3.341625   3.538053
    15  C    5.194837   6.274317   5.817914   4.760000   4.121760
    16  C    5.155758   6.512014   6.246468   5.057257   3.940000
    17  C    3.958321   5.590652   5.840667   4.939850   3.439977
    18  C    2.146450   3.441609   4.164078   4.177742   3.474527
    19  H    2.110532   2.111236   2.331806   3.203234   3.755558
    20  H    4.077456   4.133268   3.200000   3.198686   4.131528
    21  H    6.581762   7.506498   6.549733   5.160000   4.879065
    22  H    6.912185   8.387126   7.945784   6.388609   5.070000
    23  H    4.569741   6.383295   6.808033   5.822054   3.980018
    24  H    1.188430   2.328089   3.507417   4.052389   3.695766
                   11         12         13         14         15
    11  H    0.000000
    12  H    2.494420   0.000000
    13  C    3.342211   3.123585   0.000000
    14  C    4.077269   4.401076   1.339173   0.000000
    15  C    4.744911   5.804672   3.186263   2.186738   0.000000
    16  C    4.349394   5.687732   3.478552   2.738164   0.915039
    17  C    2.996380   4.322477   2.863472   2.789946   2.171204
    18  C    2.564790   2.541864   1.160842   2.150741   3.314533
    19  H    3.622863   2.880798   1.121169   2.134277   4.205405
    20  H    4.890619   4.890668   1.883030   1.099655   3.014122
    21  H    6.104345   7.315925   4.538181   3.291643   1.700031
    22  H    5.737704   7.431709   5.385178   4.541119   2.448652
    23  H    3.200000   4.763177   3.873158   3.889707   2.994424
    24  H    2.603059   1.629485   1.499676   2.806226   4.386409
                   16         17         18         19         20
    16  C    0.000000
    17  C    1.589871   0.000000
    18  C    3.307022   2.209109   0.000000
    19  H    4.535336   3.889303   1.949704   0.000000
    20  H    3.705830   3.889601   2.966934   2.160204   0.000000
    21  H    2.228595   3.735361   4.883749   5.401932   3.725954
    22  H    1.924462   3.161678   5.175706   6.412806   5.393208
    23  H    2.201733   1.099761   3.042512   4.854881   4.989362
    24  H    4.437529   3.325317   1.184349   1.474160   3.301270
                   21         22         23         24
    21  H    0.000000
    22  H    2.464504   0.000000
    23  H    4.411614   3.176165   0.000000
    24  H    5.858474   6.298892   4.072825   0.000000
 Stoichiometry    C12H12
 Framework group  C1[X(C12H12)]
 Deg. of freedom    66
 Full point group                 C1      NOp   1
 Largest Abelian subgroup         C1      NOp   1
 Largest concise Abelian subgroup C1      NOp   1
                         Standard orientation:                         
 ---------------------------------------------------------------------
 Center     Atomic      Atomic             Coordinates (Angstroms)
 Number     Number       Type             X           Y           Z
 ---------------------------------------------------------------------
      1          6           0        2.422741    0.042401   -0.664639
      2          6           0        2.185332   -1.144531    0.029120
      3          6           0        1.334143   -1.148407    1.133965
      4          6           0        0.720840    0.035279    1.546231
      5          6           0        0.958611    1.221981    0.852877
      6          6           0        1.809313    1.225495   -0.252882
      7          1           0        3.093515    0.045155   -1.535958
      8          1           0        2.668495   -2.077242   -0.296218
      9          1           0        1.146474   -2.084044    1.680464
     10          1           0        0.049793    0.031989    2.417426
     11          1           0        0.475412    2.155031    1.177547
     12          1           0        1.996458    2.161108   -0.799450
     13          6           0        0.033484   -0.249825   -1.100992
     14          6           0       -0.911050   -1.142745   -0.778603
     15          6           0       -2.995595   -0.749134   -0.247975
     16          6           0       -3.189740    0.038769    0.174887
     17          6           0       -2.137771    1.223767    0.045154
     18          6           0       -0.192928    0.877823   -0.943822
     19          1           0        1.110516   -0.559294   -1.136370
     20          1           0       -0.427887   -2.075456   -1.103941
     21          1           0       -3.846442   -2.081164    0.378011
     22          1           0       -4.856037    0.034819    1.137691
     23          1           0       -2.620970    2.156817    0.369825
     24          1           0        0.986383    0.907027   -1.048954
 ---------------------------------------------------------------------
 Rotational constants (GHZ):      1.9352481      0.7408996      0.6998909
 Standard basis: 6-311++G(d,p) (5D, 7F)
 There are   360 symmetry adapted cartesian basis functions of A   symmetry.
 There are   348 symmetry adapted basis functions of A   symmetry.
   348 basis functions,   540 primitive gaussians,   360 cartesian basis functions
    42 alpha electrons       42 beta electrons
       nuclear repulsion energy       657.5310201916 Hartrees.
 NAtoms=   24 NActive=   24 NUniq=   24 SFac= 1.00D+00 NAtFMM=   60 NAOKFM=F Big=F
 Integral buffers will be    131072 words long.
 Raffenetti 1 integral format.
 Two-electron integral symmetry is turned on.
 One-electron integrals computed using PRISM.
 NBasis=   348 RedAO= T EigKep=  1.57D-06  NBF=   348
 NBsUse=   347 1.00D-06 EigRej=  4.79D-07 NBFU=   347
 ExpMin= 3.60D-02 ExpMax= 4.56D+03 ExpMxC= 6.82D+02 IAcc=3 IRadAn=         5 AccDes= 0.00D+00
 Harris functional with IExCor=  205 and IRadAn=       5 diagonalized for initial guess.
 HarFok:  IExCor=  205 AccDes= 0.00D+00 IRadAn=         5 IDoV= 1 UseB2=F ITyADJ=14
 ICtDFT=  3500011 ScaDFX=  1.000000  1.000000  1.000000  1.000000
 FoFCou: FMM=F IPFlag=           0 FMFlag=      100000 FMFlg1=           0
         NFxFlg=           0 DoJE=T BraDBF=F KetDBF=T FulRan=T
         wScrn=  0.000000 ICntrl=     500 IOpCl=  0 I1Cent=   200000004 NGrid=           0
         NMat0=    1 NMatS0=      1 NMatT0=    0 NMatD0=    1 NMtDS0=    0 NMtDT0=    0
 Petite list used in FoFCou.
 Requested convergence on RMS density matrix=1.00D-08 within 128 cycles.
 Requested convergence on MAX density matrix=1.00D-06.
 Requested convergence on             energy=1.00D-06.
 No special actions if energy rises.
 Restarting incremental Fock formation.
 Initial convergence to 1.0D-05 achieved.  Increase integral accuracy.
 SCF Done:  E(RHF) =  -459.954658585     A.U. after   35 cycles
            NFock= 35  Conv=0.96D-08     -V/T= 1.9917

 **********************************************************************

            Population analysis using the SCF density.

 **********************************************************************

 Orbital symmetries:
       Occupied  (A) (A) (A) (A) (A) (A) (A) (A) (A) (A) (A) (A)
                 (A) (A) (A) (A) (A) (A) (A) (A) (A) (A) (A) (A)
                 (A) (A) (A) (A) (A) (A) (A) (A) (A) (A) (A) (A)
                 (A) (A) (A) (A) (A) (A)
       Virtual   (A) (A) (A) (A) (A) (A) (A) (A) (A) (A) (A) (A)
                 (A) (A) (A) (A) (A) (A) (A) (A) (A) (A) (A) (A)
                 (A) (A) (A) (A) (A) (A) (A) (A) (A) (A) (A) (A)
                 (A) (A) (A) (A) (A) (A) (A) (A) (A) (A) (A) (A)
                 (A) (A) (A) (A) (A) (A) (A) (A) (A) (A) (A) (A)
                 (A) (A) (A) (A) (A) (A) (A) (A) (A) (A) (A) (A)
                 (A) (A) (A) (A) (A) (A) (A) (A) (A) (A) (A) (A)
                 (A) (A) (A) (A) (A) (A) (A) (A) (A) (A) (A) (A)
                 (A) (A) (A) (A) (A) (A) (A) (A) (A) (A) (A) (A)
                 (A) (A) (A) (A) (A) (A) (A) (A) (A) (A) (A) (A)
                 (A) (A) (A) (A) (A) (A) (A) (A) (A) (A) (A) (A)
                 (A) (A) (A) (A) (A) (A) (A) (A) (A) (A) (A) (A)
                 (A) (A) (A) (A) (A) (A) (A) (A) (A) (A) (A) (A)
                 (A) (A) (A) (A) (A) (A) (A) (A) (A) (A) (A) (A)
                 (A) (A) (A) (A) (A) (A) (A) (A) (A) (A) (A) (A)
                 (A) (A) (A) (A) (A) (A) (A) (A) (A) (A) (A) (A)
                 (A) (A) (A) (A) (A) (A) (A) (A) (A) (A) (A) (A)
                 (A) (A) (A) (A) (A) (A) (A) (A) (A) (A) (A) (A)
                 (A) (A) (A) (A) (A) (A) (A) (A) (A) (A) (A) (A)
                 (A) (A) (A) (A) (A) (A) (A) (A) (A) (A) (A) (A)
                 (A) (A) (A) (A) (A) (A) (A) (A) (A) (A) (A) (A)
                 (A) (A) (A) (A) (A) (A) (A) (A) (A) (A) (A) (A)
                 (A) (A) (A) (A) (A) (A) (A) (A) (A) (A) (A) (A)
                 (A) (A) (A) (A) (A) (A) (A) (A) (A) (A) (A) (A)
                 (A) (A) (A) (A) (A) (A) (A) (A) (A) (A) (A) (A)
                 (A) (A) (A) (A) (A)
 The electronic state is 1-A.
 Alpha  occ. eigenvalues --  -11.30924 -11.30735 -11.27446 -11.26415 -11.25270
 Alpha  occ. eigenvalues --  -11.25137 -11.24221 -11.23103 -11.22819 -11.22476
 Alpha  occ. eigenvalues --  -11.19295 -11.16420  -1.23847  -1.18775  -1.12335
 Alpha  occ. eigenvalues --   -1.05476  -1.03945  -0.92060  -0.89521  -0.84690
 Alpha  occ. eigenvalues --   -0.83866  -0.73880  -0.71870  -0.65222  -0.63410
 Alpha  occ. eigenvalues --   -0.63095  -0.62641  -0.59858  -0.59602  -0.57229
 Alpha  occ. eigenvalues --   -0.55373  -0.52197  -0.50887  -0.50266  -0.49909
 Alpha  occ. eigenvalues --   -0.46768  -0.45484  -0.39285  -0.34605  -0.31107
 Alpha  occ. eigenvalues --   -0.28438  -0.23218
 Alpha virt. eigenvalues --   -0.02284   0.01777   0.03781   0.04214   0.04796
 Alpha virt. eigenvalues --    0.05317   0.05838   0.06416   0.06744   0.06932
 Alpha virt. eigenvalues --    0.07758   0.09054   0.09596   0.09922   0.10089
 Alpha virt. eigenvalues --    0.11393   0.11655   0.12235   0.13312   0.14077
 Alpha virt. eigenvalues --    0.14336   0.14929   0.15702   0.16495   0.17039
 Alpha virt. eigenvalues --    0.17189   0.17483   0.17777   0.18085   0.18363
 Alpha virt. eigenvalues --    0.19069   0.19160   0.19346   0.19712   0.20368
 Alpha virt. eigenvalues --    0.20783   0.21123   0.21557   0.22076   0.22518
 Alpha virt. eigenvalues --    0.23232   0.23353   0.23612   0.24344   0.24449
 Alpha virt. eigenvalues --    0.24846   0.25334   0.25452   0.25923   0.26898
 Alpha virt. eigenvalues --    0.27500   0.28157   0.29051   0.29205   0.29640
 Alpha virt. eigenvalues --    0.30132   0.30475   0.31053   0.32274   0.32730
 Alpha virt. eigenvalues --    0.33349   0.34586   0.34725   0.35498   0.36206
 Alpha virt. eigenvalues --    0.36578   0.38013   0.39438   0.39894   0.40135
 Alpha virt. eigenvalues --    0.40550   0.40819   0.42588   0.42805   0.43074
 Alpha virt. eigenvalues --    0.44179   0.45311   0.49235   0.49487   0.50323
 Alpha virt. eigenvalues --    0.51015   0.51149   0.51971   0.53379   0.56070
 Alpha virt. eigenvalues --    0.57736   0.60588   0.61320   0.62227   0.63995
 Alpha virt. eigenvalues --    0.65214   0.67197   0.68192   0.68742   0.69773
 Alpha virt. eigenvalues --    0.71629   0.73813   0.74095   0.74557   0.75019
 Alpha virt. eigenvalues --    0.75878   0.77648   0.78094   0.79815   0.80459
 Alpha virt. eigenvalues --    0.81342   0.83455   0.84487   0.85061   0.86632
 Alpha virt. eigenvalues --    0.87044   0.88921   0.89737   0.90326   0.91007
 Alpha virt. eigenvalues --    0.91821   0.91871   0.92968   0.94882   0.95073
 Alpha virt. eigenvalues --    0.95509   0.97021   0.97788   0.99026   1.00112
 Alpha virt. eigenvalues --    1.00446   1.02608   1.03329   1.03758   1.04488
 Alpha virt. eigenvalues --    1.05823   1.06413   1.07678   1.09780   1.10553
 Alpha virt. eigenvalues --    1.12259   1.12895   1.13939   1.14685   1.16366
 Alpha virt. eigenvalues --    1.17740   1.18443   1.21361   1.24146   1.28120
 Alpha virt. eigenvalues --    1.28292   1.30679   1.32788   1.35446   1.36912
 Alpha virt. eigenvalues --    1.38096   1.40583   1.43075   1.44128   1.51573
 Alpha virt. eigenvalues --    1.52961   1.55844   1.57603   1.58456   1.59378
 Alpha virt. eigenvalues --    1.61924   1.63808   1.65908   1.68245   1.69860
 Alpha virt. eigenvalues --    1.71318   1.71565   1.75070   1.75350   1.77375
 Alpha virt. eigenvalues --    1.78709   1.79565   1.80363   1.80913   1.81622
 Alpha virt. eigenvalues --    1.85025   1.86846   1.88020   1.88866   1.89630
 Alpha virt. eigenvalues --    1.93343   1.93951   1.95265   1.97068   1.98054
 Alpha virt. eigenvalues --    1.99321   2.00795   2.00923   2.04824   2.06039
 Alpha virt. eigenvalues --    2.08997   2.09649   2.10163   2.11857   2.13597
 Alpha virt. eigenvalues --    2.15266   2.16073   2.17977   2.18559   2.19975
 Alpha virt. eigenvalues --    2.21334   2.22795   2.23769   2.24570   2.26520
 Alpha virt. eigenvalues --    2.27912   2.29050   2.30707   2.32202   2.32776
 Alpha virt. eigenvalues --    2.34835   2.34985   2.35831   2.39531   2.42259
 Alpha virt. eigenvalues --    2.46260   2.50121   2.52731   2.56671   2.60820
 Alpha virt. eigenvalues --    2.63133   2.64162   2.67151   2.70425   2.71485
 Alpha virt. eigenvalues --    2.75600   2.77262   2.80296   2.81688   2.82011
 Alpha virt. eigenvalues --    2.82704   2.84796   2.85886   2.90246   2.92929
 Alpha virt. eigenvalues --    2.93881   2.94630   2.95981   2.96767   2.99257
 Alpha virt. eigenvalues --    3.02770   3.04128   3.05762   3.07841   3.09481
 Alpha virt. eigenvalues --    3.10946   3.12865   3.14658   3.17428   3.18735
 Alpha virt. eigenvalues --    3.19678   3.20176   3.22456   3.23674   3.26949
 Alpha virt. eigenvalues --    3.28567   3.29901   3.30688   3.32914   3.33353
 Alpha virt. eigenvalues --    3.36014   3.36458   3.39101   3.44146   3.47676
 Alpha virt. eigenvalues --    3.51010   3.57593   3.61349   3.64278   3.65582
 Alpha virt. eigenvalues --    3.73067   3.76663   3.78366   3.79680   3.85419
 Alpha virt. eigenvalues --    3.94046   3.96602   4.00017   4.01879   4.03608
 Alpha virt. eigenvalues --    4.04757   4.11554   4.18917   4.32862   4.35188
 Alpha virt. eigenvalues --    4.43480   4.46333   4.47889   4.54779   4.59504
 Alpha virt. eigenvalues --    4.65484   4.72193   5.34124  24.77212  24.81432
 Alpha virt. eigenvalues --   24.82087  25.07454  25.19647  25.21966  25.25818
 Alpha virt. eigenvalues --   25.28211  25.34102  25.36915  26.25362  26.69585
          Condensed to atoms (all electrons):
               1          2          3          4          5          6
     1  C    7.573664  -0.147029  -0.892007   1.273335  -0.792074  -0.002145
     2  C   -0.147029   7.042696  -1.014760   0.045977   1.117486  -1.513397
     3  C   -0.892007  -1.014760   8.291345  -0.826826  -1.205211   1.687365
     4  C    1.273335   0.045977  -0.826826   6.907204  -0.349625  -1.030088
     5  C   -0.792074   1.117486  -1.205211  -0.349625   7.583086  -0.461625
     6  C   -0.002145  -1.513397   1.687365  -1.030088  -0.461625   7.906074
     7  H    0.551191  -0.075973  -0.030278   0.034061  -0.034336  -0.048927
     8  H   -0.072804   0.572810  -0.133451   0.021385   0.029994  -0.095456
     9  H   -0.051901  -0.108060   0.616897  -0.136257  -0.034270   0.059829
    10  H    0.029551   0.032556  -0.121119   0.526834  -0.051604  -0.073283
    11  H   -0.035499   0.049061  -0.074943  -0.055158   0.556619  -0.096730
    12  H    0.040107  -0.055273  -0.006606  -0.011443   0.000059   0.490460
    13  C   -1.961646  -1.503598   2.696861  -1.335120  -0.922636   1.744788
    14  C   -0.669470   0.974473  -0.582781  -0.567242   1.332210  -0.493213
    15  C   -0.005924  -0.133830   0.242877   0.307037  -0.445050  -0.045403
    16  C    0.010808   0.105461  -0.260628  -0.216365   0.449883   0.044205
    17  C    0.103187  -0.295737   0.473227  -0.137003  -0.534375   0.667475
    18  C    2.154762   0.841696  -2.528696   1.812700   0.224305  -2.513318
    19  H    0.180017  -0.066804  -0.277687  -0.001649   0.198235  -0.074530
    20  H    0.019894   0.045021  -0.078106   0.000315   0.040163  -0.015474
    21  H   -0.001813   0.002579   0.000768  -0.009421   0.003257   0.000489
    22  H    0.000931  -0.001886   0.000722   0.005843  -0.004463   0.001189
    23  H    0.003316   0.000311   0.001463  -0.009004   0.004664  -0.001911
    24  H   -0.680798   0.263087   0.411705   0.017716  -0.685681  -0.179362
               7          8          9         10         11         12
     1  C    0.551191  -0.072804  -0.051901   0.029551  -0.035499   0.040107
     2  C   -0.075973   0.572810  -0.108060   0.032556   0.049061  -0.055273
     3  C   -0.030278  -0.133451   0.616897  -0.121119  -0.074943  -0.006606
     4  C    0.034061   0.021385  -0.136257   0.526834  -0.055158  -0.011443
     5  C   -0.034336   0.029994  -0.034270  -0.051604   0.556619   0.000059
     6  C   -0.048927  -0.095456   0.059829  -0.073283  -0.096730   0.490460
     7  H    0.438915  -0.001734  -0.000228   0.000684  -0.001273   0.001665
     8  H   -0.001734   0.467130  -0.007355   0.002484   0.001690  -0.003900
     9  H   -0.000228  -0.007355   0.482561  -0.006556  -0.002562  -0.000710
    10  H    0.000684   0.002484  -0.006556   0.478827   0.000730  -0.003188
    11  H   -0.001273   0.001690  -0.002562   0.000730   0.455018   0.000084
    12  H    0.001665  -0.003900  -0.000710  -0.003188   0.000084   0.456845
    13  C   -0.074337  -0.095689   0.066499  -0.110834  -0.012676   0.098637
    14  C    0.025288   0.028288   0.028058   0.035838   0.029008  -0.069418
    15  C   -0.002856  -0.001439   0.005659   0.019100   0.003954  -0.001301
    16  C   -0.000136   0.000254  -0.018002  -0.032835   0.016527   0.009786
    17  C    0.012818  -0.010168   0.021934   0.025785  -0.091112   0.011349
    18  C    0.031057   0.077850  -0.098195   0.048586   0.040332  -0.045176
    19  H   -0.043572  -0.025952  -0.019987  -0.017721   0.005689   0.075127
    20  H    0.002685   0.001640  -0.001990   0.001073  -0.000211  -0.002570
    21  H   -0.000069   0.000186   0.000069  -0.000033   0.000011  -0.000028
    22  H    0.000033  -0.000063   0.000189   0.001189  -0.001211   0.000037
    23  H    0.000231  -0.000031   0.000420   0.000294  -0.001897  -0.001170
    24  H   -0.006154   0.031305   0.018414   0.019490  -0.002161  -0.244833
              13         14         15         16         17         18
     1  C   -1.961646  -0.669470  -0.005924   0.010808   0.103187   2.154762
     2  C   -1.503598   0.974473  -0.133830   0.105461  -0.295737   0.841696
     3  C    2.696861  -0.582781   0.242877  -0.260628   0.473227  -2.528696
     4  C   -1.335120  -0.567242   0.307037  -0.216365  -0.137003   1.812700
     5  C   -0.922636   1.332210  -0.445050   0.449883  -0.534375   0.224305
     6  C    1.744788  -0.493213  -0.045403   0.044205   0.667475  -2.513318
     7  H   -0.074337   0.025288  -0.002856  -0.000136   0.012818   0.031057
     8  H   -0.095689   0.028288  -0.001439   0.000254  -0.010168   0.077850
     9  H    0.066499   0.028058   0.005659  -0.018002   0.021934  -0.098195
    10  H   -0.110834   0.035838   0.019100  -0.032835   0.025785   0.048586
    11  H   -0.012676   0.029008   0.003954   0.016527  -0.091112   0.040332
    12  H    0.098637  -0.069418  -0.001301   0.009786   0.011349  -0.045176
    13  C   26.103151  -8.127096   4.405407  -3.362410   0.687484 -12.381210
    14  C   -8.127096  13.175888  -2.756358   1.631141   0.534280   1.088191
    15  C    4.405407  -2.756358  12.790071  -6.498399   0.309145  -1.889032
    16  C   -3.362410   1.631141  -6.498399  12.516186  -1.217227   2.450996
    17  C    0.687484   0.534280   0.309145  -1.217227   9.137884  -3.517822
    18  C  -12.381210   1.088191  -1.889032   2.450996  -3.517822  20.330564
    19  H    2.258385  -1.315472   0.283240  -0.092889  -0.194104  -0.526850
    20  H   -0.571012   0.651535  -0.167225   0.098883   0.032980   0.212315
    21  H   -0.053606  -0.028516   0.060429   0.202554   0.010442   0.040303
    22  H    0.024410   0.013964   0.353081  -0.213076   0.063316  -0.042988
    23  H    0.017760   0.020761  -0.072122  -0.010603   0.357602  -0.040610
    24  H   -1.374918   0.865059  -0.064218  -0.051871  -0.106267   0.547174
              19         20         21         22         23         24
     1  C    0.180017   0.019894  -0.001813   0.000931   0.003316  -0.680798
     2  C   -0.066804   0.045021   0.002579  -0.001886   0.000311   0.263087
     3  C   -0.277687  -0.078106   0.000768   0.000722   0.001463   0.411705
     4  C   -0.001649   0.000315  -0.009421   0.005843  -0.009004   0.017716
     5  C    0.198235   0.040163   0.003257  -0.004463   0.004664  -0.685681
     6  C   -0.074530  -0.015474   0.000489   0.001189  -0.001911  -0.179362
     7  H   -0.043572   0.002685  -0.000069   0.000033   0.000231  -0.006154
     8  H   -0.025952   0.001640   0.000186  -0.000063  -0.000031   0.031305
     9  H   -0.019987  -0.001990   0.000069   0.000189   0.000420   0.018414
    10  H   -0.017721   0.001073  -0.000033   0.001189   0.000294   0.019490
    11  H    0.005689  -0.000211   0.000011  -0.001211  -0.001897  -0.002161
    12  H    0.075127  -0.002570  -0.000028   0.000037  -0.001170  -0.244833
    13  C    2.258385  -0.571012  -0.053606   0.024410   0.017760  -1.374918
    14  C   -1.315472   0.651535  -0.028516   0.013964   0.020761   0.865059
    15  C    0.283240  -0.167225   0.060429   0.353081  -0.072122  -0.064218
    16  C   -0.092889   0.098883   0.202554  -0.213076  -0.010603  -0.051871
    17  C   -0.194104   0.032980   0.010442   0.063316   0.357602  -0.106267
    18  C   -0.526850   0.212315   0.040303  -0.042988  -0.040610   0.547174
    19  H    1.484409  -0.088528  -0.002803  -0.000454  -0.002565  -0.984504
    20  H   -0.088528   0.541382   0.004875  -0.000007   0.001222   0.036835
    21  H   -0.002803   0.004875   0.761673  -0.094500  -0.000434   0.003301
    22  H   -0.000454  -0.000007  -0.094500   0.812889   0.014166  -0.002055
    23  H   -0.002565   0.001222  -0.000434   0.014166   0.492304   0.004179
    24  H   -0.984504   0.036835   0.003301  -0.002055   0.004179   2.932650
 Mulliken charges:
               1
     1  C   -0.627655
     2  C   -0.176867
     3  C   -0.390131
     4  C   -0.267205
     5  C   -0.019012
     6  C    0.042989
     7  H    0.221244
     8  H    0.213024
     9  H    0.185544
    10  H    0.194155
    11  H    0.216708
    12  H    0.261459
    13  C   -0.216593
    14  C    0.175586
    15  C   -0.696844
    16  C    0.437759
    17  C   -0.345092
    18  C   -0.316933
    19  H    0.250971
    20  H    0.234303
    21  H    0.100287
    22  H    0.068743
    23  H    0.221654
    24  H    0.231905
 Sum of Mulliken charges =   0.00000
 Mulliken charges with hydrogens summed into heavy atoms:
               1
     1  C   -0.406412
     2  C    0.036157
     3  C   -0.204586
     4  C   -0.073050
     5  C    0.197696
     6  C    0.304447
    13  C    0.034378
    14  C    0.409890
    15  C   -0.596557
    16  C    0.506502
    17  C   -0.123438
    18  C   -0.085028
 Electronic spatial extent (au):  <R**2>=           1864.8313
 Charge=              0.0000 electrons
 Dipole moment (field-independent basis, Debye):
    X=              0.8042    Y=             -0.6923    Z=              0.1972  Tot=              1.0793
 Quadrupole moment (field-independent basis, Debye-Ang):
   XX=            -74.3898   YY=            -70.4853   ZZ=            -76.2639
   XY=             -2.1963   XZ=             -7.7646   YZ=              0.7634
 Traceless Quadrupole moment (field-independent basis, Debye-Ang):
   XX=             -0.6768   YY=              3.2277   ZZ=             -2.5509
   XY=             -2.1963   XZ=             -7.7646   YZ=              0.7634
 Octapole moment (field-independent basis, Debye-Ang**2):
  XXX=             20.9361  YYY=             -1.0606  ZZZ=              3.4025  XYY=              7.4757
  XXY=             -5.3390  XXZ=            -13.0263  XZZ=              5.2164  YZZ=             -1.9962
  YYZ=              5.1116  XYZ=              2.9548
 Hexadecapole moment (field-independent basis, Debye-Ang**3):
 XXXX=          -1945.3966 YYYY=           -531.1637 ZZZZ=           -440.2146 XXXY=             22.1959
 XXXZ=            -57.6930 YYYX=            -22.5431 YYYZ=              3.3202 ZZZX=            -18.7758
 ZZZY=             -1.6892 XXYY=           -363.3914 XXZZ=           -386.8075 YYZZ=           -166.3578
 XXYZ=            -25.9736 YYXZ=            -18.0712 ZZXY=             -2.4228
 N-N= 6.575310201916D+02 E-N=-2.388894150594D+03  KE= 4.637851914824D+02
 Calling FoFJK, ICntrl=      2127 FMM=F ISym2X=0 I1Cent= 0 IOpClX= 0 NMat=1 NMatS=1 NMatT=0.
 ***** Axes restored to original set *****
 -------------------------------------------------------------------
 Center     Atomic                   Forces (Hartrees/Bohr)
 Number     Number              X              Y              Z
 -------------------------------------------------------------------
      1        6          -0.058181827   -0.084585174    0.034242595
      2        6          -0.025156731   -0.035895298   -0.014869855
      3        6           0.027401134    0.002338626    0.032154270
      4        6           0.002895662   -0.025891550   -0.001070100
      5        6           0.072511726    0.000344632    0.036591781
      6        6          -0.032201318   -0.001614681   -0.065082474
      7        1           0.014588458    0.000782722    0.008999711
      8        1           0.013546698    0.002205763   -0.009545323
      9        1          -0.000566118   -0.000761123   -0.017794892
     10        1          -0.015265197    0.000444453   -0.008693096
     11        1          -0.017350609   -0.004493107    0.009542132
     12        1          -0.000255276   -0.022949041    0.016413368
     13        6          -0.152847460    0.105779851    0.277239957
     14        6          -0.033132194    0.046221024    0.036625884
     15        6          -1.423606667    0.446291617    0.922549356
     16        6           1.422809025   -0.463822716   -0.835221382
     17        6           0.084419340    0.026654679    0.065139403
     18        6           0.223555845   -0.055783500   -0.315632191
     19        1          -0.009776132    0.060485005    0.026316667
     20        1           0.023236854    0.036387710    0.033014806
     21        1          -0.040315208   -0.020584848   -0.085873803
     22        1          -0.050537232   -0.028978193   -0.039920304
     23        1          -0.003105448    0.008750110   -0.008443454
     24        1          -0.022667325    0.008673035   -0.096683054
 -------------------------------------------------------------------
 Cartesian Forces:  Max     1.423606667 RMS     0.297146961

 GradGradGradGradGradGradGradGradGradGradGradGradGradGradGradGradGradGrad
 Berny optimization.
 FormGI is forming the generalized inverse of G from B-inverse, IUseBI=4.
 Internal  Forces:  Max     1.637679360 RMS     0.163149212
 Search for a local minimum.
 Step number   1 out of a maximum of  132
 All quantities printed in internal units (Hartrees-Bohrs-Radians)
 Mixed Optimization -- RFO/linear search
 Second derivative matrix not updated -- first step.
 ITU=  0
     Eigenvalues ---    0.00230   0.00230   0.00262   0.00716   0.01001
     Eigenvalues ---    0.01258   0.02152   0.02153   0.02154   0.02155
     Eigenvalues ---    0.02155   0.02155   0.02156   0.02157   0.02855
     Eigenvalues ---    0.03512   0.03670   0.03963   0.04243   0.04893
     Eigenvalues ---    0.05514   0.06017   0.07408   0.07866   0.08372
     Eigenvalues ---    0.10718   0.10771   0.12184   0.13854   0.15076
     Eigenvalues ---    0.15645   0.15801   0.16000   0.16000   0.16000
     Eigenvalues ---    0.16000   0.16000   0.16000   0.18869   0.20982
     Eigenvalues ---    0.21627   0.21682   0.22000   0.22000   0.24320
     Eigenvalues ---    0.25000   0.25529   0.25844   0.31446   0.33709
     Eigenvalues ---    0.33709   0.33718   0.33718   0.33720   0.33720
     Eigenvalues ---    0.33725   0.33726   0.41504   0.42116   0.46412
     Eigenvalues ---    0.46453   0.46466   0.46497   0.55202   1.22665
     Eigenvalues ---    6.22502
 RFO step:  Lambda=-7.66671741D-01 EMin= 2.30000000D-03
 Linear search not attempted -- first point.
 Maximum step size (   0.300) exceeded in Quadratic search.
    -- Step size scaled by   0.540
 Iteration  1 RMS(Cart)=  0.15079286 RMS(Int)=  0.00429569
 Iteration  2 RMS(Cart)=  0.00897537 RMS(Int)=  0.00021516
 Iteration  3 RMS(Cart)=  0.00004494 RMS(Int)=  0.00021441
 Iteration  4 RMS(Cart)=  0.00000001 RMS(Int)=  0.00021441
 Variable       Old X    -DE/DX   Delta X   Delta X   Delta X     New X
                                 (Linear)    (Quad)   (Total)
    R1        2.63647  -0.00994   0.00000  -0.00432  -0.00431   2.63216
    R2        2.63584   0.04753   0.00000   0.02126   0.02131   2.65715
    R3        2.07796  -0.01713   0.00000  -0.00838  -0.00838   2.06958
    R4        2.63562   0.02411   0.00000   0.01019   0.01014   2.64577
    R5        2.07805  -0.01650   0.00000  -0.00807  -0.00807   2.06998
    R6        2.63697  -0.00643   0.00000  -0.00325  -0.00330   2.63368
    R7        2.07809  -0.01780   0.00000  -0.00870  -0.00870   2.06939
    R8        2.63584  -0.00989   0.00000  -0.00438  -0.00438   2.63145
    R9        2.07809  -0.01757   0.00000  -0.00859  -0.00859   2.06950
   R10        2.63643   0.06158   0.00000   0.02739   0.02743   2.66386
   R11        2.07825  -0.01979   0.00000  -0.00968  -0.00968   2.06857
   R12        2.07795  -0.01641   0.00000  -0.00802  -0.00802   2.06993
   R13        2.24581   0.16596   0.00000   0.08767   0.08767   2.33348
   R14        2.53067   0.04348   0.00000   0.01960   0.01944   2.55011
   R15        2.19367   0.50563   0.00000   0.12208   0.12214   2.31581
   R16        2.11870  -0.03206   0.00000  -0.01601  -0.01601   2.10269
   R17        4.13234  -0.13447   0.00000  -0.06054  -0.06078   4.07155
   R18        2.07805  -0.00359   0.00000  -0.00175  -0.00175   2.07629
   R19        1.72917   1.63768   0.00000   0.12589   0.12586   1.85503
   R20        3.21259  -0.09302   0.00000  -0.05973  -0.05973   3.15286
   R21        3.00442  -0.04296   0.00000  -0.02030  -0.02014   2.98428
   R22        3.63671  -0.06905   0.00000  -0.04571  -0.04571   3.59100
   R23        4.17461   0.11784   0.00000   0.04650   0.04670   4.22131
   R24        2.07825   0.00153   0.00000   0.00075   0.00075   2.07899
   R25        2.23809   0.16115   0.00000   0.08487   0.08487   2.32296
    A1        2.09437  -0.00407   0.00000  -0.00158  -0.00148   2.09288
    A2        2.09435   0.00151   0.00000   0.00048   0.00044   2.09478
    A3        2.09447   0.00255   0.00000   0.00109   0.00104   2.09551
    A4        2.09455   0.00910   0.00000   0.00461   0.00461   2.09915
    A5        2.09406  -0.00612   0.00000  -0.00322  -0.00322   2.09084
    A6        2.09458  -0.00299   0.00000  -0.00139  -0.00139   2.09319
    A7        2.09429   0.00275   0.00000   0.00054   0.00047   2.09476
    A8        2.09462  -0.00196   0.00000  -0.00061  -0.00059   2.09403
    A9        2.09427  -0.00079   0.00000   0.00007   0.00009   2.09436
   A10        2.09429   0.00859   0.00000   0.00416   0.00413   2.09842
   A11        2.09407  -0.00440   0.00000  -0.00214  -0.00214   2.09192
   A12        2.09483  -0.00418   0.00000  -0.00201  -0.00202   2.09281
   A13        2.09448   0.00004   0.00000   0.00050   0.00057   2.09505
   A14        2.09459   0.00042   0.00000   0.00000  -0.00005   2.09454
   A15        2.09411  -0.00046   0.00000  -0.00050  -0.00056   2.09356
   A16        2.09440  -0.01643   0.00000  -0.00824  -0.00849   2.08590
   A17        2.09453   0.00755   0.00000   0.00393   0.00396   2.09850
   A18        1.45000   0.12009   0.00000   0.07560   0.07565   1.52565
   A19        2.09426   0.00885   0.00000   0.00430   0.00391   2.09817
   A20        1.67901  -0.01972   0.00000  -0.01028  -0.00999   1.66902
   A21        1.58370  -0.05259   0.00000  -0.03296  -0.03305   1.55065
   A22        2.06865   0.15447   0.00000   0.04628   0.04598   2.11463
   A23        2.09566  -0.10882   0.00000  -0.04918  -0.04936   2.04630
   A24        2.04853  -0.02805   0.00000   0.01145   0.01165   2.06018
   A25        2.22780  -0.02915   0.00000  -0.00561  -0.00612   2.22168
   A26        1.75628   0.07743   0.00000   0.03622   0.03646   1.79274
   A27        2.26961  -0.04844   0.00000  -0.02984  -0.02958   2.24003
   A28        2.05939  -0.12048   0.00000  -0.00587  -0.00616   2.05323
   A29        2.01022   0.01236   0.00000  -0.01510  -0.01491   1.99531
   A30        1.98048   0.10531   0.00000   0.03093   0.03099   2.01147
   A31        2.05295  -0.06057   0.00000   0.01261   0.01258   2.06553
   A32        1.99670   0.05598   0.00000   0.00868   0.00868   2.00537
   A33        2.23351   0.00471   0.00000  -0.02123  -0.02123   2.21228
   A34        2.09708   0.05339   0.00000   0.01128   0.01147   2.10855
   A35        1.89394  -0.02711   0.00000  -0.00640  -0.00657   1.88738
   A36        2.28079  -0.02863   0.00000  -0.00701  -0.00711   2.27369
   A37        1.96540  -0.00501   0.00000  -0.05460  -0.05371   1.91170
   A38        1.38749   0.09652   0.00000   0.09465   0.09513   1.48262
   A39        2.72017  -0.10406   0.00000  -0.03897  -0.03910   2.68107
   A40        2.26095  -0.02400   0.00000  -0.01274  -0.01274   2.24820
    D1        0.00056  -0.00217   0.00000  -0.00147  -0.00149  -0.00092
    D2        3.14078  -0.00464   0.00000  -0.00291  -0.00294   3.13783
    D3       -3.14112  -0.00599   0.00000  -0.00452  -0.00452   3.13755
    D4       -0.00091  -0.00846   0.00000  -0.00597  -0.00597  -0.00688
    D5        0.00026   0.02501   0.00000   0.01623   0.01614   0.01640
    D6        3.14140  -0.03008   0.00000  -0.02104  -0.02106   3.12034
    D7       -1.62611  -0.02224   0.00000  -0.01580  -0.01563  -1.64174
    D8       -3.14124   0.02883   0.00000   0.01928   0.01917  -3.12207
    D9       -0.00010  -0.02627   0.00000  -0.01798  -0.01803  -0.01813
   D10        1.51557  -0.01843   0.00000  -0.01275  -0.01260   1.50298
   D11       -0.00099  -0.01301   0.00000  -0.00847  -0.00850  -0.00950
   D12        3.14093  -0.00103   0.00000  -0.00057  -0.00059   3.14033
   D13       -3.14120  -0.01053   0.00000  -0.00702  -0.00704   3.13494
   D14        0.00072   0.00144   0.00000   0.00088   0.00087   0.00158
   D15        0.00060   0.00532   0.00000   0.00363   0.00362   0.00421
   D16       -3.14153   0.01767   0.00000   0.01153   0.01155  -3.12998
   D17       -3.14132  -0.00665   0.00000  -0.00426  -0.00429   3.13757
   D18       -0.00026   0.00570   0.00000   0.00364   0.00364   0.00338
   D19        0.00023   0.01752   0.00000   0.01113   0.01117   0.01139
   D20       -3.14158   0.03132   0.00000   0.02039   0.02043  -3.12115
   D21       -3.14083   0.00517   0.00000   0.00323   0.00323  -3.13760
   D22        0.00054   0.01898   0.00000   0.01249   0.01250   0.01304
   D23       -0.00066  -0.03269   0.00000  -0.02106  -0.02100  -0.02166
   D24        3.14138   0.02240   0.00000   0.01620   0.01619  -3.12561
   D25        1.49282   0.09388   0.00000   0.05997   0.05999   1.55281
   D26        3.14116  -0.04649   0.00000  -0.03032  -0.03027   3.11089
   D27        0.00001   0.00860   0.00000   0.00694   0.00692   0.00694
   D28       -1.64855   0.08008   0.00000   0.05071   0.05073  -1.59783
   D29        2.31743  -0.00012   0.00000   0.00124   0.00172   2.31915
   D30        0.23058   0.00818   0.00000   0.00452   0.00445   0.23504
   D31       -1.86874   0.00781   0.00000   0.00538   0.00497  -1.86377
   D32        0.17322   0.00582   0.00000  -0.01396  -0.01379   0.15942
   D33        3.07485   0.00108   0.00000  -0.01427  -0.01401   3.06084
   D34        2.91059   0.04852   0.00000   0.01243   0.01194   2.92253
   D35       -0.47096   0.04379   0.00000   0.01212   0.01172  -0.45924
   D36        0.08887   0.05695   0.00000   0.00585   0.00570   0.09457
   D37        2.84898  -0.00836   0.00000  -0.00869  -0.00816   2.84082
   D38       -2.65938   0.03565   0.00000  -0.00547  -0.00625  -2.66563
   D39        0.10073  -0.02967   0.00000  -0.02001  -0.02011   0.08062
   D40       -0.53940   0.05254   0.00000   0.02333   0.02315  -0.51625
   D41       -2.95574   0.01147   0.00000  -0.00240  -0.00252  -2.95826
   D42        2.91224   0.04104   0.00000   0.01353   0.01346   2.92570
   D43        0.49590  -0.00002   0.00000  -0.01221  -0.01221   0.48369
   D44        0.35322   0.01045   0.00000   0.00130   0.00102   0.35424
   D45       -2.78134  -0.00492   0.00000  -0.00721  -0.00757  -2.78891
   D46        2.78133   0.01600   0.00000   0.00866   0.00860   2.78993
   D47       -0.35322   0.00063   0.00000   0.00015   0.00000  -0.35322
   D48       -0.11041  -0.00433   0.00000  -0.00173  -0.00185  -0.11226
   D49        2.88643  -0.02258   0.00000  -0.01597  -0.01608   2.87034
   D50        3.02306   0.01360   0.00000   0.00827   0.00804   3.03110
   D51       -0.26329  -0.00466   0.00000  -0.00597  -0.00619  -0.26949
   D52       -0.23088   0.02850   0.00000   0.01356   0.01354  -0.21735
   D53       -2.26430  -0.07461   0.00000  -0.05290  -0.05302  -2.31732
   D54        3.09208   0.04861   0.00000   0.03076   0.03066   3.12274
   D55        1.05866  -0.05450   0.00000  -0.03570  -0.03590   1.02276
   D56       -2.02401  -0.14550   0.00000  -0.08724  -0.08655  -2.11055
   D57        0.11995  -0.04133   0.00000  -0.04393  -0.04462   0.07534
         Item               Value     Threshold  Converged?
 Maximum Force            1.637679     0.000450     NO 
 RMS     Force            0.163149     0.000300     NO 
 Maximum Displacement     0.759161     0.001800     NO 
 RMS     Displacement     0.156473     0.001200     NO 
 Predicted change in Energy=-3.473481D-01
 GradGradGradGradGradGradGradGradGradGradGradGradGradGradGradGradGradGrad

                          Input orientation:                          
 ---------------------------------------------------------------------
 Center     Atomic      Atomic             Coordinates (Angstroms)
 Number     Number       Type             X           Y           Z
 ---------------------------------------------------------------------
      1          6           0       -0.016903   -0.144807   -0.011929
      2          6           0       -0.007593   -0.224505    1.378636
      3          6           0        1.203672   -0.185504    2.079735
      4          6           0        2.407682   -0.077931    1.386092
      5          6           0        2.411515   -0.003807   -0.004434
      6          6           0        1.194484   -0.023546   -0.715469
      7          1           0       -0.966496   -0.179528   -0.556428
      8          1           0       -0.952642   -0.315371    1.924981
      9          1           0        1.205314   -0.247340    3.173061
     10          1           0        3.354210   -0.058647    1.936573
     11          1           0        3.360232    0.061284   -0.546589
     12          1           0        1.194738    0.019504   -1.809980
     13          6           0        1.005917    2.378465    0.472016
     14          6           0        1.352553    3.154211    1.520401
     15          6           0        3.193559    4.241131    1.787771
     16          6           0        4.003642    3.873984    1.372336
     17          6           0        3.837499    2.848408    0.183010
     18          6           0        1.819625    2.084963   -0.396042
     19          1           0        0.113483    1.725318    0.594716
     20          1           0        0.397489    3.291410    2.045976
     21          1           0        3.402289    4.873458    3.317552
     22          1           0        5.637307    4.500870    2.113414
     23          1           0        4.805279    2.762807   -0.333147
     24          1           0        1.020881    1.198793   -0.692330
 ---------------------------------------------------------------------
                    Distance matrix (angstroms):
                    1          2          3          4          5
     1  C    0.000000
     2  C    1.392878   0.000000
     3  C    2.422090   1.400079   0.000000
     4  C    2.799562   2.419729   1.393683   0.000000
     5  C    2.432520   2.795295   2.415711   1.392505   0.000000
     6  C    1.406106   2.422943   2.799907   2.427213   1.409654
     7  H    1.095176   2.160091   3.414531   3.894712   3.427322
     8  H    2.157850   1.095385   2.165758   3.411533   3.890664
     9  H    3.412988   2.166016   1.095075   2.160474   3.407448
    10  H    3.894675   3.411821   2.159028   1.095134   2.158515
    11  H    3.425402   3.889783   3.407232   2.159163   1.094638
    12  H    2.174410   3.416491   3.895124   3.419883   2.177404
    13  C    2.765369   2.936770   3.032788   2.972265   2.806766
    14  C    3.886767   3.644971   3.389501   3.402657   3.663277
    15  C    5.725594   5.509688   4.862097   4.408315   4.673659
    16  C    5.850782   5.734776   4.981936   4.262031   4.412214
    17  C    4.884031   5.065279   4.442886   3.472067   3.194323
    18  C    2.914147   3.438292   3.415244   2.863550   2.206049
    19  H    1.970376   2.104994   2.654248   3.023463   2.937653
    20  H    4.026696   3.601541   3.569314   3.978540   4.372521
    21  H    6.925265   6.432412   5.653247   5.407036   5.983723
    22  H    7.620334   7.398241   6.451384   5.650212   5.931537
    23  H    5.640110   5.917598   5.242719   4.095613   3.673188
    24  H    1.828989   2.715223   3.103874   2.805900   1.962985
                    6          7          8          9         10
     6  C    0.000000
     7  H    2.172432   0.000000
     8  H    3.415741   2.485163   0.000000
     9  H    3.894980   4.316300   2.493814   0.000000
    10  H    3.420376   4.989807   4.314513   2.486416   0.000000
    11  H    2.173978   4.333435   4.985119   4.309839   2.486064
    12  H    1.095357   2.506379   4.321263   4.990192   4.325054
    13  C    2.686138   3.389902   3.633705   3.772300   3.687672
    14  C    3.888733   4.561252   4.185165   3.784641   3.808187
    15  C    5.333852   6.507192   6.162103   5.100834   4.305350
    16  C    5.238420   6.697265   6.513130   5.297033   4.025632
    17  C    4.005111   5.726564   5.999118   5.045043   3.429216
    18  C    2.222307   3.593900   4.339841   4.307611   3.520100
    19  H    2.437965   2.473848   2.659067   3.425103   3.935152
    20  H    4.387450   4.547568   3.853098   3.800744   4.469570
    21  H    6.717166   7.721831   6.915825   5.574060   5.122019
    22  H    6.943458   8.523168   8.164504   6.581102   5.102254
    23  H    4.576874   6.482328   6.908544   5.857834   3.901003
    24  H    1.234823   2.422376   3.610790   4.131169   3.733190
                   11         12         13         14         15
    11  H    0.000000
    12  H    2.507442   0.000000
    13  C    3.456831   3.287531   0.000000
    14  C    4.227223   4.576323   1.349462   0.000000
    15  C    4.790421   5.895865   3.160144   2.154572   0.000000
    16  C    4.316588   5.733594   3.468935   2.751049   0.981640
    17  C    2.920301   4.354181   2.884828   2.838501   2.220269
    18  C    2.547824   2.579889   1.225475   2.243702   3.362408
    19  H    3.822690   3.140299   1.112697   2.105688   4.152055
    20  H    5.092441   5.119509   1.918594   1.098727   2.964228
    21  H    6.171740   7.397685   4.479360   3.222884   1.668424
    22  H    5.654256   7.430484   5.352436   4.530372   2.478995
    23  H    3.071147   4.768937   3.902712   3.938293   3.046535
    24  H    2.605326   1.634041   1.657574   2.971505   4.486340
                   16         17         18         19         20
    16  C    0.000000
    17  C    1.579211   0.000000
    18  C    3.331319   2.233822   0.000000
    19  H    4.511629   3.911410   2.005459   0.000000
    20  H    3.714502   3.937076   3.072692   2.153941   0.000000
    21  H    2.268135   3.757072   4.906252   5.304797   3.626101
    22  H    1.900275   3.113905   5.168043   6.365750   5.378014
    23  H    2.187695   1.100156   3.062279   4.893901   5.036692
    24  H    4.507367   3.379465   1.229259   1.660448   3.502283
                   21         22         23         24
    21  H    0.000000
    22  H    2.565945   0.000000
    23  H    4.444191   3.114289   0.000000
    24  H    5.937459   6.331454   4.110574   0.000000
 Stoichiometry    C12H12
 Framework group  C1[X(C12H12)]
 Deg. of freedom    66
 Full point group                 C1      NOp   1
 Largest Abelian subgroup         C1      NOp   1
 Largest concise Abelian subgroup C1      NOp   1
                         Standard orientation:                         
 ---------------------------------------------------------------------
 Center     Atomic      Atomic             Coordinates (Angstroms)
 Number     Number       Type             X           Y           Z
 ---------------------------------------------------------------------
      1          6           0        2.526883   -0.053638   -0.684122
      2          6           0        2.364013   -1.083866    0.239032
      3          6           0        1.517090   -0.916536    1.341277
      4          6           0        0.841382    0.288483    1.524857
      5          6           0        1.001051    1.327942    0.612113
      6          6           0        1.837538    1.159458   -0.509950
      7          1           0        3.193335   -0.187582   -1.542791
      8          1           0        2.899218   -2.029368    0.099571
      9          1           0        1.391676   -1.730113    2.063463
     10          1           0        0.188078    0.420346    2.393835
     11          1           0        0.483612    2.279538    0.770082
     12          1           0        1.977027    1.980243   -1.221753
     13          6           0       -0.158040   -0.518747   -1.155422
     14          6           0       -1.145200   -1.327118   -0.715992
     15          6           0       -3.125469   -0.749776   -0.093584
     16          6           0       -3.237570    0.143528    0.297644
     17          6           0       -2.133635    1.234198    0.004941
     18          6           0       -0.259058    0.700611   -1.086485
     19          1           0        0.862532   -0.955621   -1.230699
     20          1           0       -0.782834   -2.325768   -0.996333
     21          1           0       -3.994530   -1.965661    0.648032
     22          1           0       -4.805527    0.365974    1.347916
     23          1           0       -2.546059    2.218883    0.270729
     24          1           0        0.959556    0.701900   -1.247903
 ---------------------------------------------------------------------
 Rotational constants (GHZ):      1.8584982      0.6812792      0.6556563
 Standard basis: 6-311++G(d,p) (5D, 7F)
 There are   360 symmetry adapted cartesian basis functions of A   symmetry.
 There are   348 symmetry adapted basis functions of A   symmetry.
   348 basis functions,   540 primitive gaussians,   360 cartesian basis functions
    42 alpha electrons       42 beta electrons
       nuclear repulsion energy       638.6753217681 Hartrees.
 NAtoms=   24 NActive=   24 NUniq=   24 SFac= 1.00D+00 NAtFMM=   60 NAOKFM=F Big=F
 Integral buffers will be    131072 words long.
 Raffenetti 1 integral format.
 Two-electron integral symmetry is turned on.
 One-electron integrals computed using PRISM.
 NBasis=   348 RedAO= T EigKep=  2.27D-06  NBF=   348
 NBsUse=   347 1.00D-06 EigRej=  5.51D-07 NBFU=   347
 Initial guess from the checkpoint file:  "benz-test2.chk"
 B after Tr=     0.000000    0.000000    0.000000
         Rot=    0.996637    0.080254   -0.016283    0.002917 Ang=   9.40 deg.
 ExpMin= 3.60D-02 ExpMax= 4.56D+03 ExpMxC= 6.82D+02 IAcc=3 IRadAn=         5 AccDes= 0.00D+00
 Harris functional with IExCor=  205 and IRadAn=       5 diagonalized for initial guess.
 HarFok:  IExCor=  205 AccDes= 0.00D+00 IRadAn=         5 IDoV= 1 UseB2=F ITyADJ=14
 ICtDFT=  3500011 ScaDFX=  1.000000  1.000000  1.000000  1.000000
 FoFCou: FMM=F IPFlag=           0 FMFlag=      100000 FMFlg1=           0
         NFxFlg=           0 DoJE=T BraDBF=F KetDBF=T FulRan=T
         wScrn=  0.000000 ICntrl=     500 IOpCl=  0 I1Cent=   200000004 NGrid=           0
         NMat0=    1 NMatS0=      1 NMatT0=    0 NMatD0=    1 NMtDS0=    0 NMtDT0=    0
 Petite list used in FoFCou.
 Requested convergence on RMS density matrix=1.00D-08 within 128 cycles.
 Requested convergence on MAX density matrix=1.00D-06.
 Requested convergence on             energy=1.00D-06.
 No special actions if energy rises.
 Initial convergence to 1.0D-05 achieved.  Increase integral accuracy.
 SCF Done:  E(RHF) =  -460.280288295     A.U. after   35 cycles
            NFock= 35  Conv=0.49D-08     -V/T= 1.9955
 Calling FoFJK, ICntrl=      2127 FMM=F ISym2X=0 I1Cent= 0 IOpClX= 0 NMat=1 NMatS=1 NMatT=0.
 ***** Axes restored to original set *****
 -------------------------------------------------------------------
 Center     Atomic                   Forces (Hartrees/Bohr)
 Number     Number              X              Y              Z
 -------------------------------------------------------------------
      1        6          -0.035515984   -0.044655756    0.028267201
      2        6          -0.010623127   -0.008536726   -0.017346411
      3        6           0.017999733   -0.000032827    0.021663882
      4        6          -0.003497086   -0.015414330    0.004535639
      5        6           0.050623890   -0.002145062    0.018447088
      6        6          -0.017430002    0.003557830   -0.028259408
      7        1           0.012430623    0.000759087    0.006712191
      8        1           0.011390732    0.001680281   -0.007570902
      9        1          -0.000250872    0.000563816   -0.014495627
     10        1          -0.012390319    0.000068526   -0.007436525
     11        1          -0.014524746   -0.004850378    0.007345077
     12        1           0.001569105   -0.019831206    0.013294906
     13        6          -0.097964578    0.054887959    0.201437152
     14        6          -0.010649611    0.048892589    0.009166390
     15        6          -0.957468431    0.402451753    0.609739817
     16        6           0.949966807   -0.414519230   -0.523656934
     17        6           0.083524285    0.018600944    0.075257229
     18        6           0.111243129   -0.085084686   -0.227027564
     19        1          -0.002123272    0.031788579    0.011458480
     20        1           0.026634323    0.026797843    0.027814983
     21        1          -0.032777635   -0.026224659   -0.092138356
     22        1          -0.059582787   -0.027338756   -0.037591156
     23        1          -0.005275563    0.010825918   -0.011282917
     24        1          -0.005308614    0.047758492   -0.068334234
 -------------------------------------------------------------------
 Cartesian Forces:  Max     0.957468431 RMS     0.203331648

 GradGradGradGradGradGradGradGradGradGradGradGradGradGradGradGradGradGrad
 Berny optimization.
 Using GEDIIS/GDIIS optimizer.
 FormGI is forming the generalized inverse of G from B-inverse, IUseBI=4.
 Internal  Forces:  Max     1.100857978 RMS     0.108215062
 Search for a local minimum.
 Step number   2 out of a maximum of  132
 All quantities printed in internal units (Hartrees-Bohrs-Radians)
 Mixed Optimization -- RFO/linear search
 Update second derivatives using D2CorX and points    1    2
 DE= -3.26D-01 DEPred=-3.47D-01 R= 9.37D-01
 TightC=F SS=  1.41D+00  RLast= 3.43D-01 DXNew= 5.0454D-01 1.0298D+00
 Trust test= 9.37D-01 RLast= 3.43D-01 DXMaxT set to 5.05D-01
 ITU=  1  0
 Use linear search instead of GDIIS.
 Linear search step of   0.600 exceeds DXMaxT=   0.505 but not scaled.
 Quartic linear search produced a step of  2.00000.
 Iteration  1 RMS(Cart)=  0.28843765 RMS(Int)=  0.01487780
 Iteration  2 RMS(Cart)=  0.03798690 RMS(Int)=  0.00124952
 Iteration  3 RMS(Cart)=  0.00063378 RMS(Int)=  0.00118414
 Iteration  4 RMS(Cart)=  0.00000090 RMS(Int)=  0.00118414
 Variable       Old X    -DE/DX   Delta X   Delta X   Delta X     New X
                                 (Linear)    (Quad)   (Total)
    R1        2.63216  -0.01523  -0.00862   0.00000  -0.00860   2.62356
    R2        2.65715   0.02768   0.04262   0.00000   0.04290   2.70006
    R3        2.06958  -0.01414  -0.01676   0.00000  -0.01676   2.05283
    R4        2.64577   0.01021   0.02029   0.00000   0.02003   2.66579
    R5        2.06998  -0.01374  -0.01614   0.00000  -0.01614   2.05384
    R6        2.63368  -0.01083  -0.00659   0.00000  -0.00687   2.62680
    R7        2.06939  -0.01450  -0.01741   0.00000  -0.01741   2.05198
    R8        2.63145  -0.00416  -0.00877   0.00000  -0.00880   2.62266
    R9        2.06950  -0.01445  -0.01718   0.00000  -0.01718   2.05232
   R10        2.66386   0.03742   0.05486   0.00000   0.05512   2.71898
   R11        2.06857  -0.01651  -0.01936   0.00000  -0.01936   2.04920
   R12        2.06993  -0.01406  -0.01605   0.00000  -0.01605   2.05388
   R13        2.33348   0.08744   0.17534   0.00000   0.17534   2.50881
   R14        2.55011   0.02612   0.03889   0.00000   0.03817   2.58828
   R15        2.31581   0.33530   0.24428   0.00000   0.24462   2.56043
   R16        2.10269  -0.01569  -0.03202   0.00000  -0.03202   2.07067
   R17        4.07155  -0.11301  -0.12157   0.00000  -0.12287   3.94868
   R18        2.07629  -0.00650  -0.00351   0.00000  -0.00351   2.07279
   R19        1.85503   1.10086   0.25172   0.00000   0.25148   2.10651
   R20        3.15286  -0.09852  -0.11946   0.00000  -0.11946   3.03341
   R21        2.98428  -0.04954  -0.04029   0.00000  -0.03960   2.94468
   R22        3.59100  -0.07490  -0.09142   0.00000  -0.09142   3.49958
   R23        4.22131   0.08550   0.09340   0.00000   0.09446   4.31577
   R24        2.07899  -0.00019   0.00149   0.00000   0.00149   2.08049
   R25        2.32296   0.04361   0.16974   0.00000   0.16974   2.49270
    A1        2.09288  -0.00197  -0.00297   0.00000  -0.00245   2.09043
    A2        2.09478   0.00137   0.00087   0.00000   0.00060   2.09538
    A3        2.09551   0.00061   0.00209   0.00000   0.00182   2.09733
    A4        2.09915   0.00912   0.00921   0.00000   0.00919   2.10834
    A5        2.09084  -0.00546  -0.00643   0.00000  -0.00642   2.08442
    A6        2.09319  -0.00365  -0.00278   0.00000  -0.00277   2.09041
    A7        2.09476  -0.00017   0.00094   0.00000   0.00055   2.09531
    A8        2.09403  -0.00019  -0.00118   0.00000  -0.00106   2.09296
    A9        2.09436   0.00032   0.00018   0.00000   0.00030   2.09466
   A10        2.09842   0.00664   0.00827   0.00000   0.00811   2.10653
   A11        2.09192  -0.00314  -0.00428   0.00000  -0.00429   2.08764
   A12        2.09281  -0.00352  -0.00403   0.00000  -0.00403   2.08878
   A13        2.09505  -0.00195   0.00114   0.00000   0.00152   2.09656
   A14        2.09454   0.00163  -0.00010   0.00000  -0.00040   2.09414
   A15        2.09356   0.00027  -0.00111   0.00000  -0.00141   2.09215
   A16        2.08590  -0.01194  -0.01699   0.00000  -0.01839   2.06752
   A17        2.09850   0.00668   0.00793   0.00000   0.00802   2.10652
   A18        1.52565   0.04164   0.15131   0.00000   0.15161   1.67726
   A19        2.09817   0.00431   0.00783   0.00000   0.00551   2.10368
   A20        1.66902   0.00178  -0.01999   0.00000  -0.01862   1.65039
   A21        1.55065  -0.01791  -0.06611   0.00000  -0.06647   1.48418
[...]
    A9        2.09412   0.00024   0.00000  -0.00014   0.00000   2.09412
   A10        2.09396   0.00007   0.00000  -0.00004   0.00000   2.09396
   A11        2.09479  -0.00002   0.00000   0.00000   0.00000   2.09479
   A12        2.09441  -0.00005   0.00000   0.00004   0.00000   2.09441
   A13        2.09542  -0.00005   0.00000   0.00001   0.00000   2.09542
   A14        2.09296   0.00013   0.00000  -0.00005   0.00000   2.09296
   A15        2.09479  -0.00008   0.00000   0.00004   0.00000   2.09479
   A16        2.09237   0.00028   0.00000  -0.00017   0.00000   2.09237
   A17        2.09686  -0.00011   0.00000   0.00007   0.00000   2.09686
   A18        1.63909   0.00084   0.00000  -0.00021   0.00000   1.63909
   A19        2.09286  -0.00016   0.00000   0.00009   0.00000   2.09286
   A20        1.84681  -0.00132   0.00000   0.00039   0.00000   1.84681
   A21        1.26721   0.00019   0.00000   0.00004   0.00000   1.26721
   A22        2.09857  -0.00126   0.00000   0.00037   0.00000   2.09857
   A23        2.09330   0.00009   0.00000   0.00033   0.00000   2.09330
   A24        2.09131   0.00117   0.00000  -0.00070   0.00000   2.09131
   A25        2.09621  -0.00059   0.00000   0.00053   0.00000   2.09621
   A26        2.09218   0.00045   0.00000  -0.00026   0.00000   2.09218
   A27        2.09477   0.00014   0.00000  -0.00028   0.00000   2.09477
   A28        2.09266   0.00100   0.00000  -0.00010   0.00000   2.09266
   A29        2.10070  -0.00099   0.00000   0.00039   0.00000   2.10070
   A30        2.08982   0.00000   0.00000  -0.00029   0.00000   2.08982
   A31        2.08636   0.00244   0.00000  -0.00092   0.00000   2.08636
   A32        2.09128  -0.00048   0.00000   0.00002   0.00000   2.09128
   A33        2.10551  -0.00196   0.00000   0.00090   0.00000   2.10551
   A34        2.09963  -0.00039   0.00000  -0.00006   0.00000   2.09963
   A35        2.09464  -0.00023   0.00000   0.00045   0.00000   2.09464
   A36        2.08884   0.00062   0.00000  -0.00040   0.00000   2.08884
   A37        2.09292  -0.00119   0.00000   0.00018   0.00000   2.09292
   A38        2.10329  -0.00015   0.00000   0.00017   0.00000   2.10329
   A39        2.08691   0.00134   0.00000  -0.00035   0.00000   2.08691
   A40        3.14159   0.00107   0.00000   0.59994   0.00000   3.14159
    D1       -0.00782   0.00010   0.00000  -0.00005   0.00000  -0.00782
    D2        3.13609   0.00001   0.00000  -0.00001   0.00000   3.13609
    D3        3.14137   0.00018   0.00000  -0.00011   0.00000   3.14137
    D4        0.00210   0.00008   0.00000  -0.00006   0.00000   0.00210
    D5        0.02236  -0.00010   0.00000   0.00006   0.00000   0.02236
    D6        3.11355   0.00013   0.00000  -0.00013   0.00000   3.11355
    D7       -1.91065   0.00085   0.00000  -0.00022   0.00000  -1.91065
    D8       -3.12684  -0.00018   0.00000   0.00012   0.00000  -3.12684
    D9       -0.03565   0.00006   0.00000  -0.00007   0.00000  -0.03565
   D10        1.22334   0.00078   0.00000  -0.00016   0.00000   1.22334
   D11       -0.00411  -0.00004   0.00000   0.00001   0.00000  -0.00411
   D12        3.13834   0.00000   0.00000  -0.00001   0.00000   3.13834
   D13        3.13516   0.00005   0.00000  -0.00003   0.00000   3.13516
   D14       -0.00557   0.00009   0.00000  -0.00005   0.00000  -0.00557
   D15        0.00146  -0.00001   0.00000   0.00001   0.00000   0.00146
   D16       -3.13350  -0.00001   0.00000   0.00002   0.00000  -3.13350
   D17       -3.14099  -0.00005   0.00000   0.00003   0.00000  -3.14099
   D18        0.00723  -0.00005   0.00000   0.00004   0.00000   0.00723
   D19        0.01312   0.00000   0.00000   0.00001   0.00000   0.01312
   D20       -3.13510   0.00008   0.00000   0.00000   0.00000  -3.13510
   D21       -3.13510   0.00000   0.00000  -0.00001   0.00000  -3.13510
   D22       -0.00013   0.00008   0.00000  -0.00001   0.00000  -0.00013
   D23       -0.02502   0.00005   0.00000  -0.00004   0.00000  -0.02502
   D24       -3.11631  -0.00018   0.00000   0.00015   0.00000  -3.11631
   D25        1.79285   0.00033   0.00000  -0.00012   0.00000   1.79285
   D26        3.12321  -0.00002   0.00000  -0.00004   0.00000   3.12321
   D27        0.03191  -0.00026   0.00000   0.00016   0.00000   0.03191
   D28       -1.34211   0.00025   0.00000  -0.00011   0.00000  -1.34211
   D29        1.84738   0.00022   0.00000  -0.00008   0.00000   1.84738
   D30       -0.29199  -0.00005   0.00000   0.00008   0.00000  -0.29199
   D31       -2.33447  -0.00019   0.00000   0.00006   0.00000  -2.33447
   D32        0.00639  -0.00026   0.00000   0.00013   0.00000   0.00639
   D33        3.14094   0.00000   0.00000  -0.00006   0.00000   3.14094
   D34       -3.13707  -0.00021   0.00000   0.00010   0.00000  -3.13707
   D35       -0.00253   0.00005   0.00000  -0.00009   0.00000  -0.00253
   D36       -0.00706   0.00022   0.00000   0.00000   0.00000  -0.00706
   D37        3.12289   0.00044   0.00000  -0.00030   0.00000   3.12289
   D38        3.13640   0.00017   0.00000   0.00003   0.00000   3.13640
   D39       -0.01683   0.00039   0.00000  -0.00026   0.00000  -0.01683
   D40       -0.00108   0.00010   0.00000  -0.00013   0.00000  -0.00108
   D41       -3.13924   0.00003   0.00000   0.00003   0.00000  -3.13924
   D42       -3.13561  -0.00016   0.00000   0.00006   0.00000  -3.13561
   D43        0.00941  -0.00023   0.00000   0.00021   0.00000   0.00941
   D44       -0.00350   0.00008   0.00000   0.00000   0.00000  -0.00350
   D45       -3.13654  -0.00010   0.00000   0.00011   0.00000  -3.13654
   D46        3.13468   0.00015   0.00000  -0.00015   0.00000   3.13468
   D47        0.00164  -0.00004   0.00000  -0.00004   0.00000   0.00164
   D48        0.00284  -0.00013   0.00000   0.00013   0.00000   0.00284
   D49        3.13066   0.00031   0.00000  -0.00033   0.00000   3.13066
   D50        3.13580   0.00006   0.00000   0.00002   0.00000   3.13580
   D51       -0.01955   0.00050   0.00000  -0.00044   0.00000  -0.01955
   D52        0.00244  -0.00002   0.00000  -0.00013   0.00000   0.00244
   D53       -3.12762  -0.00022   0.00000   0.00016   0.00000  -3.12762
   D54       -3.12544  -0.00045   0.00000   0.00032   0.00000  -3.12544
   D55        0.02769  -0.00065   0.00000   0.00061   0.00000   0.02769
   D56       -2.39012  -0.00011   0.00000   0.00019   0.00000  -2.39012
   D57        0.73987   0.00009   0.00000  -0.00010   0.00000   0.73987
         Item               Value     Threshold  Converged?
 Maximum Force            0.012474     0.000450     NO 
 RMS     Force            0.001754     0.000300     NO 
 Maximum Displacement     0.000000     0.001800     YES
 RMS     Displacement     0.000000     0.001200     YES
 Predicted change in Energy=-2.020770D-11
 GradGradGradGradGradGradGradGradGradGradGradGradGradGradGradGradGradGrad

                          Input orientation:                          
 ---------------------------------------------------------------------
 Center     Atomic      Atomic             Coordinates (Angstroms)
 Number     Number       Type             X           Y           Z
 ---------------------------------------------------------------------
      1          6           0        0.195467   -0.289396    0.220313
      2          6           0        0.063533   -1.133190    1.310733
      3          6           0        1.126588   -1.934982    1.700423
      4          6           0        2.318955   -1.895687    0.996204
      5          6           0        2.450268   -1.053140   -0.097646
      6          6           0        1.394236   -0.238446   -0.477684
      7          1           0       -0.630065    0.331632   -0.080701
      8          1           0       -0.864134   -1.168334    1.854183
      9          1           0        1.024772   -2.587983    2.549155
     10          1           0        3.140708   -2.522819    1.293789
     11          1           0        3.374591   -1.027770   -0.647469
     12          1           0        1.490367    0.396684   -1.339962
     13          6           0        1.163319    3.708799    0.891312
     14          6           0        1.489857    4.973470    1.367835
     15          6           0        2.816228    5.324745    1.552813
     16          6           0        3.827704    4.405357    1.260961
     17          6           0        3.490038    3.140785    0.789891
     18          6           0        2.158612    2.794077    0.607219
     19          1           0        0.132220    3.440186    0.744657
     20          1           0        0.709794    5.681663    1.586670
     21          1           0        3.073651    6.302007    1.923588
     22          1           0        4.860693    4.678815    1.410016
     23          1           0        4.263086    2.430316    0.553175
     24          1           0        1.907247    1.796831    0.250448
 ---------------------------------------------------------------------
                    Distance matrix (angstroms):
                    1          2          3          4          5
     1  C    0.000000
     2  C    1.385068   0.000000
     3  C    2.401180   1.387377   0.000000
     4  C    2.773333   2.401512   1.385355   0.000000
     5  C    2.401777   2.772444   2.400590   1.386952   0.000000
     6  C    1.388108   2.402036   2.773810   2.402893   1.386852
     7  H    1.076006   2.136089   3.375763   3.849337   3.377327
     8  H    2.136543   1.075703   2.138776   3.375977   3.848138
     9  H    3.375612   2.138713   1.075696   2.136783   3.375402
    10  H    3.849023   3.376442   2.137191   1.075700   2.138400
    11  H    3.377139   3.848217   3.374781   2.137593   1.075788
    12  H    2.140544   3.376767   3.848759   3.376269   2.136995
    13  C    4.168038   4.983002   5.701603   5.723352   5.030938
    14  C    5.539857   6.271281   6.925987   6.928984   6.276149
    15  C    6.337391   7.024305   7.455221   7.258907   6.598133
    16  C    6.026342   6.696788   6.905726   6.484564   5.791229
    17  C    4.790069   5.502643   5.672599   5.174944   4.411105
    18  C    3.675791   4.506409   4.962275   4.708599   3.922114
    19  H    3.766791   4.608788   5.549296   5.772055   5.125700
    20  H    6.146951   6.850987   7.628889   7.768801   7.157076
    21  H    7.391325   8.044785   8.466927   8.284431   7.653247
    22  H    6.918298   7.536711   7.600670   7.060860   6.398320
    23  H    4.904402   5.559561   5.496329   4.763425   3.980495
    24  H    2.698785   3.620568   4.079006   3.789504   2.922050
                    6          7          8          9         10
     6  C    0.000000
     7  H    2.140183   0.000000
     8  H    3.376763   2.459362   0.000000
     9  H    3.849491   4.263659   2.462997   0.000000
    10  H    3.377371   4.925023   4.264672   2.461174   0.000000
    11  H    2.138612   4.266904   4.923901   4.263135   2.461372
    12  H    1.075246   2.467023   4.265620   4.924454   4.264243
    13  C    4.184282   3.945414   5.368809   6.512841   6.550199
    14  C    5.529842   5.304619   6.595419   7.667294   7.676271
    15  C    6.090491   6.283031   7.469669   8.173939   7.858539
    16  C    5.523546   6.186032   7.309670   7.643472   6.962230
    17  C    4.173528   5.062067   6.217719   6.480071   5.696696
    18  C    3.310209   3.783330   5.137374   5.832948   5.450254
    19  H    4.076658   3.305359   4.843781   6.355445   6.701490
    20  H    6.306957   5.761786   7.033581   8.331424   8.562046
    21  H    7.166873   7.306166   8.444937   9.144461   8.847525
    22  H    6.305489   7.160214   8.195125   8.295678   7.405091
    23  H    4.051575   5.361829   6.397756   6.297138   5.132425
    24  H    2.221646   2.948630   4.364025   5.028858   4.611872
                   11         12         13         14         15
    11  H    0.000000
    12  H    2.461486   0.000000
    13  C    5.449096   4.006950   0.000000
    14  C    6.605191   5.317813   1.390358   0.000000
    15  C    6.745921   5.866161   2.404366   1.384511   0.000000
    16  C    5.776355   5.319531   2.778629   2.408257   1.397690
    17  C    4.410916   4.008123   2.397196   2.773712   2.409513
    18  C    4.202304   3.159994   1.381315   2.403232   2.780447
    19  H    5.693295   3.931044   1.075559   2.140676   3.377659
    20  H    7.557049   6.091426   2.140420   1.076069   2.136727
    21  H    7.773450   6.930396   3.382261   2.140625   1.076468
    22  H    6.245546   6.103944   3.857533   3.383953   2.148826
    23  H    3.766872   3.925252   3.370076   3.849948   3.386797
    24  H    3.307223   2.159538   2.149362   3.393199   3.868925
                   16         17         18         19         20
    16  C    0.000000
    17  C    1.391067   0.000000
    18  C    2.410284   1.387902   0.000000
    19  H    3.854184   3.371443   2.131340   0.000000
    20  H    3.384731   3.849763   3.375877   2.463087   0.000000
    21  H    2.145916   3.384077   3.856903   4.269885   2.467014
    22  H    1.078918   2.151462   3.390865   4.933089   4.273977
    23  H    2.142733   1.076292   2.136365   4.256825   4.925977
    24  H    3.393184   2.145329   1.088563   2.468922   4.279170
                   21         22         23         24
    21  H    0.000000
    22  H    2.468204   0.000000
    23  H    4.275837   2.479326   0.000000
    24  H    4.945352   4.286406   2.458236   0.000000
 Stoichiometry    C12H12
 Framework group  C1[X(C12H12)]
 Deg. of freedom    66
 Full point group                 C1      NOp   1
 Largest Abelian subgroup         C1      NOp   1
 Largest concise Abelian subgroup C1      NOp   1
                         Standard orientation:                         
 ---------------------------------------------------------------------
 Center     Atomic      Atomic             Coordinates (Angstroms)
 Number     Number       Type             X           Y           Z
 ---------------------------------------------------------------------
      1          6           0        2.140594   -1.190520   -0.590401
      2          6           0        2.911787   -1.245464    0.558796
      3          6           0        3.427739   -0.079041    1.104751
      4          6           0        3.175960    1.140701    0.498084
      5          6           0        2.406365    1.195647   -0.654453
      6          6           0        1.875615    0.032334   -1.191448
      7          1           0        1.741379   -2.096137   -1.012628
      8          1           0        3.112436   -2.193012    1.026803
      9          1           0        4.024140   -0.121763    1.998956
     10          1           0        3.582195    2.044291    0.917165
     11          1           0        2.216420    2.142667   -1.128155
     12          1           0        1.298828    0.074694   -2.097912
     13          6           0       -2.010379   -1.172633   -0.214041
     14          6           0       -3.346947   -1.173206    0.168947
     15          6           0       -3.995913    0.022269    0.426926
     16          6           0       -3.305043    1.230946    0.303100
     17          6           0       -1.966497    1.220147   -0.075380
     18          6           0       -1.321019    0.018553   -0.331897
     19          1           0       -1.510017   -2.102650   -0.417834
     20          1           0       -3.878477   -2.104556    0.258323
     21          1           0       -5.030046    0.026524    0.725813
     22          1           0       -3.810708    2.161526    0.508982
     23          1           0       -1.429910    2.146929   -0.182859
     24          1           0       -0.269805    0.023085   -0.614560
 ---------------------------------------------------------------------
 Rotational constants (GHZ):      2.0935580      0.3950402      0.3646736
 Standard basis: 6-311++G(d,p) (5D, 7F)
 There are   360 symmetry adapted cartesian basis functions of A   symmetry.
 There are   348 symmetry adapted basis functions of A   symmetry.
   348 basis functions,   540 primitive gaussians,   360 cartesian basis functions
    42 alpha electrons       42 beta electrons
       nuclear repulsion energy       583.8473842448 Hartrees.
 NAtoms=   24 NActive=   24 NUniq=   24 SFac= 1.00D+00 NAtFMM=   60 NAOKFM=F Big=F
 Integral buffers will be    131072 words long.
 Raffenetti 1 integral format.
 Two-electron integral symmetry is turned on.
 One-electron integrals computed using PRISM.
 NBasis=   348 RedAO= T EigKep=  5.74D-06  NBF=   348
 NBsUse=   346 1.00D-06 EigRej=  8.22D-07 NBFU=   346
 Initial guess from the checkpoint file:  "benz-test2.chk"
 B after Tr=     0.000000    0.000000    0.000000
         Rot=    1.000000    0.000000    0.000000    0.000000 Ang=   0.00 deg.
 Requested convergence on RMS density matrix=1.00D-08 within 128 cycles.
 Requested convergence on MAX density matrix=1.00D-06.
 Requested convergence on             energy=1.00D-06.
 No special actions if energy rises.
 SCF Done:  E(RHF) =  -461.506397166     A.U. after    1 cycles
            NFock=  1  Conv=0.17D-08     -V/T= 2.0004
 Calling FoFJK, ICntrl=      2127 FMM=F ISym2X=0 I1Cent= 0 IOpClX= 0 NMat=1 NMatS=1 NMatT=0.
 ***** Axes restored to original set *****
 -------------------------------------------------------------------
 Center     Atomic                   Forces (Hartrees/Bohr)
 Number     Number              X              Y              Z
 -------------------------------------------------------------------
      1        6           0.000858932   -0.000196441   -0.000766652
      2        6           0.000471577   -0.000141751    0.000180575
      3        6          -0.000278698    0.000254563    0.000282065
      4        6          -0.000248423    0.000139418   -0.000292412
      5        6          -0.000424515    0.001398785    0.000121779
      6        6          -0.003804791   -0.012509431   -0.004150782
      7        1           0.000058418   -0.000202273   -0.000163433
      8        1           0.000135428   -0.000009510   -0.000020676
      9        1          -0.000088715    0.000010504   -0.000141316
     10        1          -0.000051145    0.000128184    0.000005791
     11        1          -0.000069684    0.000001878   -0.000129082
     12        1           0.000008882    0.000074299    0.000324522
     13        6          -0.001529286    0.003623209    0.001518872
     14        6          -0.000651873   -0.001089874   -0.001596557
     15        6           0.007135238   -0.005836296   -0.001260326
     16        6          -0.007587402    0.000882688    0.000755792
     17        6           0.003198387    0.005917983    0.000626118
     18        6           0.001695507   -0.009246456   -0.003054992
     19        1          -0.000464516    0.000260792    0.000514537
     20        1           0.000222832   -0.000101489    0.000240144
     21        1          -0.000611909   -0.000383932   -0.000350476
     22        1          -0.002221763   -0.001170753   -0.000958588
     23        1           0.000070133    0.000071209    0.001184488
     24        1           0.004177384    0.018124692    0.007130610
 -------------------------------------------------------------------
 Cartesian Forces:  Max     0.018124692 RMS     0.003555426

 GradGradGradGradGradGradGradGradGradGradGradGradGradGradGradGradGradGrad
 Berny optimization.
 Using GEDIIS/GDIIS optimizer.
 Bend failed for angle     6 -    24 -    18
 Tors failed for dihedral     1 -     6 -    24 -    18
 Tors failed for dihedral     5 -     6 -    24 -    18
 Tors failed for dihedral    12 -     6 -    24 -    18
 Tors failed for dihedral    13 -    18 -    24 -     6
 Tors failed for dihedral    17 -    18 -    24 -     6
 FormBX had a problem.
 Error termination via Lnk1e in /cluster/software/gaussian/gaussian-09-D.01/g09/l103.exe at Fri Oct  7 12:34:23 2016.
 Job cpu time:       0 days  4 hours 22 minutes 44.8 seconds.
 File lengths (MBytes):  RWF=     80 Int=      0 D2E=      0 Chk=     11 Scr=      1
